* initial
*
        1644  EXT
         1         1  TIP3  OH2           4.4626183719       -1.5357448267       -2.1678431621  CLST           1          1.0000000000
         2         1  TIP3  H1            4.7571107751       -1.5965179415       -1.2619736508  CLST           1          1.0000000000
         3         1  TIP3  H2            5.1146456209       -2.2019297055       -2.4681808665  CLST           1          1.0000000000
         4         2  TIP3  OH2          10.6225858101        7.3927030092      -11.7423575117  CLST           2          1.0000000000
         5         2  TIP3  H1           11.0237970319        7.3422235677      -10.8595188518  CLST           2          1.0000000000
         6         2  TIP3  H2            9.7177392172        7.2587295963      -11.5594062033  CLST           2          1.0000000000
         7         3  TIP3  OH2           8.6688444454        5.3972416743       -4.2591253474  CLST           3          1.0000000000
         8         3  TIP3  H1            9.1861885614        5.6685936864       -3.5145522124  CLST           3          1.0000000000
         9         3  TIP3  H2            8.7546350031        6.1262311242       -4.8656416312  CLST           3          1.0000000000
        10         4  TIP3  OH2          -2.7738135300        6.8570897920       10.1192073057  CLST           4          1.0000000000
        11         4  TIP3  H1           -3.6084003670        7.0551044589        9.5932015931  CLST           4          1.0000000000
        12         4  TIP3  H2           -3.0415985396        7.3405278273       10.9287798795  CLST           4          1.0000000000
        13         5  TIP3  OH2           9.1599676476        6.2771226257       10.5167916677  CLST           5          1.0000000000
        14         5  TIP3  H1            8.5430500187        5.8745135542       11.1290532902  CLST           5          1.0000000000
        15         5  TIP3  H2            9.3075328360        5.4791699825        9.9093248652  CLST           5          1.0000000000
        16         6  TIP3  OH2          10.5665803859       -5.9450797934      -11.6184226319  CLST           6          1.0000000000
        17         6  TIP3  H1           11.1688079411       -5.5286600871      -11.0008356884  CLST           6          1.0000000000
        18         6  TIP3  H2           10.6751096485       -5.2821649267      -12.3605966784  CLST           6          1.0000000000
        19         7  TIP3  OH2         -12.2117213782        8.3005262087        5.7223261491  CLST           7          1.0000000000
        20         7  TIP3  H1          -12.6495495842        9.1243985386        6.0534640438  CLST           7          1.0000000000
        21         7  TIP3  H2          -11.4085854470        8.3235787172        6.2844308947  CLST           7          1.0000000000
        22         8  TIP3  OH2          -4.4964750177       -8.2703533540        0.6482992718  CLST           8          1.0000000000
        23         8  TIP3  H1           -4.6157290659       -8.0496956358        1.6240893897  CLST           8          1.0000000000
        24         8  TIP3  H2           -3.6986026989       -7.7368173094        0.3678356625  CLST           8          1.0000000000
        25         9  TIP3  OH2           2.6807393012      -14.2120051652       -3.9926856376  CLST           9          1.0000000000
        26         9  TIP3  H1            1.7678044823      -14.0065466930       -3.7157328065  CLST           9          1.0000000000
        27         9  TIP3  H2            3.1434086301      -13.9088996742       -3.2435673910  CLST           9          1.0000000000
        28        10  TIP3  OH2         -14.2571156682       -1.2436979638       -0.3564376642  CLST          10          1.0000000000
        29        10  TIP3  H1          -14.0138415399       -1.3676347278       -1.2739116767  CLST          10          1.0000000000
        30        10  TIP3  H2          -13.7540055090       -1.8986241217        0.1071209273  CLST          10          1.0000000000
        31        11  TIP3  OH2           7.0004399491        6.6588255414       -1.8665521147  CLST          11          1.0000000000
        32        11  TIP3  H1            7.3127737869        5.7953602830       -1.5550130190  CLST          11          1.0000000000
        33        11  TIP3  H2            6.7943456484        6.4548156136       -2.8388542333  CLST          11          1.0000000000
        34        12  TIP3  OH2          -8.1916201547        2.6880490016        1.7971118421  CLST          12          1.0000000000
        35        12  TIP3  H1           -7.6373834854        2.7889586581        1.0421099898  CLST          12          1.0000000000
        36        12  TIP3  H2           -9.0595814487        2.6670392722        1.4169871373  CLST          12          1.0000000000
        37        13  TIP3  OH2           7.6429596096        2.5720597816        2.1054338755  CLST          13          1.0000000000
        38        13  TIP3  H1            7.8274025318        3.4552402787        1.7021028359  CLST          13          1.0000000000
        39        13  TIP3  H2            7.5948890071        2.6862054131        3.0900805600  CLST          13          1.0000000000
        40        14  TIP3  OH2          -0.3446239061        2.1148861812        7.8592100634  CLST          14          1.0000000000
        41        14  TIP3  H1           -0.0177724121        2.9765630129        7.6511389973  CLST          14          1.0000000000
        42        14  TIP3  H2            0.3260235098        1.6003512838        7.3955440992  CLST          14          1.0000000000
        43        15  TIP3  OH2          -8.8859396495       -3.8932226877      -12.8143982593  CLST          15          1.0000000000
        44        15  TIP3  H1           -8.0879675312       -3.8939673678      -13.3122732171  CLST          15          1.0000000000
        45        15  TIP3  H2           -8.6303994303       -4.3056820874      -11.9970446253  CLST          15          1.0000000000
        46        16  TIP3  OH2          -3.8501442316      -12.7997877391       -6.2543049891  CLST          16          1.0000000000
        47        16  TIP3  H1           -4.5085203906      -12.9175821097       -5.5661915943  CLST          16          1.0000000000
        48        16  TIP3  H2           -3.0061482641      -12.7432341146       -5.7495413397  CLST          16          1.0000000000
        49        17  TIP3  OH2           4.8467751780      -13.5153749070       -8.4868519874  CLST          17          1.0000000000
        50        17  TIP3  H1            5.4035016638      -13.1839278263       -7.8318286145  CLST          17          1.0000000000
        51        17  TIP3  H2            4.0639803860      -13.6271800892       -7.9096211149  CLST          17          1.0000000000
        52        18  TIP3  OH2         -11.7206585523       -6.6550733496       -1.4874239580  CLST          18          1.0000000000
        53        18  TIP3  H1          -12.1293673018       -5.8078510227       -1.6819095117  CLST          18          1.0000000000
        54        18  TIP3  H2          -11.7766445567       -6.9741852725       -2.4009916956  CLST          18          1.0000000000
        55        19  TIP3  OH2          10.9507189483       -0.1204944331        9.5893158854  CLST          19          1.0000000000
        56        19  TIP3  H1           10.6984194936       -1.0281209558        9.8963643855  CLST          19          1.0000000000
        57        19  TIP3  H2           11.3151128602       -0.3350907375        8.7084710292  CLST          19          1.0000000000
        58        20  TIP3  OH2         -13.3048528841        1.4649813531        2.7931275181  CLST          20          1.0000000000
        59        20  TIP3  H1          -13.0670430130        1.1677284805        1.8960879216  CLST          20          1.0000000000
        60        20  TIP3  H2          -14.2768746296        1.5333696495        2.7887171837  CLST          20          1.0000000000
        61        21  TIP3  OH2         -10.0692916636       12.5969552928       -5.3675580174  CLST          21          1.0000000000
        62        21  TIP3  H1          -10.6268420378       13.2894666525       -5.7258565827  CLST          21          1.0000000000
        63        21  TIP3  H2           -9.2757727328       12.4918210315       -5.9334040298  CLST          21          1.0000000000
        64        22  TIP3  OH2           2.8789908661       12.0845592249       -6.6034793415  CLST          22          1.0000000000
        65        22  TIP3  H1            3.4379344751       11.5442665711       -6.0109163094  CLST          22          1.0000000000
        66        22  TIP3  H2            2.7981536891       12.9193584777       -6.0864984532  CLST          22          1.0000000000
        67        23  TIP3  OH2           5.4825086487       -1.7829231931       11.5053268674  CLST          23          1.0000000000
        68        23  TIP3  H1            5.4604912927       -2.4092407007       10.7515104920  CLST          23          1.0000000000
        69        23  TIP3  H2            5.2656293400       -0.8882915438       11.1026808445  CLST          23          1.0000000000
        70        24  TIP3  OH2           0.0095556681        1.1577765694        4.5394287754  CLST          24          1.0000000000
        71        24  TIP3  H1            0.9365134628        1.0399525056        4.7382093392  CLST          24          1.0000000000
        72        24  TIP3  H2           -0.3675189040        0.3631897607        4.9472009248  CLST          24          1.0000000000
        73        25  TIP3  OH2           3.2441448676        2.0746977529       -2.5951113765  CLST          25          1.0000000000
        74        25  TIP3  H1            3.5882309054        1.3739033481       -2.0756407493  CLST          25          1.0000000000
        75        25  TIP3  H2            3.7225482871        2.9257028573       -2.3465480412  CLST          25          1.0000000000
        76        26  TIP3  OH2          11.4149716330        5.5353966732       -6.5208784873  CLST          26          1.0000000000
        77        26  TIP3  H1           10.6056066343        5.3264778933       -7.0514695735  CLST          26          1.0000000000
        78        26  TIP3  H2           11.1450966361        6.4226306310       -6.1893262403  CLST          26          1.0000000000
        79        27  TIP3  OH2         -10.3314169519        7.3877867771       -5.4472571956  CLST          27          1.0000000000
        80        27  TIP3  H1          -10.3176745492        7.8472575415       -4.6042284769  CLST          27          1.0000000000
        81        27  TIP3  H2          -10.6209129537        8.0684378583       -6.0789645498  CLST          27          1.0000000000
        82        28  TIP3  OH2          -4.3456640671      -10.2733127882       -6.7671010668  CLST          28          1.0000000000
        83        28  TIP3  H1           -4.1507287536      -11.2417860105       -6.7834756799  CLST          28          1.0000000000
        84        28  TIP3  H2           -4.9824611025      -10.1268553356       -6.0642077233  CLST          28          1.0000000000
        85        29  TIP3  OH2         -10.7934378524        7.5772219674       -2.4842675382  CLST          29          1.0000000000
        86        29  TIP3  H1          -10.2940624723        8.2007856303       -1.8437018203  CLST          29          1.0000000000
        87        29  TIP3  H2          -11.4873849775        8.2913066022       -2.7820759462  CLST          29          1.0000000000
        88        30  TIP3  OH2           8.7452084490      -10.5398411003       -2.0966984114  CLST          30          1.0000000000
        89        30  TIP3  H1            8.9920714818      -10.8192961204       -1.2307494325  CLST          30          1.0000000000
        90        30  TIP3  H2            8.6672800533      -11.3976814226       -2.5302366075  CLST          30          1.0000000000
        91        31  TIP3  OH2          -9.7926517548       -1.2522400486      -13.0508818978  CLST          31          1.0000000000
        92        31  TIP3  H1           -9.7098966967       -2.2484091039      -12.9529228178  CLST          31          1.0000000000
        93        31  TIP3  H2           -9.7669800500       -0.9868348136      -12.0852612666  CLST          31          1.0000000000
        94        32  TIP3  OH2          -8.8389388866       -6.4710482549        7.0850056177  CLST          32          1.0000000000
        95        32  TIP3  H1           -9.7710990720       -6.3998777639        7.1877060339  CLST          32          1.0000000000
        96        32  TIP3  H2           -8.5782594400       -5.7868907947        6.4146106837  CLST          32          1.0000000000
        97        33  TIP3  OH2          11.7880587644       -8.9590945153        8.9335803711  CLST          33          1.0000000000
        98        33  TIP3  H1           11.7534738199       -9.9395543442        8.9670907844  CLST          33          1.0000000000
        99        33  TIP3  H2           11.2762476951       -8.8561327604        9.6927444582  CLST          33          1.0000000000
       100        34  TIP3  OH2           4.1638495576       -3.9922644591        2.9325471985  CLST          34          1.0000000000
       101        34  TIP3  H1            3.6711257279       -4.2244453426        2.1013682835  CLST          34          1.0000000000
       102        34  TIP3  H2            4.4900222836       -4.9213980563        3.0646367904  CLST          34          1.0000000000
       103        35  TIP3  OH2           6.1661595893       -0.8657766240        4.5399570822  CLST          35          1.0000000000
       104        35  TIP3  H1            5.2372061011       -1.1506169928        4.7647238344  CLST          35          1.0000000000
       105        35  TIP3  H2            6.3104607823       -0.2084159859        5.2943993707  CLST          35          1.0000000000
       106        36  TIP3  OH2          -1.5722548086        1.2841898351        2.2659538959  CLST          36          1.0000000000
       107        36  TIP3  H1           -2.3848967968        0.7456571962        2.1193809566  CLST          36          1.0000000000
       108        36  TIP3  H2           -1.2090307525        0.9904858465        3.0574573127  CLST          36          1.0000000000
       109        37  TIP3  OH2          -4.4552396004       -8.3209480880      -12.9815596445  CLST          37          1.0000000000
       110        37  TIP3  H1           -4.9341788297       -8.6270568275      -12.1770232056  CLST          37          1.0000000000
       111        37  TIP3  H2           -4.1086460018       -9.0985715196      -13.4256669680  CLST          37          1.0000000000
       112        38  TIP3  OH2          -3.1603706167        2.1767506543       -4.4451143793  CLST          38          1.0000000000
       113        38  TIP3  H1           -3.2066718214        3.1086939518       -4.6552397214  CLST          38          1.0000000000
       114        38  TIP3  H2           -3.6928638035        1.8379214886       -5.2093657450  CLST          38          1.0000000000
       115        39  TIP3  OH2           1.7052509358      -10.8582911715        2.0633747504  CLST          39          1.0000000000
       116        39  TIP3  H1            1.4930137145      -11.5573357645        2.7123606851  CLST          39          1.0000000000
       117        39  TIP3  H2            0.8562899838      -10.5762063900        1.7332117111  CLST          39          1.0000000000
       118        40  TIP3  OH2          -7.0228994575       12.5178958339        8.1899315069  CLST          40          1.0000000000
       119        40  TIP3  H1           -7.9012823175       12.8213334295        7.8620850367  CLST          40          1.0000000000
       120        40  TIP3  H2           -6.3598541385       12.7458252313        7.4965646090  CLST          40          1.0000000000
       121        41  TIP3  OH2           9.7567178803       -2.2186779529      -11.0369792979  CLST          41          1.0000000000
       122        41  TIP3  H1            9.1211813318       -2.8484062212      -10.7521224341  CLST          41          1.0000000000
       123        41  TIP3  H2            9.4162605861       -1.3772212642      -10.6509276786  CLST          41          1.0000000000
       124        42  TIP3  OH2           9.7820306800       10.2564866139      -10.6198584705  CLST          42          1.0000000000
       125        42  TIP3  H1           10.5349319236       10.1921445866      -10.0418848679  CLST          42          1.0000000000
       126        42  TIP3  H2           10.1404404964       10.1645503424      -11.5821004073  CLST          42          1.0000000000
       127        43  TIP3  OH2          11.9986406479       12.6672288864        7.6595773725  CLST          43          1.0000000000
       128        43  TIP3  H1           12.7085255733       13.2697912952        7.8833971225  CLST          43          1.0000000000
       129        43  TIP3  H2           12.2763856567       11.8921587508        8.0925999664  CLST          43          1.0000000000
       130        44  TIP3  OH2           7.7990621383        0.9684781422        5.9979407567  CLST          44          1.0000000000
       131        44  TIP3  H1            7.9190628119        1.4118438424        6.9247266282  CLST          44          1.0000000000
       132        44  TIP3  H2            7.3685431167        1.7193671349        5.5375261543  CLST          44          1.0000000000
       133        45  TIP3  OH2           7.9628755995        9.4002038895        7.3496906807  CLST          45          1.0000000000
       134        45  TIP3  H1            7.8659629391        8.5017283602        7.6777256864  CLST          45          1.0000000000
       135        45  TIP3  H2            8.8524545692        9.6379350379        7.6371724223  CLST          45          1.0000000000
       136        46  TIP3  OH2          -5.6544600279       -3.1653597489      -12.9234673653  CLST          46          1.0000000000
       137        46  TIP3  H1           -5.4589110114       -4.0572950685      -13.1049863913  CLST          46          1.0000000000
       138        46  TIP3  H2           -5.0529463012       -2.9084906534      -12.2962566642  CLST          46          1.0000000000
       139        47  TIP3  OH2           1.4246587490       -6.5549268176      -11.0426026100  CLST          47          1.0000000000
       140        47  TIP3  H1            1.8652864022       -5.6933215496      -10.9795044384  CLST          47          1.0000000000
       141        47  TIP3  H2            1.1964153123       -6.5645955853      -12.0730896479  CLST          47          1.0000000000
       142        48  TIP3  OH2           5.0816490548        5.5868973896        1.0640852730  CLST          48          1.0000000000
       143        48  TIP3  H1            5.9923224100        5.3071876549        0.9108422786  CLST          48          1.0000000000
       144        48  TIP3  H2            5.2058665574        6.5503591986        1.0645741705  CLST          48          1.0000000000
       145        49  TIP3  OH2          -3.3035044961      -10.6664573711      -13.8092975154  CLST          49          1.0000000000
       146        49  TIP3  H1           -2.4603980465      -10.6989695641      -13.4312810531  CLST          49          1.0000000000
       147        49  TIP3  H2           -3.8048627362      -11.3880657864      -13.4496737041  CLST          49          1.0000000000
       148        50  TIP3  OH2           2.7648954450        3.7939851311        5.8495001604  CLST          50          1.0000000000
       149        50  TIP3  H1            1.9940234380        4.0809575219        6.3850061631  CLST          50          1.0000000000
       150        50  TIP3  H2            2.3436439622        3.4392929630        5.0986243518  CLST          50          1.0000000000
       151        51  TIP3  OH2          -6.4583243919      -10.0480246629       -4.7764174812  CLST          51          1.0000000000
       152        51  TIP3  H1           -6.5437583357       -9.9370971061       -3.7971290512  CLST          51          1.0000000000
       153        51  TIP3  H2           -6.2084474140      -11.0251921855       -4.7657040946  CLST          51          1.0000000000
       154        52  TIP3  OH2           9.1249007797       -5.6526211259       -0.2529828853  CLST          52          1.0000000000
       155        52  TIP3  H1            9.3424008351       -5.6574563810       -1.1964374434  CLST          52          1.0000000000
       156        52  TIP3  H2            9.2471228832       -4.7235640861       -0.0672446045  CLST          52          1.0000000000
       157        53  TIP3  OH2          -9.7054589319       10.0628253727      -12.5362982472  CLST          53          1.0000000000
       158        53  TIP3  H1          -10.0733286411       10.2067477728      -13.3906427276  CLST          53          1.0000000000
       159        53  TIP3  H2           -8.8938905555        9.4790636268      -12.6503396583  CLST          53          1.0000000000
       160        54  TIP3  OH2           0.6496103028       -2.9797520815       -9.5848713046  CLST          54          1.0000000000
       161        54  TIP3  H1            1.1283601120       -3.3378452563      -10.2857041710  CLST          54          1.0000000000
       162        54  TIP3  H2            0.1153778357       -2.3142165423      -10.0694452082  CLST          54          1.0000000000
       163        55  TIP3  OH2           2.9493441109       -4.0407802384      -14.6995581932  CLST          55          1.0000000000
       164        55  TIP3  H1            2.9442042984       -4.8570868069      -14.1714852713  CLST          55          1.0000000000
       165        55  TIP3  H2            3.2333917014       -4.4442485008      -15.5217086484  CLST          55          1.0000000000
       166        56  TIP3  OH2          -9.9982454647       11.1336447699        5.6937905266  CLST          56          1.0000000000
       167        56  TIP3  H1          -10.3478715143       10.3391454127        6.0035528392  CLST          56          1.0000000000
       168        56  TIP3  H2          -10.2717664344       11.0360549842        4.7473789469  CLST          56          1.0000000000
       169        57  TIP3  OH2           1.6539911802      -13.3129323146        0.2901205580  CLST          57          1.0000000000
       170        57  TIP3  H1            2.1395323421      -12.7853293661        0.9389571302  CLST          57          1.0000000000
       171        57  TIP3  H2            2.2404709717      -13.1509104176       -0.4632588033  CLST          57          1.0000000000
       172        58  TIP3  OH2         -13.1192908160       10.6319972014        7.0112118374  CLST          58          1.0000000000
       173        58  TIP3  H1          -12.6427112381       11.4571853753        6.9211640443  CLST          58          1.0000000000
       174        58  TIP3  H2          -12.8935046778       10.4559658080        7.9500907227  CLST          58          1.0000000000
       175        59  TIP3  OH2         -11.4878293851       -2.6164085715        5.3820911212  CLST          59          1.0000000000
       176        59  TIP3  H1          -11.7934981896       -2.3660380849        6.2590958343  CLST          59          1.0000000000
       177        59  TIP3  H2          -11.7299584595       -1.8418372548        4.8994700441  CLST          59          1.0000000000
       178        60  TIP3  OH2           1.3908674767        9.5176008295        8.5367811137  CLST          60          1.0000000000
       179        60  TIP3  H1            0.7007687644        8.9654690064        8.1016492510  CLST          60          1.0000000000
       180        60  TIP3  H2            1.8747248362        8.7239303886        8.9395442079  CLST          60          1.0000000000
       181        61  TIP3  OH2           2.7709421533       -0.5803612578       -5.4941066076  CLST          61          1.0000000000
       182        61  TIP3  H1            3.2949576111       -1.3840056277       -5.2694730406  CLST          61          1.0000000000
       183        61  TIP3  H2            2.0989335135       -0.8825232083       -6.1866822364  CLST          61          1.0000000000
       184        62  TIP3  OH2           7.9958040190        8.3816692271       12.4171803669  CLST          62          1.0000000000
       185        62  TIP3  H1            8.0626652297        7.7030937469       11.6961675139  CLST          62          1.0000000000
       186        62  TIP3  H2            8.4897025570        9.1561573451       12.0111694729  CLST          62          1.0000000000
       187        63  TIP3  OH2           4.6071060309       -7.0680809566      -10.3429568255  CLST          63          1.0000000000
       188        63  TIP3  H1            3.7099181244       -7.1262128120      -10.7588252014  CLST          63          1.0000000000
       189        63  TIP3  H2            5.1623086703       -7.5473804291      -11.0189587281  CLST          63          1.0000000000
       190        64  TIP3  OH2          -2.2477681809       11.7855670825        5.4185005134  CLST          64          1.0000000000
       191        64  TIP3  H1           -2.0957339735       10.8674577868        5.3010895277  CLST          64          1.0000000000
       192        64  TIP3  H2           -1.6158848778       11.9768043206        6.1458393956  CLST          64          1.0000000000
       193        65  TIP3  OH2          10.9342974700       -4.3413177847       -5.3974480542  CLST          65          1.0000000000
       194        65  TIP3  H1           11.4300337322       -4.1272445836       -6.2036922562  CLST          65          1.0000000000
       195        65  TIP3  H2           10.5038658406       -3.4983859194       -5.1944816738  CLST          65          1.0000000000
       196        66  TIP3  OH2           6.2715582381       -9.8759174793        9.3404362191  CLST          66          1.0000000000
       197        66  TIP3  H1            5.5862204793       -9.9628294719        8.6037894477  CLST          66          1.0000000000
       198        66  TIP3  H2            6.6442106112       -9.0786605378        9.0591905891  CLST          66          1.0000000000
       199        67  TIP3  OH2         -11.6353974375       -7.6799530334       -4.0371396681  CLST          67          1.0000000000
       200        67  TIP3  H1          -10.8301574852       -7.2807598269       -4.3392588989  CLST          67          1.0000000000
       201        67  TIP3  H2          -11.7878220514       -8.4067992804       -4.6093916662  CLST          67          1.0000000000
       202        68  TIP3  OH2          -0.7364868508       -5.4890772167        5.5468270700  CLST          68          1.0000000000
       203        68  TIP3  H1            0.2330172178       -5.3458603771        5.6979999233  CLST          68          1.0000000000
       204        68  TIP3  H2           -1.0087169948       -5.4385562135        6.4381022752  CLST          68          1.0000000000
       205        69  TIP3  OH2           7.9385861611       11.6402909449       -8.7672143710  CLST          69          1.0000000000
       206        69  TIP3  H1            8.2015203128       11.4528322385       -9.6621993946  CLST          69          1.0000000000
       207        69  TIP3  H2            8.8103282454       11.7828447118       -8.3812995726  CLST          69          1.0000000000
       208        70  TIP3  OH2          -0.9489010567      -12.4234504271       -0.4423849394  CLST          70          1.0000000000
       209        70  TIP3  H1            0.0179585368      -12.1925181897       -0.3997773960  CLST          70          1.0000000000
       210        70  TIP3  H2           -1.1494003788      -12.6143959923        0.4944765090  CLST          70          1.0000000000
       211        71  TIP3  OH2         -10.1570764492       -7.3276372378        1.9185249146  CLST          71          1.0000000000
       212        71  TIP3  H1          -10.8492052603       -6.7721165460        2.2500163524  CLST          71          1.0000000000
       213        71  TIP3  H2          -10.6399046085       -8.0178959113        1.3422979092  CLST          71          1.0000000000
       214        72  TIP3  OH2           0.1879370909        1.9964635809       -1.5070236595  CLST          72          1.0000000000
       215        72  TIP3  H1           -0.2177758482        1.0697565529       -1.4712762360  CLST          72          1.0000000000
       216        72  TIP3  H2            0.9526253017        1.8396372370       -2.0949529982  CLST          72          1.0000000000
       217        73  TIP3  OH2          -9.7396557558       13.1236893273        7.4818132890  CLST          73          1.0000000000
       218        73  TIP3  H1           -9.8910466720       12.3611760251        6.9038408651  CLST          73          1.0000000000
       219        73  TIP3  H2          -10.2908047670       13.7896316124        7.0440122968  CLST          73          1.0000000000
       220        74  TIP3  OH2           6.6109404284       -2.7361371970       -3.5609256095  CLST          74          1.0000000000
       221        74  TIP3  H1            6.7418081788       -3.5459779316       -4.0478639938  CLST          74          1.0000000000
       222        74  TIP3  H2            7.4752436575       -2.2705877777       -3.4838438462  CLST          74          1.0000000000
       223        75  TIP3  OH2           3.0111592861      -13.3176586738       -6.7133859691  CLST          75          1.0000000000
       224        75  TIP3  H1            3.1687863874      -12.3601963602       -6.5316697185  CLST          75          1.0000000000
       225        75  TIP3  H2            2.9218179948      -13.7408272929       -5.8258833571  CLST          75          1.0000000000
       226        76  TIP3  OH2           3.9610939922       -9.7235346016        1.3119972728  CLST          76          1.0000000000
       227        76  TIP3  H1            3.7832255074       -8.8367907734        1.4852299893  CLST          76          1.0000000000
       228        76  TIP3  H2            3.0925318781      -10.1071013433        1.5731595383  CLST          76          1.0000000000
       229        77  TIP3  OH2          10.2696071153       -8.1947149996       -2.5006445460  CLST          77          1.0000000000
       230        77  TIP3  H1            9.9526588257       -9.1000683529       -2.5076412543  CLST          77          1.0000000000
       231        77  TIP3  H2           10.6294370515       -8.1624970816       -3.3830916139  CLST          77          1.0000000000
       232        78  TIP3  OH2          10.6378424515       11.7017999697       -7.7795686634  CLST          78          1.0000000000
       233        78  TIP3  H1           11.2938285086       10.9743699780       -7.9770673352  CLST          78          1.0000000000
       234        78  TIP3  H2           11.1969406831       12.4477836738       -7.8643772420  CLST          78          1.0000000000
       235        79  TIP3  OH2          12.8930576486        0.5826816645        1.2081924063  CLST          79          1.0000000000
       236        79  TIP3  H1           13.5966738629        1.1396161184        1.6660245737  CLST          79          1.0000000000
       237        79  TIP3  H2           12.1401447707        1.0760253158        1.4703313195  CLST          79          1.0000000000
       238        80  TIP3  OH2          -7.5056460235       -0.0208864739        6.5240248371  CLST          80          1.0000000000
       239        80  TIP3  H1           -7.2411761093       -0.1686379902        5.5814446694  CLST          80          1.0000000000
       240        80  TIP3  H2           -6.5905714920        0.0877619073        6.8420269971  CLST          80          1.0000000000
       241        81  TIP3  OH2          -7.5772238699      -10.8819292708        2.2886518534  CLST          81          1.0000000000
       242        81  TIP3  H1           -6.8769100707      -11.2075257811        1.6430919443  CLST          81          1.0000000000
       243        81  TIP3  H2           -7.1872431365      -11.0932009558        3.1575000165  CLST          81          1.0000000000
       244        82  TIP3  OH2          -1.5539066620       -9.9616953971       -6.4490207184  CLST          82          1.0000000000
       245        82  TIP3  H1           -2.5284162127      -10.0097114467       -6.4939714784  CLST          82          1.0000000000
       246        82  TIP3  H2           -1.3716016140      -10.4762900277       -5.7053491789  CLST          82          1.0000000000
       247        83  TIP3  OH2          12.4078813372       -8.5535118035        1.5463965257  CLST          83          1.0000000000
       248        83  TIP3  H1           12.6695098025       -7.8560653660        2.0042361218  CLST          83          1.0000000000
       249        83  TIP3  H2           11.3761312402       -8.3795713039        1.4458871348  CLST          83          1.0000000000
       250        84  TIP3  OH2          -3.6631817336       10.9597858349       -2.1148343196  CLST          84          1.0000000000
       251        84  TIP3  H1           -4.5930083084       10.9523884447       -2.4771429203  CLST          84          1.0000000000
       252        84  TIP3  H2           -3.5173827127       11.8955972572       -2.0129525056  CLST          84          1.0000000000
       253        85  TIP3  OH2           5.7805998766       -2.2314630311        0.1044303568  CLST          85          1.0000000000
       254        85  TIP3  H1            6.0370987934       -1.7047577700        0.9280631445  CLST          85          1.0000000000
       255        85  TIP3  H2            6.5218044797       -2.8355054921       -0.0064209970  CLST          85          1.0000000000
       256        86  TIP3  OH2           6.5360604283       -8.4580919154        5.8431774683  CLST          86          1.0000000000
       257        86  TIP3  H1            5.6814457282       -8.4221255534        6.3610421032  CLST          86          1.0000000000
       258        86  TIP3  H2            6.6217175194       -7.4676257007        5.7023660684  CLST          86          1.0000000000
       259        87  TIP3  OH2          -1.3297904753       -3.6572027254       10.6299032734  CLST          87          1.0000000000
       260        87  TIP3  H1           -0.6152510738       -3.9000219899       11.2384417896  CLST          87          1.0000000000
       261        87  TIP3  H2           -2.0475242955       -4.3059556686       10.8370188599  CLST          87          1.0000000000
       262        88  TIP3  OH2          -0.7797583103        4.5827040987       -7.9699442004  CLST          88          1.0000000000
       263        88  TIP3  H1           -0.8433914251        3.6181180369       -7.8867336662  CLST          88          1.0000000000
       264        88  TIP3  H2           -1.7121678259        4.7452611833       -8.2187703851  CLST          88          1.0000000000
       265        89  TIP3  OH2           3.5288882902        0.7819236747      -11.7722544524  CLST          89          1.0000000000
       266        89  TIP3  H1            3.4265819660        1.5610534210      -12.2599100745  CLST          89          1.0000000000
       267        89  TIP3  H2            3.5892412222        0.2315593194      -12.5353311953  CLST          89          1.0000000000
       268        90  TIP3  OH2           5.6571811016       11.1623003366       -5.4140628847  CLST          90          1.0000000000
       269        90  TIP3  H1            5.3617317620       11.8806197612       -4.8309790288  CLST          90          1.0000000000
       270        90  TIP3  H2            5.7523338243       11.6479370638       -6.2219563743  CLST          90          1.0000000000
       271        91  TIP3  OH2           6.0079991139       -8.0577649141      -12.2910471273  CLST          91          1.0000000000
       272        91  TIP3  H1            6.2561578745       -8.9598133479      -12.3415269750  CLST          91          1.0000000000
       273        91  TIP3  H2            6.8887723392       -7.6342580134      -12.1381420581  CLST          91          1.0000000000
       274        92  TIP3  OH2           9.6973221043       11.5849062662        2.4846249899  CLST          92          1.0000000000
       275        92  TIP3  H1           10.1536790889       11.5417041812        3.2931836220  CLST          92          1.0000000000
       276        92  TIP3  H2            9.8835021947       12.5203900286        2.2679206096  CLST          92          1.0000000000
       277        93  TIP3  OH2          -8.7671658930        7.1582300784        2.7077184110  CLST          93          1.0000000000
       278        93  TIP3  H1           -8.6735741390        8.1378307722        2.9690394240  CLST          93          1.0000000000
       279        93  TIP3  H2           -7.8544966762        6.9318921411        2.5111173414  CLST          93          1.0000000000
       280        94  TIP3  OH2         -14.1623513688        6.6470262595        6.5621176051  CLST          94          1.0000000000
       281        94  TIP3  H1          -13.3236135164        7.0787902244        6.1914474233  CLST          94          1.0000000000
       282        94  TIP3  H2          -14.4877185637        6.3505762936        5.7112816204  CLST          94          1.0000000000
       283        95  TIP3  OH2           9.7544099655        5.8529830358       -1.8469621571  CLST          95          1.0000000000
       284        95  TIP3  H1            9.9271745075        6.1835176832       -0.9700443751  CLST          95          1.0000000000
       285        95  TIP3  H2           10.0900198960        4.9253122607       -1.7053977306  CLST          95          1.0000000000
       286        96  TIP3  OH2           9.5424302331      -11.0138101487       11.1812974087  CLST          96          1.0000000000
       287        96  TIP3  H1           10.3454168547      -11.2930044190       10.7454218304  CLST          96          1.0000000000
       288        96  TIP3  H2            9.0831894169      -11.8222784502       11.5068871253  CLST          96          1.0000000000
       289        97  TIP3  OH2          -7.7193797211        6.8973977939        8.5093825449  CLST          97          1.0000000000
       290        97  TIP3  H1           -7.4466180888        6.0879510522        8.8725239884  CLST          97          1.0000000000
       291        97  TIP3  H2           -8.6317834267        6.7331781736        8.4521761688  CLST          97          1.0000000000
       292        98  TIP3  OH2           6.0146311573        0.6119694040       -3.4648913134  CLST          98          1.0000000000
       293        98  TIP3  H1            6.6749959861        0.3241917475       -2.8177572226  CLST          98          1.0000000000
       294        98  TIP3  H2            5.3660689745       -0.0406008163       -3.1962535668  CLST          98          1.0000000000
       295        99  TIP3  OH2          -6.8413366283      -11.4083557489        4.9385495482  CLST          99          1.0000000000
       296        99  TIP3  H1           -6.9900699648      -10.9177602412        5.7653335809  CLST          99          1.0000000000
       297        99  TIP3  H2           -6.0691764580      -11.9806148309        5.1811340746  CLST          99          1.0000000000
       298       100  TIP3  OH2           2.2844899054        0.4753419456       -9.1771281035  CLST         100          1.0000000000
       299       100  TIP3  H1            2.6109070917        0.5431821033      -10.0648875645  CLST         100          1.0000000000
       300       100  TIP3  H2            2.8193291144        1.2034543802       -8.8551672816  CLST         100          1.0000000000
       301       101  TIP3  OH2          12.6862447817       -6.9018579979        3.9307659470  CLST         101          1.0000000000
       302       101  TIP3  H1           12.7535603130       -7.4124704131        4.7308605505  CLST         101          1.0000000000
       303       101  TIP3  H2           13.5651995784       -6.5093895663        3.7622611386  CLST         101          1.0000000000
       304       102  TIP3  OH2         -12.1398734001       10.3574335335        1.3283044037  CLST         102          1.0000000000
       305       102  TIP3  H1          -12.7985951628       10.4386479127        2.0234517872  CLST         102          1.0000000000
       306       102  TIP3  H2          -12.5855981995        9.6138876794        0.8750428787  CLST         102          1.0000000000
       307       103  TIP3  OH2          -0.5438494820       -9.3028548849        7.7328369174  CLST         103          1.0000000000
       308       103  TIP3  H1            0.0818334903       -9.6068812424        8.3660727033  CLST         103          1.0000000000
       309       103  TIP3  H2           -1.2838688374       -9.9123433284        7.7422463589  CLST         103          1.0000000000
       310       104  TIP3  OH2          -4.3532122478      -12.1800204069        9.9706355323  CLST         104          1.0000000000
       311       104  TIP3  H1           -4.9536409125      -11.9636272947       10.7197662176  CLST         104          1.0000000000
       312       104  TIP3  H2           -4.9693843642      -12.3046822543        9.2199759986  CLST         104          1.0000000000
       313       105  TIP3  OH2          -5.1996518606       10.6393196532      -11.5272310014  CLST         105          1.0000000000
       314       105  TIP3  H1           -4.8413095052       11.1757663268      -12.2673216758  CLST         105          1.0000000000
       315       105  TIP3  H2           -5.7872482503       10.0483180252      -12.0359430609  CLST         105          1.0000000000
       316       106  TIP3  OH2           7.5394305997       -8.0723276699       -1.3149578067  CLST         106          1.0000000000
       317       106  TIP3  H1            8.2645355858       -7.5789312260       -1.6307852950  CLST         106          1.0000000000
       318       106  TIP3  H2            7.7216031879       -8.9732397155       -1.6365093212  CLST         106          1.0000000000
       319       107  TIP3  OH2          -8.4171951068       -4.7231276907        5.1521023936  CLST         107          1.0000000000
       320       107  TIP3  H1           -9.1914977002       -4.4297942013        4.5328828270  CLST         107          1.0000000000
       321       107  TIP3  H2           -7.6574305656       -4.3424211710        4.7464121970  CLST         107          1.0000000000
       322       108  TIP3  OH2         -10.4705877300        2.0503144893        9.5932703357  CLST         108          1.0000000000
       323       108  TIP3  H1           -9.5171199152        1.8389117852        9.3710389655  CLST         108          1.0000000000
       324       108  TIP3  H2          -10.7940376596        1.2190025500        9.9386075523  CLST         108          1.0000000000
       325       109  TIP3  OH2           2.3616380496        7.0914816030        8.8003304900  CLST         109          1.0000000000
       326       109  TIP3  H1            1.5314577741        6.6419074450        9.1020615785  CLST         109          1.0000000000
       327       109  TIP3  H2            3.0059662768        6.3479407546        8.6477494213  CLST         109          1.0000000000
       328       110  TIP3  OH2           1.6745222980       12.4259920040      -11.1578425080  CLST         110          1.0000000000
       329       110  TIP3  H1            2.2120734145       13.2055182327      -11.0466110226  CLST         110          1.0000000000
       330       110  TIP3  H2            1.3208981170       12.2429791838      -10.2633999033  CLST         110          1.0000000000
       331       111  TIP3  OH2          11.8543107021      -11.6839207823        9.5128884028  CLST         111          1.0000000000
       332       111  TIP3  H1           12.6609686958      -12.1452833261        9.8573350819  CLST         111          1.0000000000
       333       111  TIP3  H2           11.5859518908      -12.2587405343        8.7554392427  CLST         111          1.0000000000
       334       112  TIP3  OH2           6.4682126192       -0.1411251831        1.7732026841  CLST         112          1.0000000000
       335       112  TIP3  H1            6.8423171796        0.7533647968        1.8272525352  CLST         112          1.0000000000
       336       112  TIP3  H2            6.4857026213       -0.4884776830        2.6730519840  CLST         112          1.0000000000
       337       113  TIP3  OH2         -12.8540074389        0.9718042717       -0.0264491641  CLST         113          1.0000000000
       338       113  TIP3  H1          -13.5099779372        0.2111498605       -0.1516356082  CLST         113          1.0000000000
       339       113  TIP3  H2          -12.3546782873        1.0135770789       -0.8625614615  CLST         113          1.0000000000
       340       114  TIP3  OH2         -13.9079271610        3.5020355731       -0.2459569442  CLST         114          1.0000000000
       341       114  TIP3  H1          -13.7055348917        2.5465186545       -0.1653670315  CLST         114          1.0000000000
       342       114  TIP3  H2          -13.6347350348        3.6854955285       -1.1246602847  CLST         114          1.0000000000
       343       115  TIP3  OH2          -8.7917398476        0.3265231816      -10.8509936991  CLST         115          1.0000000000
       344       115  TIP3  H1           -8.1496865454        0.6329634505      -11.5039644980  CLST         115          1.0000000000
       345       115  TIP3  H2           -9.2934683711        1.1677242198      -10.7069654019  CLST         115          1.0000000000
       346       116  TIP3  OH2           6.9535314376       -5.7013984983        2.1483884889  CLST         116          1.0000000000
       347       116  TIP3  H1            7.3280393882       -6.0254194095        1.3661318318  CLST         116          1.0000000000
       348       116  TIP3  H2            7.2944187500       -4.7751915776        2.0973639281  CLST         116          1.0000000000
       349       117  TIP3  OH2          -0.7941027858        0.0956873339       12.5033243416  CLST         117          1.0000000000
       350       117  TIP3  H1           -0.5157024296       -0.7957434094       12.7167583921  CLST         117          1.0000000000
       351       117  TIP3  H2           -0.2129164793        0.5188770751       13.1738647895  CLST         117          1.0000000000
       352       118  TIP3  OH2           0.1075835213       -9.5770973645        4.9426661146  CLST         118          1.0000000000
       353       118  TIP3  H1           -0.1479674242       -9.1683418531        5.7464999626  CLST         118          1.0000000000
       354       118  TIP3  H2           -0.1351924874       -8.8097695254        4.3295690294  CLST         118          1.0000000000
       355       119  TIP3  OH2          -9.2571271327      -10.3581925413       -8.7543888601  CLST         119          1.0000000000
       356       119  TIP3  H1           -9.4663885268      -10.8155085285       -9.6069208526  CLST         119          1.0000000000
       357       119  TIP3  H2           -9.1112351768       -9.4732462707       -8.9306993695  CLST         119          1.0000000000
       358       120  TIP3  OH2           9.5534642653       -8.0048312300        1.2727042932  CLST         120          1.0000000000
       359       120  TIP3  H1            8.6912490126       -8.5142504723        1.3072403743  CLST         120          1.0000000000
       360       120  TIP3  H2            9.3321422808       -7.3739255974        0.5231475425  CLST         120          1.0000000000
       361       121  TIP3  OH2          -5.6680039542       -0.2913695781       -7.9785539200  CLST         121          1.0000000000
       362       121  TIP3  H1           -5.7529662176        0.0138374662       -8.8799236910  CLST         121          1.0000000000
       363       121  TIP3  H2           -4.9490119012       -1.0073618173       -8.0082084483  CLST         121          1.0000000000
       364       122  TIP3  OH2          10.4872387479       12.1376384732        5.2414565136  CLST         122          1.0000000000
       365       122  TIP3  H1            9.5481082516       12.3960839834        5.4037781940  CLST         122          1.0000000000
       366       122  TIP3  H2           10.9460747512       12.6475133458        5.8748239697  CLST         122          1.0000000000
       367       123  TIP3  OH2          -7.3251920145       -5.5501076850      -11.1789807853  CLST         123          1.0000000000
       368       123  TIP3  H1           -6.9249579494       -6.3489508059      -11.5293553146  CLST         123          1.0000000000
       369       123  TIP3  H2           -6.8312630014       -5.4003136944      -10.3594882214  CLST         123          1.0000000000
       370       124  TIP3  OH2          -5.9880175603       -8.6389189727      -10.7584754281  CLST         124          1.0000000000
       371       124  TIP3  H1           -5.2376970778       -8.9319186018      -10.2021173452  CLST         124          1.0000000000
       372       124  TIP3  H2           -6.5822552870       -8.2314276628      -10.0514020965  CLST         124          1.0000000000
       373       125  TIP3  OH2         -13.4882064922        4.1028442034        8.0509297979  CLST         125          1.0000000000
       374       125  TIP3  H1          -12.9967797511        3.6618868662        7.3734245517  CLST         125          1.0000000000
       375       125  TIP3  H2          -13.7425282420        4.8820080267        7.5936287100  CLST         125          1.0000000000
       376       126  TIP3  OH2          -6.9821865137      -10.6558199525      -12.2142768036  CLST         126          1.0000000000
       377       126  TIP3  H1           -6.1622626516      -11.1241953477      -11.9263311902  CLST         126          1.0000000000
       378       126  TIP3  H2           -6.7851343028       -9.8360907753      -11.7717900877  CLST         126          1.0000000000
       379       127  TIP3  OH2          -7.3113728885      -11.5827471140       -7.1253118168  CLST         127          1.0000000000
       380       127  TIP3  H1           -7.8532657704      -12.2894509649       -6.7797278772  CLST         127          1.0000000000
       381       127  TIP3  H2           -7.9408862822      -11.1385321512       -7.7733747305  CLST         127          1.0000000000
       382       128  TIP3  OH2           9.8300002615        0.7401656774       -2.4600367758  CLST         128          1.0000000000
       383       128  TIP3  H1            9.0376692886        0.2880664265       -2.1705765020  CLST         128          1.0000000000
       384       128  TIP3  H2            9.5881811310        1.5462334669       -2.9190634248  CLST         128          1.0000000000
       385       129  TIP3  OH2          -7.8240353308        9.5716676192        1.1001798950  CLST         129          1.0000000000
       386       129  TIP3  H1           -6.9357374140       10.0089883820        1.3007237000  CLST         129          1.0000000000
       387       129  TIP3  H2           -7.5203970376        8.8456678938        0.5572696133  CLST         129          1.0000000000
       388       130  TIP3  OH2          -3.9950545620        4.0028201884        9.7698803282  CLST         130          1.0000000000
       389       130  TIP3  H1           -3.5858946332        4.8416880361       10.0079728528  CLST         130          1.0000000000
       390       130  TIP3  H2           -3.7183668837        3.4634859471       10.5559406540  CLST         130          1.0000000000
       391       131  TIP3  OH2           7.7384851363       -3.8135724535       -9.9320528638  CLST         131          1.0000000000
       392       131  TIP3  H1            7.7975548344       -3.0202512747       -9.3321305141  CLST         131          1.0000000000
       393       131  TIP3  H2            6.8631054027       -4.0003633598       -9.7645190379  CLST         131          1.0000000000
       394       132  TIP3  OH2         -11.6108633374       11.3396945687       12.2454479649  CLST         132          1.0000000000
       395       132  TIP3  H1          -11.0959439005       12.0579939842       11.9434631257  CLST         132          1.0000000000
       396       132  TIP3  H2          -12.0574754232       11.6918267028       13.0403870621  CLST         132          1.0000000000
       397       133  TIP3  OH2          10.3505299338        9.5872019260        8.6198749233  CLST         133          1.0000000000
       398       133  TIP3  H1           10.1120135094        9.5936093650        9.5456352994  CLST         133          1.0000000000
       399       133  TIP3  H2           11.3390762678        9.6343738667        8.7032382585  CLST         133          1.0000000000
       400       134  TIP3  OH2          -7.7243942599        5.8634290311       -5.9925174031  CLST         134          1.0000000000
       401       134  TIP3  H1           -8.6940074235        5.6885134919       -5.9076943755  CLST         134          1.0000000000
       402       134  TIP3  H2           -7.4275880819        5.8981055879       -5.0997686108  CLST         134          1.0000000000
       403       135  TIP3  OH2          10.9243585764      -11.3087720426      -13.3175404193  CLST         135          1.0000000000
       404       135  TIP3  H1           10.8220710969      -10.6308995163      -12.5894347777  CLST         135          1.0000000000
       405       135  TIP3  H2           10.8234561368      -10.6529667207      -14.0027331910  CLST         135          1.0000000000
       406       136  TIP3  OH2          -4.3080337727        1.9343504104       -7.0873951407  CLST         136          1.0000000000
       407       136  TIP3  H1           -4.7904570707        1.0981806276       -7.3047449809  CLST         136          1.0000000000
       408       136  TIP3  H2           -5.0812221011        2.5064249244       -6.8819985049  CLST         136          1.0000000000
       409       137  TIP3  OH2          12.8667254819       10.2349817877        9.1173197259  CLST         137          1.0000000000
       410       137  TIP3  H1           13.2110199367       10.2158498306       10.0147009293  CLST         137          1.0000000000
       411       137  TIP3  H2           13.4061744649        9.4719638404        8.8363346350  CLST         137          1.0000000000
       412       138  TIP3  OH2          -0.8242069797       -9.9920170311        1.5479439382  CLST         138          1.0000000000
       413       138  TIP3  H1           -0.9571809745       -9.4517224833        0.7436758731  CLST         138          1.0000000000
       414       138  TIP3  H2           -0.8072491239       -9.3891453010        2.2591185071  CLST         138          1.0000000000
       415       139  TIP3  OH2          -9.5764958872      -10.6943007511        4.5537023322  CLST         139          1.0000000000
       416       139  TIP3  H1           -9.9921409307      -10.6983368805        3.6802168651  CLST         139          1.0000000000
       417       139  TIP3  H2           -8.8096274815      -11.2721009750        4.5146011819  CLST         139          1.0000000000
       418       140  TIP3  OH2          -7.0185504204        3.4199337273       -0.4578881411  CLST         140          1.0000000000
       419       140  TIP3  H1           -6.2127121972        3.8545568564       -0.1953178101  CLST         140          1.0000000000
       420       140  TIP3  H2           -7.5927564780        4.1817363015       -0.5976334805  CLST         140          1.0000000000
       421       141  TIP3  OH2           2.0523797894       -4.4878566589       -3.6648232379  CLST         141          1.0000000000
       422       141  TIP3  H1            1.8341904111       -3.6039833623       -3.3681210565  CLST         141          1.0000000000
       423       141  TIP3  H2            2.7378062682       -4.2284286638       -4.3136168428  CLST         141          1.0000000000
       424       142  TIP3  OH2         -11.6737650624        0.0009212231        4.7291101685  CLST         142          1.0000000000
       425       142  TIP3  H1          -11.4720551966        0.6175294039        5.4269424889  CLST         142          1.0000000000
       426       142  TIP3  H2          -12.5819566955        0.2808644772        4.5542049549  CLST         142          1.0000000000
       427       143  TIP3  OH2           9.3683923115       -5.7621611514       -8.3876374493  CLST         143          1.0000000000
       428       143  TIP3  H1            9.4749114602       -5.2158098666       -9.1576915783  CLST         143          1.0000000000
       429       143  TIP3  H2           10.1221280475       -6.3367793859       -8.3702353626  CLST         143          1.0000000000
       430       144  TIP3  OH2           3.3270576657       -2.8694512531        9.1606034471  CLST         144          1.0000000000
       431       144  TIP3  H1            2.4327935547       -2.5034959209        9.3182436154  CLST         144          1.0000000000
       432       144  TIP3  H2            3.7527389624       -2.0917646837        8.8468560294  CLST         144          1.0000000000
       433       145  TIP3  OH2         -10.1877887395       13.3354638871        3.1286847966  CLST         145          1.0000000000
       434       145  TIP3  H1          -10.5844481427       13.6293636033        2.3328340561  CLST         145          1.0000000000
       435       145  TIP3  H2          -10.0589838506       12.3734303614        3.0382939277  CLST         145          1.0000000000
       436       146  TIP3  OH2           9.1494298836        2.7112721573       -4.1567561109  CLST         146          1.0000000000
       437       146  TIP3  H1            9.1465167411        3.6940625265       -4.1551012149  CLST         146          1.0000000000
       438       146  TIP3  H2            8.4785426886        2.4602136563       -4.8230952175  CLST         146          1.0000000000
       439       147  TIP3  OH2         -11.0192275832       -0.2962560984       -4.1899038187  CLST         147          1.0000000000
       440       147  TIP3  H1          -10.1347223895       -0.5896330076       -4.2187273848  CLST         147          1.0000000000
       441       147  TIP3  H2          -11.4154182021       -0.6007562058       -5.0404800116  CLST         147          1.0000000000
       442       148  TIP3  OH2          -7.9460785556        1.2996912492        8.9840352116  CLST         148          1.0000000000
       443       148  TIP3  H1           -7.8846248423        0.8964120901        8.0890602657  CLST         148          1.0000000000
       444       148  TIP3  H2           -7.0694583114        1.5889780694        9.0772780803  CLST         148          1.0000000000
       445       149  TIP3  OH2           8.6259546265       -2.8526363466        0.8605948241  CLST         149          1.0000000000
       446       149  TIP3  H1            9.1999211669       -2.1190416855        0.6114680939  CLST         149          1.0000000000
       447       149  TIP3  H2            8.4419809980       -2.6663396109        1.7721375192  CLST         149          1.0000000000
       448       150  TIP3  OH2          -2.2272582008      -11.4665252998        8.5167580731  CLST         150          1.0000000000
       449       150  TIP3  H1           -3.0636171783      -11.5758087649        9.0366337687  CLST         150          1.0000000000
       450       150  TIP3  H2           -1.5837060213      -11.8873246154        9.1859081158  CLST         150          1.0000000000
       451       151  TIP3  OH2          -9.1252706330       -6.5197671460       -4.8786637709  CLST         151          1.0000000000
       452       151  TIP3  H1           -8.1933730019       -6.4896241281       -4.6150524994  CLST         151          1.0000000000
       453       151  TIP3  H2           -9.1601596406       -7.2506419633       -5.5118552868  CLST         151          1.0000000000
       454       152  TIP3  OH2           3.7859030838       -2.0159841076        4.9752109589  CLST         152          1.0000000000
       455       152  TIP3  H1            4.2621918372       -2.8396623250        5.2025822945  CLST         152          1.0000000000
       456       152  TIP3  H2            3.4875692714       -2.3364201790        4.0332021508  CLST         152          1.0000000000
       457       153  TIP3  OH2          -2.7401154388        4.8469914249      -14.1890429259  CLST         153          1.0000000000
       458       153  TIP3  H1           -1.8057463266        5.1831776918      -14.0543438824  CLST         153          1.0000000000
       459       153  TIP3  H2           -2.5488090165        4.0019949612      -13.7288571232  CLST         153          1.0000000000
       460       154  TIP3  OH2           4.5622571410       -6.8632838375        2.0346218965  CLST         154          1.0000000000
       461       154  TIP3  H1            5.5260733005       -6.7001933364        2.0997335727  CLST         154          1.0000000000
       462       154  TIP3  H2            4.2895750726       -6.2700053474        1.3184934868  CLST         154          1.0000000000
       463       155  TIP3  OH2           9.4005076884       -2.7389344639       10.2647725669  CLST         155          1.0000000000
       464       155  TIP3  H1            8.7536449535       -3.2755019866        9.7899546852  CLST         155          1.0000000000
       465       155  TIP3  H2           10.0233042430       -3.5141707335       10.3815834703  CLST         155          1.0000000000
       466       156  TIP3  OH2          -2.2443004500       11.2767398669       11.5195762095  CLST         156          1.0000000000
       467       156  TIP3  H1           -3.0260866862       11.8634088901       11.5204701767  CLST         156          1.0000000000
       468       156  TIP3  H2           -2.6834410883       10.4619507919       11.2383449314  CLST         156          1.0000000000
       469       157  TIP3  OH2           3.9104333719       -0.7278245708        7.4709099610  CLST         157          1.0000000000
       470       157  TIP3  H1            4.8620583419       -0.4545550344        7.6315638099  CLST         157          1.0000000000
       471       157  TIP3  H2            3.9660490759       -1.3520299780        6.6976804028  CLST         157          1.0000000000
       472       158  TIP3  OH2          10.5543163275        9.1068356989       13.2635461136  CLST         158          1.0000000000
       473       158  TIP3  H1            9.9746113228        8.3673866710       13.5541825662  CLST         158          1.0000000000
       474       158  TIP3  H2            9.9240296353        9.8621755386       13.1643205878  CLST         158          1.0000000000
       475       159  TIP3  OH2           0.5847365594      -12.2538969991        4.3708332942  CLST         159          1.0000000000
       476       159  TIP3  H1           -0.1709209572      -12.5990378306        4.9586365180  CLST         159          1.0000000000
       477       159  TIP3  H2            0.6266402508      -11.3505769671        4.7599843444  CLST         159          1.0000000000
       478       160  TIP3  OH2           7.4618075820       -3.5644526010        8.4980198776  CLST         160          1.0000000000
       479       160  TIP3  H1            7.2791897307       -3.9648955240        7.5981255036  CLST         160          1.0000000000
       480       160  TIP3  H2            7.0554085067       -2.6724802680        8.3201800339  CLST         160          1.0000000000
       481       161  TIP3  OH2          -2.4854792170       -2.3656838642        7.8981118512  CLST         161          1.0000000000
       482       161  TIP3  H1           -2.2644231310       -1.6202345803        8.4184233398  CLST         161          1.0000000000
       483       161  TIP3  H2           -3.3145331580       -2.6008669147        8.3176328835  CLST         161          1.0000000000
       484       162  TIP3  OH2          -0.7957175760        3.6283734143      -10.6292539488  CLST         162          1.0000000000
       485       162  TIP3  H1           -0.6657642647        4.0952517787      -11.4832637795  CLST         162          1.0000000000
       486       162  TIP3  H2           -0.5479418045        4.2819000080       -9.9644198608  CLST         162          1.0000000000
       487       163  TIP3  OH2         -10.0698558359        9.1414382864       11.2137656913  CLST         163          1.0000000000
       488       163  TIP3  H1          -10.7436541349        8.4273648456       11.3347615079  CLST         163          1.0000000000
       489       163  TIP3  H2          -10.5369309423        9.8918842249       11.6658290789  CLST         163          1.0000000000
       490       164  TIP3  OH2           4.1020983683      -10.3110113951       13.0226349327  CLST         164          1.0000000000
       491       164  TIP3  H1            4.6756301278       -9.6680709231       12.5462688078  CLST         164          1.0000000000
       492       164  TIP3  H2            4.7954282316      -10.9455804498       13.3853044615  CLST         164          1.0000000000
       493       165  TIP3  OH2         -12.1666196749       -5.3700827868        3.6279657478  CLST         165          1.0000000000
       494       165  TIP3  H1          -11.8702159660       -5.6145629446        4.5676479485  CLST         165          1.0000000000
       495       165  TIP3  H2          -13.0462465464       -5.7578142508        3.4759496775  CLST         165          1.0000000000
       496       166  TIP3  OH2          -1.5908035882       -6.4897342777      -10.4289281822  CLST         166          1.0000000000
       497       166  TIP3  H1           -0.6831932421       -6.9333773687      -10.4544565991  CLST         166          1.0000000000
       498       166  TIP3  H2           -2.2452766454       -7.1378465866      -10.3790507676  CLST         166          1.0000000000
       499       167  TIP3  OH2           8.1505886699       10.6496120506       -0.9007996992  CLST         167          1.0000000000
       500       167  TIP3  H1            8.5827768071       10.2709126221       -0.1087178088  CLST         167          1.0000000000
       501       167  TIP3  H2            8.4100815603        9.9628599479       -1.4995048787  CLST         167          1.0000000000
       502       168  TIP3  OH2          -0.7141874868      -13.3733321236        2.1156221952  CLST         168          1.0000000000
       503       168  TIP3  H1           -0.2648437387      -13.0670257108        2.8626028803  CLST         168          1.0000000000
       504       168  TIP3  H2            0.0265918368      -13.7947973787        1.6364233395  CLST         168          1.0000000000
       505       169  TIP3  OH2           5.1648840346        3.9975168448        3.2164935576  CLST         169          1.0000000000
       506       169  TIP3  H1            4.3655958473        3.4941870797        3.3917214279  CLST         169          1.0000000000
       507       169  TIP3  H2            4.9563911455        4.4686845108        2.3716626409  CLST         169          1.0000000000
       508       170  TIP3  OH2          -1.0929006254        4.2379413469        1.4170405618  CLST         170          1.0000000000
       509       170  TIP3  H1           -1.8247990122        4.8263968917        1.3174596842  CLST         170          1.0000000000
       510       170  TIP3  H2           -1.6146894707        3.4705051265        1.4563199362  CLST         170          1.0000000000
       511       171  TIP3  OH2          -2.9902412480        1.4263657939        7.3645372640  CLST         171          1.0000000000
       512       171  TIP3  H1           -2.5144426051        1.2781736224        6.5379755463  CLST         171          1.0000000000
       513       171  TIP3  H2           -2.3040568505        1.5489634188        8.0070592846  CLST         171          1.0000000000
       514       172  TIP3  OH2          -6.4482698020      -13.0883470117        8.0350325657  CLST         172          1.0000000000
       515       172  TIP3  H1           -7.0360156400      -13.7086958448        7.6380443959  CLST         172          1.0000000000
       516       172  TIP3  H2           -5.7398032472      -12.9502826567        7.3674799750  CLST         172          1.0000000000
       517       173  TIP3  OH2          10.0999752268      -12.6102463245        1.8452072371  CLST         173          1.0000000000
       518       173  TIP3  H1           10.4718377681      -12.5676115888        0.8941918829  CLST         173          1.0000000000
       519       173  TIP3  H2            9.3767518925      -12.0792961005        1.6800921362  CLST         173          1.0000000000
       520       174  TIP3  OH2          -0.0221118928        5.4393978148        9.8093701096  CLST         174          1.0000000000
       521       174  TIP3  H1           -0.3340682572        5.0416821823       10.6262952187  CLST         174          1.0000000000
       522       174  TIP3  H2           -0.5924572354        6.2060636986        9.7651814841  CLST         174          1.0000000000
       523       175  TIP3  OH2          -5.8809013074       10.3233546337       -3.5536045014  CLST         175          1.0000000000
       524       175  TIP3  H1           -5.3516891261        9.9998838792       -4.2940801525  CLST         175          1.0000000000
       525       175  TIP3  H2           -6.7181349914       10.2727208244       -4.0471020125  CLST         175          1.0000000000
       526       176  TIP3  OH2           6.7281146946        9.2659225485       -7.7977195644  CLST         176          1.0000000000
       527       176  TIP3  H1            7.0270763903       10.1169238226       -8.1612873391  CLST         176          1.0000000000
       528       176  TIP3  H2            6.5386490717        9.4647968502       -6.8574741554  CLST         176          1.0000000000
       529       177  TIP3  OH2          -3.8210112470      -11.3456386784       -1.5722045563  CLST         177          1.0000000000
       530       177  TIP3  H1           -2.9598482815      -11.7084950472       -1.2147846009  CLST         177          1.0000000000
       531       177  TIP3  H2           -4.3138858584      -11.2099016925       -0.7044557034  CLST         177          1.0000000000
       532       178  TIP3  OH2          10.7623202374       -8.9970236919      -11.4176062748  CLST         178          1.0000000000
       533       178  TIP3  H1           10.9465072198       -8.8211111336      -10.4733408653  CLST         178          1.0000000000
       534       178  TIP3  H2           10.6805516519       -8.0817268968      -11.7062390098  CLST         178          1.0000000000
       535       179  TIP3  OH2           6.5730164644       -0.9817054972        8.4057041568  CLST         179          1.0000000000
       536       179  TIP3  H1            6.1216223281       -0.2867562770        8.9657988053  CLST         179          1.0000000000
       537       179  TIP3  H2            7.4798261150       -0.6579972976        8.3253765449  CLST         179          1.0000000000
       538       180  TIP3  OH2          -7.5644261261        8.1430954980        5.9880683549  CLST         180          1.0000000000
       539       180  TIP3  H1           -7.2667347134        8.0478665292        6.9191703214  CLST         180          1.0000000000
       540       180  TIP3  H2           -8.3939761251        8.5916299338        6.1731704936  CLST         180          1.0000000000
       541       181  TIP3  OH2           6.0082726284      -12.9561271237       -0.4271233395  CLST         181          1.0000000000
       542       181  TIP3  H1            6.7740081456      -13.2097484091       -0.8543984047  CLST         181          1.0000000000
       543       181  TIP3  H2            6.2015355836      -13.0197980716        0.5230376940  CLST         181          1.0000000000
       544       182  TIP3  OH2          -1.6952257303       10.4379437028      -10.3157946463  CLST         182          1.0000000000
       545       182  TIP3  H1           -1.2288124139       11.0993778066       -9.8004528334  CLST         182          1.0000000000
       546       182  TIP3  H2           -2.4227227047       10.2387010956       -9.7826430789  CLST         182          1.0000000000
       547       183  TIP3  OH2          -5.3733279396        3.6323385649      -12.2436442687  CLST         183          1.0000000000
       548       183  TIP3  H1           -5.0124034580        3.5488693828      -11.3200734142  CLST         183          1.0000000000
       549       183  TIP3  H2           -6.1266849408        3.0700846364      -12.1468566011  CLST         183          1.0000000000
       550       184  TIP3  OH2           3.0121514726        8.2311933681       -2.4306351726  CLST         184          1.0000000000
       551       184  TIP3  H1            3.3158340518        7.6197912614       -1.7781922526  CLST         184          1.0000000000
       552       184  TIP3  H2            2.0360448924        8.0574816165       -2.2770769644  CLST         184          1.0000000000
       553       185  TIP3  OH2           7.5225054323        4.7654686069       12.2139725897  CLST         185          1.0000000000
       554       185  TIP3  H1            7.6875131060        3.7924162806       12.0850107398  CLST         185          1.0000000000
       555       185  TIP3  H2            6.9036005579        4.7869254090       12.9935388261  CLST         185          1.0000000000
       556       186  TIP3  OH2           3.9979522185        5.9142868981       -5.2080953654  CLST         186          1.0000000000
       557       186  TIP3  H1            3.9980491256        6.8130355582       -4.9487134368  CLST         186          1.0000000000
       558       186  TIP3  H2            3.8199210427        6.0057168485       -6.1603498756  CLST         186          1.0000000000
       559       187  TIP3  OH2           4.1551519861        1.6650535181       -5.5106712988  CLST         187          1.0000000000
       560       187  TIP3  H1            4.0912720805        1.6933835300       -4.5400022577  CLST         187          1.0000000000
       561       187  TIP3  H2            3.6570965313        0.8203840144       -5.5941151345  CLST         187          1.0000000000
       562       188  TIP3  OH2          -4.6856813165       -1.5387690617        4.9190930538  CLST         188          1.0000000000
       563       188  TIP3  H1           -4.5571338495       -0.7245105952        4.3135508900  CLST         188          1.0000000000
       564       188  TIP3  H2           -4.8638531408       -1.1336262377        5.7733453700  CLST         188          1.0000000000
       565       189  TIP3  OH2          -5.0918808461        3.5454084571      -15.0949017686  CLST         189          1.0000000000
       566       189  TIP3  H1           -5.1496127145        3.0329968874      -14.2623179256  CLST         189          1.0000000000
       567       189  TIP3  H2           -4.3244511351        4.1237431279      -14.8352310498  CLST         189          1.0000000000
       568       190  TIP3  OH2           7.2826126521       -5.7339811118        5.2667087115  CLST         190          1.0000000000
       569       190  TIP3  H1            7.0471625376       -5.4239667402        4.4061887420  CLST         190          1.0000000000
       570       190  TIP3  H2            8.1685041768       -5.9353065734        5.1533339772  CLST         190          1.0000000000
       571       191  TIP3  OH2         -10.8977365305       -4.8731531924       -6.5910960876  CLST         191          1.0000000000
       572       191  TIP3  H1          -10.5584741229       -4.3540223504       -7.3786231729  CLST         191          1.0000000000
       573       191  TIP3  H2          -10.0702364542       -4.9429395920       -6.0692714447  CLST         191          1.0000000000
       574       192  TIP3  OH2           8.9422036720       14.3220071643        1.8931585274  CLST         192          1.0000000000
       575       192  TIP3  H1            8.3597757065       14.0612424643        2.6599719131  CLST         192          1.0000000000
       576       192  TIP3  H2            9.0611588286       15.2764058901        2.0451449302  CLST         192          1.0000000000
       577       193  TIP3  OH2           6.1616122011      -12.1654602129       11.7789291909  CLST         193          1.0000000000
       578       193  TIP3  H1            7.0480032346      -12.4531219424       11.5318008317  CLST         193          1.0000000000
       579       193  TIP3  H2            5.6994031910      -11.9176369081       10.9471587493  CLST         193          1.0000000000
       580       194  TIP3  OH2          -6.3295664414       -4.4424330931       11.1147198095  CLST         194          1.0000000000
       581       194  TIP3  H1           -6.9710340274       -4.4320675702       11.8242593241  CLST         194          1.0000000000
       582       194  TIP3  H2           -6.8325540462       -4.8050890077       10.3890727034  CLST         194          1.0000000000
       583       195  TIP3  OH2          -7.3722420158        9.0793847957       10.2244186348  CLST         195          1.0000000000
       584       195  TIP3  H1           -8.2947541885        9.1247148341       10.4557018881  CLST         195          1.0000000000
       585       195  TIP3  H2           -7.3679252614        8.1063652629        9.9002357713  CLST         195          1.0000000000
       586       196  TIP3  OH2           5.9531753132      -12.3326722470       -5.9680998070  CLST         196          1.0000000000
       587       196  TIP3  H1            6.4586175685      -11.6122625358       -6.3795678164  CLST         196          1.0000000000
       588       196  TIP3  H2            5.2147530056      -11.8307648351       -5.6021727190  CLST         196          1.0000000000
       589       197  TIP3  OH2           2.1668234364       -9.1419612144       -2.7546593263  CLST         197          1.0000000000
       590       197  TIP3  H1            2.0162738792       -8.2583633397       -2.3608350446  CLST         197          1.0000000000
       591       197  TIP3  H2            3.1536633111       -9.0934217682       -2.7177972483  CLST         197          1.0000000000
       592       198  TIP3  OH2          10.8635989607        1.9920979239        4.6042412935  CLST         198          1.0000000000
       593       198  TIP3  H1           10.1122952322        1.4496792541        4.4885936309  CLST         198          1.0000000000
       594       198  TIP3  H2           10.5857561383        2.8734685948        4.2656035316  CLST         198          1.0000000000
       595       199  TIP3  OH2          -0.0127365130        8.4028660829       -5.8441100694  CLST         199          1.0000000000
       596       199  TIP3  H1           -0.8814374535        8.6743631316       -5.4660294790  CLST         199          1.0000000000
       597       199  TIP3  H2           -0.0319422255        7.4656850771       -5.6583242277  CLST         199          1.0000000000
       598       200  TIP3  OH2          -7.6349081194       11.7782930298       10.9954698878  CLST         200          1.0000000000
       599       200  TIP3  H1           -7.9498043169       10.9080639707       10.6422237574  CLST         200          1.0000000000
       600       200  TIP3  H2           -7.1970135148       12.2164329360       10.2755111724  CLST         200          1.0000000000
       601       201  TIP3  OH2           4.5623153056        0.9189871382       -0.0831590813  CLST         201          1.0000000000
       602       201  TIP3  H1            4.3087515947        1.6361399488        0.5314881879  CLST         201          1.0000000000
       603       201  TIP3  H2            4.8760048319        0.2845373717        0.5393904643  CLST         201          1.0000000000
       604       202  TIP3  OH2          -1.9529651257       -4.1547473900      -12.3735753629  CLST         202          1.0000000000
       605       202  TIP3  H1           -1.7847934782       -4.7976381297      -11.6980584727  CLST         202          1.0000000000
       606       202  TIP3  H2           -2.5004894951       -3.5132200738      -11.9058884097  CLST         202          1.0000000000
       607       203  TIP3  OH2          -0.6813946643       11.2501236211        7.5353213747  CLST         203          1.0000000000
       608       203  TIP3  H1            0.1463351497       10.9531830532        7.9058040489  CLST         203          1.0000000000
       609       203  TIP3  H2           -1.3356024553       10.9019436535        8.1692870045  CLST         203          1.0000000000
       610       204  TIP3  OH2          -5.3925081630        6.3920193591      -13.3768215100  CLST         204          1.0000000000
       611       204  TIP3  H1           -4.6397369419        6.3992069105      -13.9410007470  CLST         204          1.0000000000
       612       204  TIP3  H2           -5.4742958303        5.4232432474      -13.2140039263  CLST         204          1.0000000000
       613       205  TIP3  OH2          -2.3519827910        7.0446194121       -2.6279956269  CLST         205          1.0000000000
       614       205  TIP3  H1           -2.2816587828        7.7787985240       -3.2717024167  CLST         205          1.0000000000
       615       205  TIP3  H2           -1.3794002390        6.8777570264       -2.5686185222  CLST         205          1.0000000000
       616       206  TIP3  OH2           5.0083947250      -11.0128562014       -9.8519239847  CLST         206          1.0000000000
       617       206  TIP3  H1            4.8387537889      -11.8715927340       -9.5585794852  CLST         206          1.0000000000
       618       206  TIP3  H2            5.8391697551      -10.8086336741       -9.3200789330  CLST         206          1.0000000000
       619       207  TIP3  OH2          12.8507402492       10.1228094226       12.2125703506  CLST         207          1.0000000000
       620       207  TIP3  H1           12.0525801739        9.7191597855       12.6208918341  CLST         207          1.0000000000
       621       207  TIP3  H2           13.5513736038        9.8562828476       12.7976786940  CLST         207          1.0000000000
       622       208  TIP3  OH2         -11.5786820492        2.2645637293        6.8336845612  CLST         208          1.0000000000
       623       208  TIP3  H1          -11.1113831074        2.0962271978        7.6840722882  CLST         208          1.0000000000
       624       208  TIP3  H2          -11.0762543836        2.9982405953        6.4528723667  CLST         208          1.0000000000
       625       209  TIP3  OH2           4.4736392110       -9.1897033800        7.3598981324  CLST         209          1.0000000000
       626       209  TIP3  H1            4.2444083868       -9.5333316389        6.5026848669  CLST         209          1.0000000000
       627       209  TIP3  H2            3.6646583099       -8.7646179944        7.6271627103  CLST         209          1.0000000000
       628       210  TIP3  OH2          12.1808131316      -11.1474554426        5.4301712549  CLST         210          1.0000000000
       629       210  TIP3  H1           12.5598715141      -11.3314753935        4.5565363425  CLST         210          1.0000000000
       630       210  TIP3  H2           12.4400703727      -10.1872309002        5.5882717431  CLST         210          1.0000000000
       631       211  TIP3  OH2          -0.3583091540       -9.2214952013       12.1780166595  CLST         211          1.0000000000
       632       211  TIP3  H1            0.1672118108       -9.7779810172       12.7802382558  CLST         211          1.0000000000
       633       211  TIP3  H2           -1.2036474459       -9.7544992794       12.1914761603  CLST         211          1.0000000000
       634       212  TIP3  OH2         -12.3421627795        3.3980378605       -2.6114784623  CLST         212          1.0000000000
       635       212  TIP3  H1          -11.7313087102        4.1142199741       -2.8805411084  CLST         212          1.0000000000
       636       212  TIP3  H2          -11.6684781972        2.7584783108       -2.2516098709  CLST         212          1.0000000000
       637       213  TIP3  OH2          -9.4229093244      -11.4915588307      -11.6087194182  CLST         213          1.0000000000
       638       213  TIP3  H1           -9.8257925233      -11.7648643289      -12.4439912379  CLST         213          1.0000000000
       639       213  TIP3  H2           -8.5440064136      -11.1718253499      -11.7718037008  CLST         213          1.0000000000
       640       214  TIP3  OH2          -6.4465221680        2.2540452898       -5.4216511308  CLST         214          1.0000000000
       641       214  TIP3  H1           -6.1806612201        1.4423379643       -4.9812741118  CLST         214          1.0000000000
       642       214  TIP3  H2           -7.1476699296        2.6371785981       -4.8272217699  CLST         214          1.0000000000
       643       215  TIP3  OH2         -11.7718147666      -12.8866950101        5.6878646115  CLST         215          1.0000000000
       644       215  TIP3  H1          -11.0581566440      -12.3336708986        5.4881042931  CLST         215          1.0000000000
       645       215  TIP3  H2          -11.8913134301      -13.2685265965        4.7833227845  CLST         215          1.0000000000
       646       216  TIP3  OH2         -12.0022564216       -2.3145157526        8.0315489884  CLST         216          1.0000000000
       647       216  TIP3  H1          -11.1090726949       -1.9529069780        8.1559837183  CLST         216          1.0000000000
       648       216  TIP3  H2          -11.7320855128       -3.2320375146        8.1596947521  CLST         216          1.0000000000
       649       217  TIP3  OH2           7.5509845378       -0.2694100814       -1.5384463506  CLST         217          1.0000000000
       650       217  TIP3  H1            7.7567863501       -1.2135783019       -1.7496965518  CLST         217          1.0000000000
       651       217  TIP3  H2            7.0834272977       -0.3664607930       -0.7083086100  CLST         217          1.0000000000
       652       218  TIP3  OH2          -8.1767294986       -3.9079764620        9.0980496004  CLST         218          1.0000000000
       653       218  TIP3  H1           -8.5790550377       -3.0434100236        8.8629688248  CLST         218          1.0000000000
       654       218  TIP3  H2           -7.7591147925       -4.2376367089        8.2710942426  CLST         218          1.0000000000
       655       219  TIP3  OH2         -12.4363092133       -4.5542157607       -2.6742629405  CLST         219          1.0000000000
       656       219  TIP3  H1          -12.5426332221       -3.6365527511       -2.8576648545  CLST         219          1.0000000000
       657       219  TIP3  H2          -12.5989127068       -4.9095161000       -3.5774247638  CLST         219          1.0000000000
       658       220  TIP3  OH2           6.3330466234        6.8892972599        7.7960413103  CLST         220          1.0000000000
       659       220  TIP3  H1            6.0179986634        6.9383905140        6.8763985195  CLST         220          1.0000000000
       660       220  TIP3  H2            5.8256460718        6.1985631905        8.1712193593  CLST         220          1.0000000000
       661       221  TIP3  OH2         -10.3392514853       -7.1019439320       10.2950958600  CLST         221          1.0000000000
       662       221  TIP3  H1           -9.4010728288       -7.2920030220       10.3063933302  CLST         221          1.0000000000
       663       221  TIP3  H2          -10.7290776750       -7.9367826182       10.1627079302  CLST         221          1.0000000000
       664       222  TIP3  OH2          -6.8685171425       -0.7614005739      -13.6562289917  CLST         222          1.0000000000
       665       222  TIP3  H1           -6.3634641999       -1.5767558061      -13.3912733492  CLST         222          1.0000000000
       666       222  TIP3  H2           -7.6633518182       -1.1486687398      -13.8940093844  CLST         222          1.0000000000
       667       223  TIP3  OH2           2.7777778980      -10.8531462462      -11.6198368592  CLST         223          1.0000000000
       668       223  TIP3  H1            2.2776252237      -11.6924527422      -11.5078254551  CLST         223          1.0000000000
       669       223  TIP3  H2            3.5556175630      -10.9004241029      -11.1232491659  CLST         223          1.0000000000
       670       224  TIP3  OH2           7.5951038136        4.8069929692        0.6409985291  CLST         224          1.0000000000
       671       224  TIP3  H1            8.2951429478        5.4716249338        0.5563254582  CLST         224          1.0000000000
       672       224  TIP3  H2            7.5731993877        4.3154274495       -0.2461149718  CLST         224          1.0000000000
       673       225  TIP3  OH2          -0.3401417980        4.5908776224       -1.2581429399  CLST         225          1.0000000000
       674       225  TIP3  H1           -0.4072800093        4.4955869581       -0.3042369040  CLST         225          1.0000000000
       675       225  TIP3  H2           -0.4837637028        3.6405194424       -1.3909383966  CLST         225          1.0000000000
       676       226  TIP3  OH2          -5.6819760485       -4.3666359437        7.4925883488  CLST         226          1.0000000000
       677       226  TIP3  H1           -5.7250094800       -5.3378354112        7.6136519294  CLST         226          1.0000000000
       678       226  TIP3  H2           -5.6053345184       -4.3668366621        6.5117120367  CLST         226          1.0000000000
       679       227  TIP3  OH2          11.6612770724       -4.1655149054       -9.8889205120  CLST         227          1.0000000000
       680       227  TIP3  H1           11.7230464733       -3.5760937596       -9.1200794402  CLST         227          1.0000000000
       681       227  TIP3  H2           11.5142410542       -3.4840216069      -10.5842216945  CLST         227          1.0000000000
       682       228  TIP3  OH2           3.5395351330       12.4149562688        3.2448706100  CLST         228          1.0000000000
       683       228  TIP3  H1            2.6785007393       12.1354594796        3.5950564151  CLST         228          1.0000000000
       684       228  TIP3  H2            3.1424832959       12.7304320911        2.4618056242  CLST         228          1.0000000000
       685       229  TIP3  OH2         -11.5356389428      -13.0458499889        2.8829439698  CLST         229          1.0000000000
       686       229  TIP3  H1          -11.4305891527      -13.6229177825        2.1379620031  CLST         229          1.0000000000
       687       229  TIP3  H2          -11.2397178871      -12.1939893511        2.4626343933  CLST         229          1.0000000000
       688       230  TIP3  OH2          12.2752018159        6.1689797879       -3.4114607895  CLST         230          1.0000000000
       689       230  TIP3  H1           12.9716179294        6.1198842441       -2.7761916270  CLST         230          1.0000000000
       690       230  TIP3  H2           11.9833295226        5.2822345680       -3.3731242486  CLST         230          1.0000000000
       691       231  TIP3  OH2           7.1638721408        3.4060233044        4.9262141232  CLST         231          1.0000000000
       692       231  TIP3  H1            7.5334762196        4.2496639110        5.1317473828  CLST         231          1.0000000000
       693       231  TIP3  H2            6.3525657730        3.7261277848        4.4443443776  CLST         231          1.0000000000
       694       232  TIP3  OH2         -10.3194541211        9.0172365668        7.5304700934  CLST         232          1.0000000000
       695       232  TIP3  H1          -10.8132410960        9.6296945362        8.1420838345  CLST         232          1.0000000000
       696       232  TIP3  H2          -10.1526779110        8.2566410804        8.0801283794  CLST         232          1.0000000000
       697       233  TIP3  OH2           3.6101707542       -5.3536353070        8.0731206442  CLST         233          1.0000000000
       698       233  TIP3  H1            4.1283205746       -5.6809231594        8.7274211155  CLST         233          1.0000000000
       699       233  TIP3  H2            3.5033625569       -4.3973260281        8.4111607446  CLST         233          1.0000000000
       700       234  TIP3  OH2          -3.6769158984        8.5876236434       -0.5678677924  CLST         234          1.0000000000
       701       234  TIP3  H1           -3.1371894777        8.4285285734       -1.3322055735  CLST         234          1.0000000000
       702       234  TIP3  H2           -3.6330217255        9.5789882763       -0.5532542512  CLST         234          1.0000000000
       703       235  TIP3  OH2          -1.9317004088       -4.0892668269       -9.1233415474  CLST         235          1.0000000000
       704       235  TIP3  H1           -1.8333176009       -4.9477106275       -9.5513042118  CLST         235          1.0000000000
       705       235  TIP3  H2           -0.9854901952       -3.8993657700       -9.0434041615  CLST         235          1.0000000000
       706       236  TIP3  OH2          -0.3844121426      -13.6781980745       -2.9486201916  CLST         236          1.0000000000
       707       236  TIP3  H1            0.1774583580      -12.9674172392       -2.5518798385  CLST         236          1.0000000000
       708       236  TIP3  H2           -1.0083452318      -13.8129955054       -2.2763469785  CLST         236          1.0000000000
       709       237  TIP3  OH2          -3.6452522718       -5.1556123762       10.8883478353  CLST         237          1.0000000000
       710       237  TIP3  H1           -4.4861913351       -4.7921862764       11.2215541463  CLST         237          1.0000000000
       711       237  TIP3  H2           -4.0790230027       -5.6810039099       10.1700234597  CLST         237          1.0000000000
       712       238  TIP3  OH2           0.6746103871        4.7989323803        7.2557044735  CLST         238          1.0000000000
       713       238  TIP3  H1            0.0002145804        5.3051053610        6.8038101171  CLST         238          1.0000000000
       714       238  TIP3  H2            0.5733871438        5.0158600225        8.2425370024  CLST         238          1.0000000000
       715       239  TIP3  OH2         -14.0594965470        5.9338727372        3.5032154384  CLST         239          1.0000000000
       716       239  TIP3  H1          -14.3395330962        6.5035652395        2.7183168411  CLST         239          1.0000000000
       717       239  TIP3  H2          -13.3814175298        5.4122897209        3.0905552153  CLST         239          1.0000000000
       718       240  TIP3  OH2         -14.1480931708        8.8795156752       -0.2586243180  CLST         240          1.0000000000
       719       240  TIP3  H1          -14.8453055930        9.1250036829        0.3536147853  CLST         240          1.0000000000
       720       240  TIP3  H2          -14.0043931104        7.9168466987        0.0393672295  CLST         240          1.0000000000
       721       241  TIP3  OH2          -7.6656192645       -7.8050198922       -8.5609694999  CLST         241          1.0000000000
       722       241  TIP3  H1           -7.8495206679       -7.9398101572       -7.6182655265  CLST         241          1.0000000000
       723       241  TIP3  H2           -7.6168391380       -6.8412911718       -8.5666017840  CLST         241          1.0000000000
       724       242  TIP3  OH2           6.0384635979       -5.7373211286        9.6675269296  CLST         242          1.0000000000
       725       242  TIP3  H1            6.4340630699       -4.8180823577        9.3800236410  CLST         242          1.0000000000
       726       242  TIP3  H2            6.8133451695       -6.3169419426        9.4292897236  CLST         242          1.0000000000
       727       243  TIP3  OH2          -6.5990478963       -7.2579081962       -4.2927141325  CLST         243          1.0000000000
       728       243  TIP3  H1           -6.5526541259       -7.8175712655       -5.0696600326  CLST         243          1.0000000000
       729       243  TIP3  H2           -6.3552443076       -7.9332346760       -3.6318686312  CLST         243          1.0000000000
       730       244  TIP3  OH2           4.8864644898        5.7589742618        5.4474125753  CLST         244          1.0000000000
       731       244  TIP3  H1            5.1051406068        5.5256014191        4.5404219052  CLST         244          1.0000000000
       732       244  TIP3  H2            4.2739316910        5.0473839995        5.7410674080  CLST         244          1.0000000000
       733       245  TIP3  OH2          -7.0784678070        3.6789476769       -7.7388801796  CLST         245          1.0000000000
       734       245  TIP3  H1           -6.9235890450        3.0558808258       -7.0236257077  CLST         245          1.0000000000
       735       245  TIP3  H2           -7.3133037085        4.4125575530       -7.1289560028  CLST         245          1.0000000000
       736       246  TIP3  OH2           1.9891031267       -6.5778931511       -1.8627309768  CLST         246          1.0000000000
       737       246  TIP3  H1            1.6216844177       -5.9478403370       -2.4982851455  CLST         246          1.0000000000
       738       246  TIP3  H2            2.9299429445       -6.5413421763       -1.9819552179  CLST         246          1.0000000000
       739       247  TIP3  OH2           5.9902353035        8.0264669251        0.5355492698  CLST         247          1.0000000000
       740       247  TIP3  H1            6.6040500154        7.8738002675       -0.2789424326  CLST         247          1.0000000000
       741       247  TIP3  H2            5.4556622034        8.7766877024        0.3152025853  CLST         247          1.0000000000
       742       248  TIP3  OH2          -2.4780648770        8.3332609906      -11.9896174315  CLST         248          1.0000000000
       743       248  TIP3  H1           -2.3078985405        8.7390300588      -12.8319211734  CLST         248          1.0000000000
       744       248  TIP3  H2           -1.9580854698        8.9496044787      -11.3572261152  CLST         248          1.0000000000
       745       249  TIP3  OH2           8.8989221957        4.7059330771       -7.8820950058  CLST         249          1.0000000000
       746       249  TIP3  H1            8.2817440308        5.4464084278       -7.9047964732  CLST         249          1.0000000000
       747       249  TIP3  H2            8.4079875386        4.0193985647       -7.4241264602  CLST         249          1.0000000000
       748       250  TIP3  OH2          -7.5693333349        9.6780858826       -5.3886757075  CLST         250          1.0000000000
       749       250  TIP3  H1           -8.0062769558        8.8344528570       -5.6450281322  CLST         250          1.0000000000
       750       250  TIP3  H2           -7.2857319296       10.0957442787       -6.2166320642  CLST         250          1.0000000000
       751       251  TIP3  OH2          -3.6462665652       12.4596596180        3.0387960241  CLST         251          1.0000000000
       752       251  TIP3  H1           -2.8807639829       12.7478231724        2.4766479879  CLST         251          1.0000000000
       753       251  TIP3  H2           -3.1599401581       12.3296999488        3.8418856770  CLST         251          1.0000000000
       754       252  TIP3  OH2           5.8790417347        5.2395463771       14.6439105329  CLST         252          1.0000000000
       755       252  TIP3  H1            5.7263867825        6.1046454536       14.2866614398  CLST         252          1.0000000000
       756       252  TIP3  H2            5.5302694213        5.3457771301       15.5428857285  CLST         252          1.0000000000
       757       253  TIP3  OH2           5.9883924172       13.9285064643        3.2891472041  CLST         253          1.0000000000
       758       253  TIP3  H1            5.2532597549       13.2808710743        3.4245913476  CLST         253          1.0000000000
       759       253  TIP3  H2            6.0953887118       13.9306874026        2.3351418754  CLST         253          1.0000000000
       760       254  TIP3  OH2          -4.1951777770        8.1592304981        3.1032974033  CLST         254          1.0000000000
       761       254  TIP3  H1           -4.6626385790        8.5504798894        2.2728274960  CLST         254          1.0000000000
       762       254  TIP3  H2           -4.8043122512        7.4978543197        3.4268227606  CLST         254          1.0000000000
       763       255  TIP3  OH2          -7.1500230632       10.4689519762        4.2341041016  CLST         255          1.0000000000
       764       255  TIP3  H1           -8.0226621473       10.8714066051        4.3844034096  CLST         255          1.0000000000
       765       255  TIP3  H2           -7.1852617781        9.7545572444        4.9374790941  CLST         255          1.0000000000
       766       256  TIP3  OH2          11.4567768003        3.8002015732       -1.3515792918  CLST         256          1.0000000000
       767       256  TIP3  H1           11.7721477487        2.8731173222       -1.6167507226  CLST         256          1.0000000000
       768       256  TIP3  H2           11.5873267730        3.7525650965       -0.3790331068  CLST         256          1.0000000000
       769       257  TIP3  OH2          -8.4405701065       -1.1822636073       -5.0053352512  CLST         257          1.0000000000
       770       257  TIP3  H1           -7.5969985609       -0.8628192324       -4.6842419188  CLST         257          1.0000000000
       771       257  TIP3  H2           -8.4658776634       -0.9487212001       -5.9018358690  CLST         257          1.0000000000
       772       258  TIP3  OH2          -5.3375778043       10.2555249080        7.8110308733  CLST         258          1.0000000000
       773       258  TIP3  H1           -5.0204629413       10.7430868095        7.0619445805  CLST         258          1.0000000000
       774       258  TIP3  H2           -6.0964200272       10.7566488753        8.1392654750  CLST         258          1.0000000000
       775       259  TIP3  OH2          10.1565083766        6.1117465621        1.0382501257  CLST         259          1.0000000000
       776       259  TIP3  H1           11.0221595951        6.5626257064        0.8373625708  CLST         259          1.0000000000
       777       259  TIP3  H2            9.8615871456        6.6676217219        1.7659086607  CLST         259          1.0000000000
       778       260  TIP3  OH2          -5.0069339280        7.7431070110        8.9362296653  CLST         260          1.0000000000
       779       260  TIP3  H1           -5.0535176601        8.5695089233        8.4636764541  CLST         260          1.0000000000
       780       260  TIP3  H2           -5.6842212822        7.2772003095        8.3697590929  CLST         260          1.0000000000
       781       261  TIP3  OH2           0.7938111936       -4.2937787334       12.3625689787  CLST         261          1.0000000000
       782       261  TIP3  H1            0.2780032402       -5.1664773765       12.3151652319  CLST         261          1.0000000000
       783       261  TIP3  H2            1.5060589849       -4.5422777559       12.9548230680  CLST         261          1.0000000000
       784       262  TIP3  OH2         -11.0995775290        4.8368292094        5.9900414495  CLST         262          1.0000000000
       785       262  TIP3  H1          -10.1883708433        4.6775422323        5.5874687686  CLST         262          1.0000000000
       786       262  TIP3  H2          -11.6332862107        5.1160169699        5.2089158742  CLST         262          1.0000000000
       787       263  TIP3  OH2           1.7425403816        0.8419168638        6.6126899705  CLST         263          1.0000000000
       788       263  TIP3  H1            2.4176345848        1.4653015384        7.0010959046  CLST         263          1.0000000000
       789       263  TIP3  H2            2.1576212073        0.0264444584        6.9040583655  CLST         263          1.0000000000
       790       264  TIP3  OH2           5.2056850583       -4.1462234287       -9.6756765030  CLST         264          1.0000000000
       791       264  TIP3  H1            5.3348207603       -5.1064276280       -9.9229630919  CLST         264          1.0000000000
       792       264  TIP3  H2            4.3222001121       -4.0387470367       -9.9688617010  CLST         264          1.0000000000
       793       265  TIP3  OH2           7.5743170002        4.9706336077      -10.2087230525  CLST         265          1.0000000000
       794       265  TIP3  H1            7.6585045590        5.9435615981      -10.3262891744  CLST         265          1.0000000000
       795       265  TIP3  H2            8.3862421023        4.7104833980       -9.7177325571  CLST         265          1.0000000000
       796       266  TIP3  OH2          -8.0092274318       -8.8346347165        0.1590550145  CLST         266          1.0000000000
       797       266  TIP3  H1           -7.6690492335       -9.2065829453        1.0099540933  CLST         266          1.0000000000
       798       266  TIP3  H2           -8.1514926301       -7.9002311393        0.3599556128  CLST         266          1.0000000000
       799       267  TIP3  OH2           1.2399158735        2.6375364211       -5.1938385443  CLST         267          1.0000000000
       800       267  TIP3  H1            1.2450397860        3.4450096717       -4.6564654173  CLST         267          1.0000000000
       801       267  TIP3  H2            2.1794058606        2.4161719676       -5.0492730805  CLST         267          1.0000000000
       802       268  TIP3  OH2           5.1217034141       -4.5537247180       -6.8052892969  CLST         268          1.0000000000
       803       268  TIP3  H1            5.1764078801       -4.1396017398       -7.7360448492  CLST         268          1.0000000000
       804       268  TIP3  H2            4.7303706381       -5.4169900598       -7.0893447805  CLST         268          1.0000000000
       805       269  TIP3  OH2           5.5690558251       10.8588816098       -0.0516654757  CLST         269          1.0000000000
       806       269  TIP3  H1            6.4043865635       10.6873907372       -0.5093220211  CLST         269          1.0000000000
       807       269  TIP3  H2            5.7111490317       11.6719088463        0.4210504041  CLST         269          1.0000000000
       808       270  TIP3  OH2           1.2625554171        9.2866613368       -7.9138807779  CLST         270          1.0000000000
       809       270  TIP3  H1            1.1669552989        8.4646741085       -8.3516625452  CLST         270          1.0000000000
       810       270  TIP3  H2            0.8576876273        9.0025815968       -7.0677194294  CLST         270          1.0000000000
       811       271  TIP3  OH2          -6.4442263499       -9.0985407501       -2.1604478161  CLST         271          1.0000000000
       812       271  TIP3  H1           -5.7201681375       -8.6583020239       -1.6165674757  CLST         271          1.0000000000
       813       271  TIP3  H2           -7.1806629828       -9.2157503062       -1.5258405490  CLST         271          1.0000000000
       814       272  TIP3  OH2           9.4462627254       -8.2332857523        5.8147785009  CLST         272          1.0000000000
       815       272  TIP3  H1            8.4885555599       -8.2818529675        6.0597697768  CLST         272          1.0000000000
       816       272  TIP3  H2            9.4948128298       -7.7002301070        4.9896528035  CLST         272          1.0000000000
       817       273  TIP3  OH2         -13.9297064143        9.4486874576        3.2398602111  CLST         273          1.0000000000
       818       273  TIP3  H1          -14.7237416692        9.5666963483        3.8451960581  CLST         273          1.0000000000
       819       273  TIP3  H2          -13.4263786274        8.8447804784        3.7885096189  CLST         273          1.0000000000
       820       274  TIP3  OH2           4.1354512386       13.0552833156       -4.0531906788  CLST         274          1.0000000000
       821       274  TIP3  H1            3.9961971809       12.3152202168       -3.3467826897  CLST         274          1.0000000000
       822       274  TIP3  H2            3.6578344712       13.7719805014       -3.6013527418  CLST         274          1.0000000000
       823       275  TIP3  OH2           8.8173849396      -11.0959688557        5.9803406895  CLST         275          1.0000000000
       824       275  TIP3  H1            9.4084263100      -10.3327437215        6.0061007828  CLST         275          1.0000000000
       825       275  TIP3  H2            9.3107420490      -11.8237361630        5.5641030888  CLST         275          1.0000000000
       826       276  TIP3  OH2          -0.2062539843       -5.9538055451        1.4462236960  CLST         276          1.0000000000
       827       276  TIP3  H1           -0.6791351086       -5.9749729844        0.5973632748  CLST         276          1.0000000000
       828       276  TIP3  H2           -0.6840125647       -5.3470002747        1.9854661128  CLST         276          1.0000000000
       829       277  TIP3  OH2           6.5108363871        6.4106954267       -6.9281251509  CLST         277          1.0000000000
       830       277  TIP3  H1            5.6639339246        6.0469247001       -7.1762480122  CLST         277          1.0000000000
       831       277  TIP3  H2            6.5919784858        7.2638584576       -7.3008408614  CLST         277          1.0000000000
       832       278  TIP3  OH2          -0.6833419526       -7.4837490404        3.4785987904  CLST         278          1.0000000000
       833       278  TIP3  H1           -0.3909290091       -6.9210813874        2.7618806745  CLST         278          1.0000000000
       834       278  TIP3  H2           -1.0121582649       -6.8285428443        4.1621831863  CLST         278          1.0000000000
       835       279  TIP3  OH2         -13.5846315696        6.4742737707        0.3920790977  CLST         279          1.0000000000
       836       279  TIP3  H1          -13.6066724179        5.5514293217        0.0459650768  CLST         279          1.0000000000
       837       279  TIP3  H2          -12.7007445050        6.5735626934        0.6446036550  CLST         279          1.0000000000
       838       280  TIP3  OH2          -3.2931512865      -10.0220776394        5.4560295961  CLST         280          1.0000000000
       839       280  TIP3  H1           -3.4441376352       -9.2796904514        6.0283024214  CLST         280          1.0000000000
       840       280  TIP3  H2           -3.6526018375       -9.6372126647        4.6210076825  CLST         280          1.0000000000
       841       281  TIP3  OH2           8.1237789546        7.8046748888      -10.6033875197  CLST         281          1.0000000000
       842       281  TIP3  H1            8.5278621707        8.7136378284      -10.6388982493  CLST         281          1.0000000000
       843       281  TIP3  H2            7.1895886133        7.9372994003      -10.6472945201  CLST         281          1.0000000000
       844       282  TIP3  OH2          -7.7907119725      -11.8994738743        9.9530322245  CLST         282          1.0000000000
       845       282  TIP3  H1           -8.3956040406      -11.3837108960        9.4227295688  CLST         282          1.0000000000
       846       282  TIP3  H2           -7.2231692279      -12.4275869628        9.3235323958  CLST         282          1.0000000000
       847       283  TIP3  OH2           4.5030617975        8.6153395425       -4.6967615140  CLST         283          1.0000000000
       848       283  TIP3  H1            4.6651496489        9.5793973675       -4.9223712661  CLST         283          1.0000000000
       849       283  TIP3  H2            3.8113610395        8.7399081421       -4.0134443270  CLST         283          1.0000000000
       850       284  TIP3  OH2          11.9218301376        8.3483055654       -1.4432369809  CLST         284          1.0000000000
       851       284  TIP3  H1           11.5789812054        7.6216603590       -1.9843011135  CLST         284          1.0000000000
       852       284  TIP3  H2           11.1467815942        8.9175601688       -1.5216396914  CLST         284          1.0000000000
       853       285  TIP3  OH2          -5.3084642031        1.8914833679        8.9142525314  CLST         285          1.0000000000
       854       285  TIP3  H1           -4.6502818451        1.6402085429        8.1730235854  CLST         285          1.0000000000
       855       285  TIP3  H2           -4.7817764376        2.6334130922        9.2473284519  CLST         285          1.0000000000
       856       286  TIP3  OH2           2.8809484967        5.8163762156       -0.5260781390  CLST         286          1.0000000000
       857       286  TIP3  H1            2.0552336089        5.4717501439       -0.2530891608  CLST         286          1.0000000000
       858       286  TIP3  H2            3.4105705023        5.4766401965        0.2725132112  CLST         286          1.0000000000
       859       287  TIP3  OH2          -4.3293899234        9.2297864712       11.1666320397  CLST         287          1.0000000000
       860       287  TIP3  H1           -4.6176702618       10.0356939183       11.6807763304  CLST         287          1.0000000000
       861       287  TIP3  H2           -5.1815524444        8.8871585762       10.8766472770  CLST         287          1.0000000000
       862       288  TIP3  OH2           5.6296029409        3.4053226241       -9.4960267118  CLST         288          1.0000000000
       863       288  TIP3  H1            5.5816173139        2.7588200709      -10.1666088448  CLST         288          1.0000000000
       864       288  TIP3  H2            6.3338732302        4.0106544506       -9.8839089288  CLST         288          1.0000000000
       865       289  TIP3  OH2          -7.0343910408       -5.0549177863       -8.1943756717  CLST         289          1.0000000000
       866       289  TIP3  H1           -7.8466181569       -4.4725787562       -8.2237224597  CLST         289          1.0000000000
       867       289  TIP3  H2           -6.3465195758       -4.4634546173       -7.9152227561  CLST         289          1.0000000000
       868       290  TIP3  OH2           2.2196825905      -12.0324781456       11.2676911329  CLST         290          1.0000000000
       869       290  TIP3  H1            2.7713769367      -12.8050796949       11.4308929785  CLST         290          1.0000000000
       870       290  TIP3  H2            2.4800563413      -11.4371293475       11.9227410662  CLST         290          1.0000000000
       871       291  TIP3  OH2         -10.3259956868       -3.5543282697        2.8570504908  CLST         291          1.0000000000
       872       291  TIP3  H1          -10.8792105632       -4.0916708051        3.3805902933  CLST         291          1.0000000000
       873       291  TIP3  H2          -10.6281859900       -3.7655193435        2.0158132070  CLST         291          1.0000000000
       874       292  TIP3  OH2          12.1111077446        3.4542549932       -4.6665796870  CLST         292          1.0000000000
       875       292  TIP3  H1           11.2476703921        3.0395280921       -4.7331390628  CLST         292          1.0000000000
       876       292  TIP3  H2           11.9092841429        4.2622611931       -5.2138301408  CLST         292          1.0000000000
       877       293  TIP3  OH2           9.0507290416       10.6108123318       11.1823570105  CLST         293          1.0000000000
       878       293  TIP3  H1            8.5941082077       11.2778151749       11.5817289801  CLST         293          1.0000000000
       879       293  TIP3  H2            9.2390639046       11.0317740381       10.3270064609  CLST         293          1.0000000000
       880       294  TIP3  OH2           4.1231977679        4.5699466001       -2.5059695018  CLST         294          1.0000000000
       881       294  TIP3  H1            3.5583239482        5.0861676112       -1.8899724098  CLST         294          1.0000000000
       882       294  TIP3  H2            4.4947448477        5.1682473591       -3.1989544019  CLST         294          1.0000000000
       883       295  TIP3  OH2          -2.3757260115      -13.4591974928       -8.6398910668  CLST         295          1.0000000000
       884       295  TIP3  H1           -3.1250738180      -13.6054100334       -8.0895273571  CLST         295          1.0000000000
       885       295  TIP3  H2           -1.7099288114      -13.5267112299       -8.0108139948  CLST         295          1.0000000000
       886       296  TIP3  OH2          -1.5222003342       11.5281198608      -13.0321895570  CLST         296          1.0000000000
       887       296  TIP3  H1           -0.5954884705       11.4885547600      -13.1887132250  CLST         296          1.0000000000
       888       296  TIP3  H2           -1.6043246789       11.2464791976      -12.0827250110  CLST         296          1.0000000000
       889       297  TIP3  OH2           8.0840958196       -0.4908305334       11.3227511947  CLST         297          1.0000000000
       890       297  TIP3  H1            8.7011170954       -1.1736955874       11.1206097806  CLST         297          1.0000000000
       891       297  TIP3  H2            7.3037089877       -0.9652274453       11.5142264539  CLST         297          1.0000000000
       892       298  TIP3  OH2           1.0153755485       -1.3612909442       -7.4837542956  CLST         298          1.0000000000
       893       298  TIP3  H1            1.4450760023       -0.6416203879       -8.0032352262  CLST         298          1.0000000000
       894       298  TIP3  H2            0.9377601902       -2.0573799884       -8.2175780496  CLST         298          1.0000000000
       895       299  TIP3  OH2           2.9682988121       10.2349778247       12.7272531607  CLST         299          1.0000000000
       896       299  TIP3  H1            2.2508425050       10.7333183935       12.3175414353  CLST         299          1.0000000000
       897       299  TIP3  H2            2.5000748811        9.4186660350       12.8634996230  CLST         299          1.0000000000
       898       300  TIP3  OH2         -10.8057433250        5.2232173037       -3.6882542043  CLST         300          1.0000000000
       899       300  TIP3  H1          -10.9736544142        5.5083388834       -4.6244776135  CLST         300          1.0000000000
       900       300  TIP3  H2          -10.7831268515        6.0912357878       -3.2228137753  CLST         300          1.0000000000
       901       301  TIP3  OH2           9.6580010979       -8.2542018490       11.3702539006  CLST         301          1.0000000000
       902       301  TIP3  H1            9.3680755379       -7.8480640825       12.1759555966  CLST         301          1.0000000000
       903       301  TIP3  H2            9.4920359470       -9.1696501780       11.6160870220  CLST         301          1.0000000000
       904       302  TIP3  OH2           7.7795437289       12.7699428522        5.3637654389  CLST         302          1.0000000000
       905       302  TIP3  H1            7.1097760052       13.4316055483        5.1088354863  CLST         302          1.0000000000
       906       302  TIP3  H2            7.1144238392       12.1819112189        5.7380821270  CLST         302          1.0000000000
       907       303  TIP3  OH2         -10.8637452538        1.3392876286       -2.0193281205  CLST         303          1.0000000000
       908       303  TIP3  H1          -10.0186201047        1.0055374135       -1.5895512236  CLST         303          1.0000000000
       909       303  TIP3  H2          -10.9936736968        0.7902204663       -2.8262503675  CLST         303          1.0000000000
       910       304  TIP3  OH2          -7.9800969366        1.2000484273      -15.2093430395  CLST         304          1.0000000000
       911       304  TIP3  H1           -7.6805493218        0.3390283710      -14.7846328648  CLST         304          1.0000000000
       912       304  TIP3  H2           -7.5686764452        1.2675532429      -16.0833611274  CLST         304          1.0000000000
       913       305  TIP3  OH2           3.4740487391       -3.8556543286       13.8870334540  CLST         305          1.0000000000
       914       305  TIP3  H1            4.2968785182       -3.9348734817       13.4408801760  CLST         305          1.0000000000
       915       305  TIP3  H2            3.4796870356       -2.9278304281       14.1427376388  CLST         305          1.0000000000
       916       306  TIP3  OH2           8.8507945527      -11.9596661595      -11.1710777310  CLST         306          1.0000000000
       917       306  TIP3  H1            9.3537693795      -11.9901718386      -12.0444761768  CLST         306          1.0000000000
       918       306  TIP3  H2            9.1270382913      -12.7464516401      -10.7238506598  CLST         306          1.0000000000
       919       307  TIP3  OH2           9.1614792297        7.8857879265       -7.6289601831  CLST         307          1.0000000000
       920       307  TIP3  H1            8.2519751094        8.1795046491       -7.6160336667  CLST         307          1.0000000000
       921       307  TIP3  H2            9.4912037237        8.2451024241       -6.7782545678  CLST         307          1.0000000000
       922       308  TIP3  OH2         -10.8321193249       -4.8454581087        8.7955656133  CLST         308          1.0000000000
       923       308  TIP3  H1          -10.9676311770       -5.4132999472        9.6095682540  CLST         308          1.0000000000
       924       308  TIP3  H2           -9.9414187929       -4.4359535979        9.0810767951  CLST         308          1.0000000000
       925       309  TIP3  OH2          -1.9558247011       -0.5257335496        5.5622180766  CLST         309          1.0000000000
       926       309  TIP3  H1           -2.8081073461       -0.7275464269        5.0261257768  CLST         309          1.0000000000
       927       309  TIP3  H2           -2.1653452907       -0.9800949113        6.3299290856  CLST         309          1.0000000000
       928       310  TIP3  OH2          -5.0165785206       -0.5433117336        7.3246281247  CLST         310          1.0000000000
       929       310  TIP3  H1           -4.1674883846       -0.1651603167        7.5435107527  CLST         310          1.0000000000
       930       310  TIP3  H2           -5.0636171007       -1.2081706571        8.0483000164  CLST         310          1.0000000000
       931       311  TIP3  OH2          -7.2226221880        8.3679775207      -12.2723108359  CLST         311          1.0000000000
       932       311  TIP3  H1           -6.7756316274        7.5931430126      -12.7568312122  CLST         311          1.0000000000
       933       311  TIP3  H2           -7.2417734937        8.0480419156      -11.3513816666  CLST         311          1.0000000000
       934       312  TIP3  OH2           6.4836912881       -0.8739965824       -6.2591832193  CLST         312          1.0000000000
       935       312  TIP3  H1            6.0748954322       -0.1216562514       -5.8610512489  CLST         312          1.0000000000
       936       312  TIP3  H2            6.3327117976       -1.6090402766       -5.5478870968  CLST         312          1.0000000000
       937       313  TIP3  OH2          -8.9042539508      -10.7805876503        7.0539949256  CLST         313          1.0000000000
       938       313  TIP3  H1           -8.3840129363       -9.9190511204        7.0700244463  CLST         313          1.0000000000
       939       313  TIP3  H2           -9.3558568623      -10.6044407445        6.1957062392  CLST         313          1.0000000000
       940       314  TIP3  OH2          -1.5683417172      -12.1422273135      -10.8063794251  CLST         314          1.0000000000
       941       314  TIP3  H1           -1.2612374290      -11.3486165840      -10.2153565871  CLST         314          1.0000000000
       942       314  TIP3  H2           -1.9948533252      -12.7174584917      -10.1574243777  CLST         314          1.0000000000
       943       315  TIP3  OH2          -1.4358636400       -0.6601878580       -6.3627166844  CLST         315          1.0000000000
       944       315  TIP3  H1           -0.5520904088       -1.0899675934       -6.5722225741  CLST         315          1.0000000000
       945       315  TIP3  H2           -1.2223916749       -0.3146064652       -5.4432746424  CLST         315          1.0000000000
       946       316  TIP3  OH2         -13.3661503183       -3.8261756045       -5.4478638678  CLST         316          1.0000000000
       947       316  TIP3  H1          -12.5958190421       -4.4189759285       -5.5889381717  CLST         316          1.0000000000
       948       316  TIP3  H2          -12.9883590180       -3.0428892550       -5.7143046363  CLST         316          1.0000000000
       949       317  TIP3  OH2          -6.1051629346       -0.1455065114       -3.7550190244  CLST         317          1.0000000000
       950       317  TIP3  H1           -5.2002680380       -0.0736938087       -3.3882934409  CLST         317          1.0000000000
       951       317  TIP3  H2           -6.5513095763        0.4786785406       -3.1116345674  CLST         317          1.0000000000
       952       318  TIP3  OH2          -3.9695583343       -9.5986600481       -9.4045762649  CLST         318          1.0000000000
       953       318  TIP3  H1           -4.2449992466       -9.6453659735       -8.4255228509  CLST         318          1.0000000000
       954       318  TIP3  H2           -2.9986244378       -9.6975068765       -9.2216966532  CLST         318          1.0000000000
       955       319  TIP3  OH2           5.6536744120       10.8417907998        8.7141528016  CLST         319          1.0000000000
       956       319  TIP3  H1            6.1832464768       10.1420752558        8.3268471499  CLST         319          1.0000000000
       957       319  TIP3  H2            6.2438243380       11.1269243780        9.3782354303  CLST         319          1.0000000000
       958       320  TIP3  OH2         -10.6029013606        1.0544433325      -14.5763669716  CLST         320          1.0000000000
       959       320  TIP3  H1           -9.7723769896        1.2649984347      -15.0104332954  CLST         320          1.0000000000
       960       320  TIP3  H2          -10.3711262066        0.2005918305      -14.1151428423  CLST         320          1.0000000000
       961       321  TIP3  OH2          -9.9471524409       10.2556824815       -9.7379543555  CLST         321          1.0000000000
       962       321  TIP3  H1          -10.8400822862        9.9426079036       -9.6867924249  CLST         321          1.0000000000
       963       321  TIP3  H2           -9.8012390407       10.1286707337      -10.7163353533  CLST         321          1.0000000000
       964       322  TIP3  OH2         -12.7396253171       -1.6503783412       -2.5056993244  CLST         322          1.0000000000
       965       322  TIP3  H1          -12.2678490845       -1.1312281162       -3.1940286186  CLST         322          1.0000000000
       966       322  TIP3  H2          -11.9705197943       -2.0103868544       -1.9251394764  CLST         322          1.0000000000
       967       323  TIP3  OH2          -1.0298201209        3.9918810333        4.2029845699  CLST         323          1.0000000000
       968       323  TIP3  H1           -0.7624162922        3.1115780176        4.5368691152  CLST         323          1.0000000000
       969       323  TIP3  H2           -1.0636052187        3.9057063884        3.2282411262  CLST         323          1.0000000000
       970       324  TIP3  OH2         -11.0020550880        6.3718320254        1.5097082922  CLST         324          1.0000000000
       971       324  TIP3  H1          -10.9933154997        5.4506890827        1.9085207307  CLST         324          1.0000000000
       972       324  TIP3  H2          -10.3498781915        6.8244769126        2.1064542852  CLST         324          1.0000000000
       973       325  TIP3  OH2          -4.5675260769        0.9040919779        3.6367342833  CLST         325          1.0000000000
       974       325  TIP3  H1           -5.5391351382        0.8930407527        3.5820997615  CLST         325          1.0000000000
       975       325  TIP3  H2           -4.3240625216        1.7152510669        3.1711419848  CLST         325          1.0000000000
       976       326  TIP3  OH2           9.0899656836        8.6393896346       -2.6713847736  CLST         326          1.0000000000
       977       326  TIP3  H1            8.8828408849        7.7390821139       -2.4837368493  CLST         326          1.0000000000
       978       326  TIP3  H2            8.4977462288        8.7342082651       -3.4801658123  CLST         326          1.0000000000
       979       327  TIP3  OH2          10.4132673713       -3.6538593879      -13.0729396013  CLST         327          1.0000000000
       980       327  TIP3  H1           10.1678406607       -3.1932098323      -13.8546238773  CLST         327          1.0000000000
       981       327  TIP3  H2           10.0117173714       -3.1156264038      -12.3275670988  CLST         327          1.0000000000
       982       328  TIP3  OH2           2.2332745067        6.9365177150       -9.7660046059  CLST         328          1.0000000000
       983       328  TIP3  H1            2.2213379638        6.0408595489       -9.2885388176  CLST         328          1.0000000000
       984       328  TIP3  H2            3.1271568869        7.0840848285      -10.0437914355  CLST         328          1.0000000000
       985       329  TIP3  OH2           1.4000239328      -11.6483820802       -2.2626228954  CLST         329          1.0000000000
       986       329  TIP3  H1            1.5144203902      -10.8336688953       -2.7519067630  CLST         329          1.0000000000
       987       329  TIP3  H2            2.2881370444      -11.7264934219       -1.8115226095  CLST         329          1.0000000000
       988       330  TIP3  OH2          -9.4551048643       -0.9832665240        3.4118454985  CLST         330          1.0000000000
       989       330  TIP3  H1           -9.7000501603       -1.9096164206        3.3011060503  CLST         330          1.0000000000
       990       330  TIP3  H2          -10.0946741980       -0.5758156218        3.9647271381  CLST         330          1.0000000000
       991       331  TIP3  OH2          12.3679083482        9.7013159710       -9.0906891219  CLST         331          1.0000000000
       992       331  TIP3  H1           13.1155369691        9.8721016083       -9.6550539483  CLST         331          1.0000000000
       993       331  TIP3  H2           12.4342113714        8.7706809685       -8.9155120229  CLST         331          1.0000000000
       994       332  TIP3  OH2          11.2885615263       -1.3355723523       -4.5189144999  CLST         332          1.0000000000
       995       332  TIP3  H1           12.0918468698       -1.5932762234       -5.0303040643  CLST         332          1.0000000000
       996       332  TIP3  H2           11.6418554179       -0.4831951658       -4.1676861361  CLST         332          1.0000000000
       997       333  TIP3  OH2          10.5492892168      -14.2438707407        8.0064408972  CLST         333          1.0000000000
       998       333  TIP3  H1            9.6382601013      -14.2865187303        8.2713362859  CLST         333          1.0000000000
       999       333  TIP3  H2           10.5736820282      -14.2959412673        7.0678902323  CLST         333          1.0000000000
      1000       334  TIP3  OH2         -10.5806574824       -9.7040121866        9.1576589082  CLST         334          1.0000000000
      1001       334  TIP3  H1          -11.5396280659       -9.7743303979        8.7841314048  CLST         334          1.0000000000
      1002       334  TIP3  H2          -10.1679388072      -10.2276863606        8.4527602221  CLST         334          1.0000000000
      1003       335  TIP3  OH2           6.7732571295      -10.0762181838        1.4602757818  CLST         335          1.0000000000
      1004       335  TIP3  H1            6.8225613421      -10.4139731208        2.3581344274  CLST         335          1.0000000000
      1005       335  TIP3  H2            5.8220498999       -9.8424459826        1.3858579027  CLST         335          1.0000000000
      1006       336  TIP3  OH2          -9.3682874074       -3.7775597561       -3.6826555301  CLST         336          1.0000000000
      1007       336  TIP3  H1           -8.8725701121       -4.4440637741       -4.1607204956  CLST         336          1.0000000000
      1008       336  TIP3  H2           -8.7732618667       -3.0132826645       -3.8931318119  CLST         336          1.0000000000
      1009       337  TIP3  OH2          -1.5422139932       -4.9539854457        8.0489893215  CLST         337          1.0000000000
      1010       337  TIP3  H1           -1.0464417609       -4.8682494417        8.8525336833  CLST         337          1.0000000000
      1011       337  TIP3  H2           -1.8090897975       -4.0216826085        7.9493343711  CLST         337          1.0000000000
      1012       338  TIP3  OH2          -0.4404082061        2.7101724239       10.7147639336  CLST         338          1.0000000000
      1013       338  TIP3  H1           -0.5477143681        2.7776597998        9.7706103080  CLST         338          1.0000000000
      1014       338  TIP3  H2           -0.1229049711        1.8308573839       10.8249098150  CLST         338          1.0000000000
      1015       339  TIP3  OH2           7.9272225577        7.9379466568        2.8417018876  CLST         339          1.0000000000
      1016       339  TIP3  H1            7.6612154103        8.6749984681        3.4306721096  CLST         339          1.0000000000
      1017       339  TIP3  H2            7.2646175717        7.9376195955        2.1298292671  CLST         339          1.0000000000
      1018       340  TIP3  OH2          -4.6289474903      -11.7356828179      -11.1609428443  CLST         340          1.0000000000
      1019       340  TIP3  H1           -4.3444305963      -10.9278641414      -10.6565968916  CLST         340          1.0000000000
      1020       340  TIP3  H2           -4.2162090869      -12.4985105773      -10.7025200863  CLST         340          1.0000000000
      1021       341  TIP3  OH2          -6.7362083022        4.6020284863        9.3241475492  CLST         341          1.0000000000
      1022       341  TIP3  H1           -5.7620360023        4.4122976898        9.4531731018  CLST         341          1.0000000000
      1023       341  TIP3  H2           -7.2384189936        3.9131052552        9.7965148355  CLST         341          1.0000000000
      1024       342  TIP3  OH2          -4.4610368646      -11.0098769910       13.9652835426  CLST         342          1.0000000000
      1025       342  TIP3  H1           -5.1862243849      -10.9977514358       13.3486417925  CLST         342          1.0000000000
      1026       342  TIP3  H2           -4.9570707886      -10.7120855718       14.7622703797  CLST         342          1.0000000000
      1027       343  TIP3  OH2           1.3713219175       -8.9110731925       -9.9500706479  CLST         343          1.0000000000
      1028       343  TIP3  H1            1.1635144438       -8.0222268701      -10.3097645902  CLST         343          1.0000000000
      1029       343  TIP3  H2            1.9336947144       -9.3313838102      -10.5846771065  CLST         343          1.0000000000
      1030       344  TIP3  OH2           5.4975339374       -3.9988250703        6.3898357484  CLST         344          1.0000000000
      1031       344  TIP3  H1            4.8224021440       -4.4823428019        6.8405181510  CLST         344          1.0000000000
      1032       344  TIP3  H2            6.1234707857       -4.6694095620        6.1260659914  CLST         344          1.0000000000
      1033       345  TIP3  OH2          13.1600970627        7.2558814349        8.8080681871  CLST         345          1.0000000000
      1034       345  TIP3  H1           12.5741277935        6.7820352950        8.2763402418  CLST         345          1.0000000000
      1035       345  TIP3  H2           12.5716620545        7.3506559051        9.6380210295  CLST         345          1.0000000000
      1036       346  TIP3  OH2           9.4441129401        9.1940520811        0.9166816805  CLST         346          1.0000000000
      1037       346  TIP3  H1            9.7827430686        9.9859579426        1.3973144150  CLST         346          1.0000000000
      1038       346  TIP3  H2            9.0915735233        8.6445718028        1.6716687255  CLST         346          1.0000000000
      1039       347  TIP3  OH2          -4.8795609204        2.8556793034       -9.6062966454  CLST         347          1.0000000000
      1040       347  TIP3  H1           -5.6628356547        3.3411468342       -9.2216634395  CLST         347          1.0000000000
      1041       347  TIP3  H2           -4.2851849842        2.9083291449       -8.8676168197  CLST         347          1.0000000000
      1042       348  TIP3  OH2          -1.2678586327        6.1394883211        5.8284189219  CLST         348          1.0000000000
      1043       348  TIP3  H1           -1.3844240133        5.2482072141        5.3793378463  CLST         348          1.0000000000
      1044       348  TIP3  H2           -0.9007008152        6.5882257137        5.0348662889  CLST         348          1.0000000000
      1045       349  TIP3  OH2          -4.0285536685        4.9805957464       -2.6068675226  CLST         349          1.0000000000
      1046       349  TIP3  H1           -3.8534844551        4.9241645585       -3.5297450758  CLST         349          1.0000000000
      1047       349  TIP3  H2           -3.4584874801        5.7665926165       -2.3768016412  CLST         349          1.0000000000
      1048       350  TIP3  OH2          -2.5891533372        8.8437351694        5.2953783166  CLST         350          1.0000000000
      1049       350  TIP3  H1           -3.1272666918        8.6273307122        4.5336170453  CLST         350          1.0000000000
      1050       350  TIP3  H2           -2.5332050995        8.0334805203        5.8114143906  CLST         350          1.0000000000
      1051       351  TIP3  OH2           4.8512133411       -7.5796288986       -7.6995417207  CLST         351          1.0000000000
      1052       351  TIP3  H1            4.1180316946       -8.1840938783       -7.5774983090  CLST         351          1.0000000000
      1053       351  TIP3  H2            4.8529957000       -7.3381634179       -8.6595598133  CLST         351          1.0000000000
      1054       352  TIP3  OH2         -10.3873898097      -10.9824834439        1.6350494632  CLST         352          1.0000000000
      1055       352  TIP3  H1           -9.3855458429      -11.0787073132        1.6143408491  CLST         352          1.0000000000
      1056       352  TIP3  H2          -10.5478613756      -10.2772280489        0.9838603089  CLST         352          1.0000000000
      1057       353  TIP3  OH2          10.8609900223       -8.1068413008       -8.6210872332  CLST         353          1.0000000000
      1058       353  TIP3  H1            9.9209343936       -8.2241573935       -8.7452857353  CLST         353          1.0000000000
      1059       353  TIP3  H2           11.1229022425       -8.5964371559       -7.7995848924  CLST         353          1.0000000000
      1060       354  TIP3  OH2           6.8803078722      -10.5783851657        4.1068910865  CLST         354          1.0000000000
      1061       354  TIP3  H1            7.4800445826      -10.9035805961        4.7619604256  CLST         354          1.0000000000
      1062       354  TIP3  H2            6.4640526347       -9.7494766566        4.5059079942  CLST         354          1.0000000000
      1063       355  TIP3  OH2          -7.2250623374        9.1145383980       -8.7751157574  CLST         355          1.0000000000
      1064       355  TIP3  H1           -6.3881617960        9.5779133319       -8.9907403429  CLST         355          1.0000000000
      1065       355  TIP3  H2           -7.8920966935        9.6388093169       -9.2037851634  CLST         355          1.0000000000
      1066       356  TIP3  OH2          12.4970636061        0.9849076497       -1.9635150014  CLST         356          1.0000000000
      1067       356  TIP3  H1           11.5639631444        0.7139892610       -2.1922401912  CLST         356          1.0000000000
      1068       356  TIP3  H2           12.6730781877        0.4347844908       -1.2459749201  CLST         356          1.0000000000
      1069       357  TIP3  OH2          -0.6594185628       -0.5504506485       -1.8209328512  CLST         357          1.0000000000
      1070       357  TIP3  H1            0.1317220811       -1.0625935884       -2.1473736547  CLST         357          1.0000000000
      1071       357  TIP3  H2           -0.8497340957       -0.1904156053       -2.6725584472  CLST         357          1.0000000000
      1072       358  TIP3  OH2          -5.5798514785        6.9771059322       -7.6333595715  CLST         358          1.0000000000
      1073       358  TIP3  H1           -6.2948187023        7.4431133857       -8.1025723065  CLST         358          1.0000000000
      1074       358  TIP3  H2           -6.1155857409        6.6374394953       -6.9030452317  CLST         358          1.0000000000
      1075       359  TIP3  OH2          -5.1098011758       12.1503218289        6.0789649084  CLST         359          1.0000000000
      1076       359  TIP3  H1           -5.4612847744       11.8845728870        5.2269851157  CLST         359          1.0000000000
      1077       359  TIP3  H2           -4.2155998109       12.3724570061        5.8696099507  CLST         359          1.0000000000
      1078       360  TIP3  OH2          -6.8866023956        5.8432957220       -3.2805243207  CLST         360          1.0000000000
      1079       360  TIP3  H1           -7.1645131053        6.7273725254       -2.8973886661  CLST         360          1.0000000000
      1080       360  TIP3  H2           -6.0240436717        5.7142557383       -2.9321931966  CLST         360          1.0000000000
      1081       361  TIP3  OH2          -1.6311304376       -0.9487220994        9.9042370059  CLST         361          1.0000000000
      1082       361  TIP3  H1           -1.5793648167       -0.4993747582       10.7719133146  CLST         361          1.0000000000
      1083       361  TIP3  H2           -1.6970030908       -1.7975432916       10.3278047629  CLST         361          1.0000000000
      1084       362  TIP3  OH2         -10.5676368177        2.7802426337        0.4977585116  CLST         362          1.0000000000
      1085       362  TIP3  H1          -10.6730592554        3.2884546135       -0.3829049299  CLST         362          1.0000000000
      1086       362  TIP3  H2          -11.3215873087        2.1525893576        0.3659505068  CLST         362          1.0000000000
      1087       363  TIP3  OH2          10.5912273741        2.6505001323       10.1464179137  CLST         363          1.0000000000
      1088       363  TIP3  H1           10.5515583020        1.7986671071        9.7313307098  CLST         363          1.0000000000
      1089       363  TIP3  H2           11.3774220681        2.6931563124       10.7237250080  CLST         363          1.0000000000
      1090       364  TIP3  OH2           7.6231671963       -5.6079777948       -6.2706691668  CLST         364          1.0000000000
      1091       364  TIP3  H1            6.8596898397       -5.1837696701       -6.7426288098  CLST         364          1.0000000000
      1092       364  TIP3  H2            8.2274685596       -5.6093999433       -6.9947190705  CLST         364          1.0000000000
      1093       365  TIP3  OH2          -6.1774701534       -6.7671230422        2.6621268522  CLST         365          1.0000000000
      1094       365  TIP3  H1           -6.4843571233       -6.0493333290        2.1121509134  CLST         365          1.0000000000
      1095       365  TIP3  H2           -6.9796614677       -7.3381632833        2.7447467558  CLST         365          1.0000000000
      1096       366  TIP3  OH2           1.9699219503       -1.4022035627       -2.9816005833  CLST         366          1.0000000000
      1097       366  TIP3  H1            2.8618622506       -1.4653399238       -2.5703639829  CLST         366          1.0000000000
      1098       366  TIP3  H2            2.0170979199       -0.9630513165       -3.8361862412  CLST         366          1.0000000000
      1099       367  TIP3  OH2          -5.2292766088       11.7289830695       12.3916798467  CLST         367          1.0000000000
      1100       367  TIP3  H1           -6.1932795775       11.6507007412       12.3318198081  CLST         367          1.0000000000
      1101       367  TIP3  H2           -5.0006863308       12.5551119420       12.8129358878  CLST         367          1.0000000000
      1102       368  TIP3  OH2          -2.5587373288        6.5823703792        1.0482765620  CLST         368          1.0000000000
      1103       368  TIP3  H1           -2.7939608865        7.2257197999        0.4202280360  CLST         368          1.0000000000
      1104       368  TIP3  H2           -2.6994957172        7.1613972780        1.8459216153  CLST         368          1.0000000000
      1105       369  TIP3  OH2         -11.5531864314       -1.7692565628       -6.5068755498  CLST         369          1.0000000000
      1106       369  TIP3  H1          -10.5983046237       -2.0417931455       -6.3782901066  CLST         369          1.0000000000
      1107       369  TIP3  H2          -11.7801145255       -2.2162898140       -7.3433419593  CLST         369          1.0000000000
      1108       370  TIP3  OH2         -12.0768144010        5.5835559503      -11.6360997426  CLST         370          1.0000000000
      1109       370  TIP3  H1          -12.4624285902        5.0109023429      -12.2920091094  CLST         370          1.0000000000
      1110       370  TIP3  H2          -12.7170108748        5.6725409155      -10.9249902507  CLST         370          1.0000000000
      1111       371  TIP3  OH2           2.1992917417        7.9901441882        5.8805448115  CLST         371          1.0000000000
      1112       371  TIP3  H1            2.0038129472        7.5987880227        6.7238788736  CLST         371          1.0000000000
      1113       371  TIP3  H2            3.1630453985        7.9099412451        5.7736883596  CLST         371          1.0000000000
      1114       372  TIP3  OH2           8.1176323458       -7.4031514694        9.0093613027  CLST         372          1.0000000000
      1115       372  TIP3  H1            8.6302435074       -7.3435989848        8.1891936010  CLST         372          1.0000000000
      1116       372  TIP3  H2            8.8703031828       -7.6726057643        9.6766318019  CLST         372          1.0000000000
      1117       373  TIP3  OH2          11.0370398873       -0.4400543706        6.4506263097  CLST         373          1.0000000000
      1118       373  TIP3  H1           11.2243228257        0.3490428467        5.9158524192  CLST         373          1.0000000000
      1119       373  TIP3  H2           10.2523287444       -0.8792451906        6.0629245236  CLST         373          1.0000000000
      1120       374  TIP3  OH2          -9.3922723364        4.7701822031      -12.1812252272  CLST         374          1.0000000000
      1121       374  TIP3  H1           -9.6602886819        5.2870798257      -12.9711312080  CLST         374          1.0000000000
      1122       374  TIP3  H2          -10.1874193489        4.7906351655      -11.6836425798  CLST         374          1.0000000000
      1123       375  TIP3  OH2           9.8570018643       -5.4361234734       -2.7846526303  CLST         375          1.0000000000
      1124       375  TIP3  H1           10.3400783594       -5.1284585592       -3.5256489912  CLST         375          1.0000000000
      1125       375  TIP3  H2            9.8854678011       -6.3678762404       -2.9784116082  CLST         375          1.0000000000
      1126       376  TIP3  OH2          -2.2513713606      -11.1788801856       12.0648727146  CLST         376          1.0000000000
      1127       376  TIP3  H1           -2.8187409873      -11.5802697318       12.7371845415  CLST         376          1.0000000000
      1128       376  TIP3  H2           -2.9089673972      -10.8937501835       11.4456606079  CLST         376          1.0000000000
      1129       377  TIP3  OH2          -9.9897075874       12.9741407853       10.4294717070  CLST         377          1.0000000000
      1130       377  TIP3  H1           -9.1940538985       12.4656345586       10.5363521782  CLST         377          1.0000000000
      1131       377  TIP3  H2           -9.8666420482       13.4082655069        9.5277796687  CLST         377          1.0000000000
      1132       378  TIP3  OH2           2.0428552287       -7.9172079229        7.2534443880  CLST         378          1.0000000000
      1133       378  TIP3  H1            2.1269557343       -7.0792824924        7.6491675562  CLST         378          1.0000000000
      1134       378  TIP3  H2            1.4682310295       -8.4413037950        7.8387062946  CLST         378          1.0000000000
      1135       379  TIP3  OH2          -9.4100776178        9.3444072697       -1.1441395110  CLST         379          1.0000000000
      1136       379  TIP3  H1           -8.9983964900        9.3440580115       -0.2878372352  CLST         379          1.0000000000
      1137       379  TIP3  H2           -9.5263851490       10.2705755513       -1.3573465949  CLST         379          1.0000000000
      1138       380  TIP3  OH2           2.9807765920       -4.1787458437      -11.2328709541  CLST         380          1.0000000000
      1139       380  TIP3  H1            2.5161807710       -3.3956172639      -11.6056727557  CLST         380          1.0000000000
      1140       380  TIP3  H2            3.4680264053       -4.5420085178      -12.0247134001  CLST         380          1.0000000000
      1141       381  TIP3  OH2          10.0677198266        4.2090122706        3.3219124374  CLST         381          1.0000000000
      1142       381  TIP3  H1            9.4423191057        4.8291085665        3.7620200388  CLST         381          1.0000000000
      1143       381  TIP3  H2           10.7230594470        4.8313203674        3.1036970051  CLST         381          1.0000000000
      1144       382  TIP3  OH2           1.9853874111       -5.3382416881        5.6502958826  CLST         382          1.0000000000
      1145       382  TIP3  H1            2.5732876441       -5.3573492231        6.4244114012  CLST         382          1.0000000000
      1146       382  TIP3  H2            2.4797970803       -6.0493208536        5.0808045613  CLST         382          1.0000000000
      1147       383  TIP3  OH2          10.1577936345        8.9260331890        4.7123603591  CLST         383          1.0000000000
      1148       383  TIP3  H1            9.3727327277        9.0311838175        4.2300157897  CLST         383          1.0000000000
      1149       383  TIP3  H2           10.1668976130        9.8788442375        4.9653222296  CLST         383          1.0000000000
      1150       384  TIP3  OH2          -3.2285460979       -1.7114437787       -8.2744540288  CLST         384          1.0000000000
      1151       384  TIP3  H1           -2.8803473302       -2.6212828503       -8.3059148724  CLST         384          1.0000000000
      1152       384  TIP3  H2           -2.7664353081       -1.2473589861       -7.5622080733  CLST         384          1.0000000000
      1153       385  TIP3  OH2           3.7265840657      -11.7441422918       -0.6367078071  CLST         385          1.0000000000
      1154       385  TIP3  H1            4.6539266121      -12.1142050790       -0.5924019598  CLST         385          1.0000000000
      1155       385  TIP3  H2            3.8496493599      -10.8957114822       -0.2225646941  CLST         385          1.0000000000
      1156       386  TIP3  OH2          -4.2772708151        9.3260938771       -6.1802247652  CLST         386          1.0000000000
      1157       386  TIP3  H1           -4.7116638509        8.4877845786       -6.3792987448  CLST         386          1.0000000000
      1158       386  TIP3  H2           -4.2971435194        9.8151765665       -6.9864414701  CLST         386          1.0000000000
      1159       387  TIP3  OH2          -9.7820451416       10.6108723773        2.7255772778  CLST         387          1.0000000000
      1160       387  TIP3  H1          -10.6240752630       10.3601309613        2.2736362868  CLST         387          1.0000000000
      1161       387  TIP3  H2           -9.1929594860       10.3114027880        2.0973408194  CLST         387          1.0000000000
      1162       388  TIP3  OH2          -1.7485523707      -12.2810125851        5.9817458611  CLST         388          1.0000000000
      1163       388  TIP3  H1           -2.3726156235      -11.5705079142        5.6876830917  CLST         388          1.0000000000
      1164       388  TIP3  H2           -1.7325953887      -12.1831366364        6.9565191943  CLST         388          1.0000000000
      1165       389  TIP3  OH2          -8.1766578076        3.3870297820       -3.6472716522  CLST         389          1.0000000000
      1166       389  TIP3  H1           -7.5943892706        4.1302415840       -3.5593155216  CLST         389          1.0000000000
      1167       389  TIP3  H2           -8.9354061934        3.7959474049       -3.2434573534  CLST         389          1.0000000000
      1168       390  TIP3  OH2          -5.8736984946       -3.9792981552        4.5395342984  CLST         390          1.0000000000
      1169       390  TIP3  H1           -5.4937239469       -3.1047807972        4.4546521433  CLST         390          1.0000000000
      1170       390  TIP3  H2           -5.0506882587       -4.4212429343        4.3574858889  CLST         390          1.0000000000
      1171       391  TIP3  OH2          -8.8086432025       -8.8901288556       -6.1903280770  CLST         391          1.0000000000
      1172       391  TIP3  H1           -9.1761037373       -9.5949523711       -6.7668993517  CLST         391          1.0000000000
      1173       391  TIP3  H2           -8.0956790594       -9.3474474069       -5.6977457717  CLST         391          1.0000000000
      1174       392  TIP3  OH2           0.9132992745       -1.9275338833       10.0712625657  CLST         392          1.0000000000
      1175       392  TIP3  H1            0.5903983505       -2.8064486167        9.9680590668  CLST         392          1.0000000000
      1176       392  TIP3  H2            0.1142763919       -1.4444909211        9.8472974890  CLST         392          1.0000000000
      1177       393  TIP3  OH2          10.8744505590      -12.3012256803       -0.8679361613  CLST         393          1.0000000000
      1178       393  TIP3  H1           11.1751452521      -11.3742754440       -0.6783331010  CLST         393          1.0000000000
      1179       393  TIP3  H2           11.7345845043      -12.6240128247       -1.2148841133  CLST         393          1.0000000000
      1180       394  TIP3  OH2           0.5245730233       11.9245844537       -8.5291660150  CLST         394          1.0000000000
      1181       394  TIP3  H1            0.8625748020       12.1757386776       -7.6594920871  CLST         394          1.0000000000
      1182       394  TIP3  H2            0.7222680834       10.9775863262       -8.5077053992  CLST         394          1.0000000000
      1183       395  TIP3  OH2           6.8876608203        7.4752599562       -4.4364423653  CLST         395          1.0000000000
      1184       395  TIP3  H1            6.0993118959        8.0061402699       -4.6647304389  CLST         395          1.0000000000
      1185       395  TIP3  H2            6.8064208096        6.8948099969       -5.1714308491  CLST         395          1.0000000000
      1186       396  TIP3  OH2          -1.0259833732       -9.9816215613       -8.9902457737  CLST         396          1.0000000000
      1187       396  TIP3  H1           -1.0584927399       -9.9413933669       -8.0100994350  CLST         396          1.0000000000
      1188       396  TIP3  H2           -0.1782113174       -9.5725553536       -9.1491097442  CLST         396          1.0000000000
      1189       397  TIP3  OH2          11.3572492593        7.1279219506       -8.8992120434  CLST         397          1.0000000000
      1190       397  TIP3  H1           11.3241076546        6.2836684422       -8.3622047008  CLST         397          1.0000000000
      1191       397  TIP3  H2           10.5616244429        7.6243016526       -8.5910152970  CLST         397          1.0000000000
      1192       398  TIP3  OH2          10.6152487643        7.7815178287       -4.8766056503  CLST         398          1.0000000000
      1193       398  TIP3  H1           10.3731118593        8.4416428471       -4.2005712084  CLST         398          1.0000000000
      1194       398  TIP3  H2           11.2964554507        7.2620028030       -4.4440385916  CLST         398          1.0000000000
      1195       399  TIP3  OH2           1.7363735117       11.0532563766        4.9414387256  CLST         399          1.0000000000
      1196       399  TIP3  H1            1.1918763785       10.2633979878        5.1286135267  CLST         399          1.0000000000
      1197       399  TIP3  H2            2.3889547788       11.1995298664        5.6634303597  CLST         399          1.0000000000
      1198       400  TIP3  OH2           3.9651679611       -2.9250037991       -4.9800574748  CLST         400          1.0000000000
      1199       400  TIP3  H1            4.7565149218       -2.9131157656       -4.4032216349  CLST         400          1.0000000000
      1200       400  TIP3  H2            4.4073736850       -3.3676059909       -5.7246828337  CLST         400          1.0000000000
      1201       401  TIP3  OH2         -15.3886137434       10.0290357927        5.5142124306  CLST         401          1.0000000000
      1202       401  TIP3  H1          -14.7695740156       10.5482943893        6.0845719026  CLST         401          1.0000000000
      1203       401  TIP3  H2          -15.5254047644        9.4154891575        6.2095439020  CLST         401          1.0000000000
      1204       402  TIP3  OH2           1.9388048996       -1.6531814953       12.8763975765  CLST         402          1.0000000000
      1205       402  TIP3  H1            1.8524607812       -2.5514607064       13.0772070617  CLST         402          1.0000000000
      1206       402  TIP3  H2            1.7500899163       -1.6592084843       11.9208539643  CLST         402          1.0000000000
      1207       403  TIP3  OH2          -1.9972188934       -7.0317840087       -0.8316420870  CLST         403          1.0000000000
      1208       403  TIP3  H1           -2.1728540326       -6.4762850312       -1.5568827151  CLST         403          1.0000000000
      1209       403  TIP3  H2           -1.6609503530       -7.8819484217       -1.1948422105  CLST         403          1.0000000000
      1210       404  TIP3  OH2          -4.8592261551       -2.3359715760        9.3344857098  CLST         404          1.0000000000
      1211       404  TIP3  H1           -5.1177359411       -2.6302494268       10.2275538193  CLST         404          1.0000000000
      1212       404  TIP3  H2           -5.1776027949       -3.0913596316        8.7934567029  CLST         404          1.0000000000
      1213       405  TIP3  OH2         -11.9469006929        7.2068094364       11.2685980070  CLST         405          1.0000000000
      1214       405  TIP3  H1          -11.9442297948        6.2595707090       11.1157420828  CLST         405          1.0000000000
      1215       405  TIP3  H2          -12.8349291986        7.3866687672       11.5904900324  CLST         405          1.0000000000
      1216       406  TIP3  OH2           1.0755566678        7.9147746320      -12.1719367242  CLST         406          1.0000000000
      1217       406  TIP3  H1            0.8797847169        8.8381778180      -12.2987815877  CLST         406          1.0000000000
      1218       406  TIP3  H2            1.3585638875        7.8390303262      -11.2066591387  CLST         406          1.0000000000
      1219       407  TIP3  OH2          10.4030665794      -13.3776360511        5.1449721927  CLST         407          1.0000000000
      1220       407  TIP3  H1           10.2233891804      -13.5463448860        4.1781028702  CLST         407          1.0000000000
      1221       407  TIP3  H2           11.2923102104      -13.0381890790        5.1548842565  CLST         407          1.0000000000
      1222       408  TIP3  OH2          -2.9755731531      -11.6295848425        1.9167258011  CLST         408          1.0000000000
      1223       408  TIP3  H1           -2.1713422513      -11.0357274848        1.7878824702  CLST         408          1.0000000000
      1224       408  TIP3  H2           -2.5916931376      -12.4339314779        2.3166376776  CLST         408          1.0000000000
      1225       409  TIP3  OH2           1.1700729444       -9.6326043502        9.6804599239  CLST         409          1.0000000000
      1226       409  TIP3  H1            0.7989288951       -9.1034157597       10.4038691393  CLST         409          1.0000000000
      1227       409  TIP3  H2            1.6321045992      -10.3660431172       10.1990198446  CLST         409          1.0000000000
      1228       410  TIP3  OH2           9.7472206403       -7.0763272639       -5.2486798093  CLST         410          1.0000000000
      1229       410  TIP3  H1            8.8222988946       -6.8584235821       -5.4692969917  CLST         410          1.0000000000
      1230       410  TIP3  H2           10.2194422531       -6.2737891108       -5.6132241257  CLST         410          1.0000000000
      1231       411  TIP3  OH2          -9.9296560902       -2.2080826672       -1.2759752627  CLST         411          1.0000000000
      1232       411  TIP3  H1           -9.1628866335       -2.3749115291       -0.6683507061  CLST         411          1.0000000000
      1233       411  TIP3  H2           -9.8945006740       -2.9781255233       -1.8981358054  CLST         411          1.0000000000
      1234       412  TIP3  OH2           6.7744405996      -10.5562495360      -11.9865580671  CLST         412          1.0000000000
      1235       412  TIP3  H1            5.9690471317      -10.8520511085      -11.5730833990  CLST         412          1.0000000000
      1236       412  TIP3  H2            7.4386508156      -11.2087372179      -11.7566110239  CLST         412          1.0000000000
      1237       413  TIP3  OH2           6.9606699098       13.0637546945        0.2501209684  CLST         413          1.0000000000
      1238       413  TIP3  H1            7.4719521372       12.3782761108       -0.1896633853  CLST         413          1.0000000000
      1239       413  TIP3  H2            7.7251842567       13.5621186969        0.6010584047  CLST         413          1.0000000000
      1240       414  TIP3  OH2           1.4478851495       -2.3724563731      -12.3983782250  CLST         414          1.0000000000
      1241       414  TIP3  H1            0.4983672342       -2.1056243996      -12.1527595121  CLST         414          1.0000000000
      1242       414  TIP3  H2            1.4353932258       -2.5468799284      -13.3330764157  CLST         414          1.0000000000
      1243       415  TIP3  OH2           4.1089707533        5.3582850089       -8.3718562218  CLST         415          1.0000000000
      1244       415  TIP3  H1            3.4199760886        4.7253423525       -7.9698193245  CLST         415          1.0000000000
      1245       415  TIP3  H2            4.7023634074        4.6561037336       -8.7768981991  CLST         415          1.0000000000
      1246       416  TIP3  OH2           5.5471134510       12.3387529904       -7.7912510030  CLST         416          1.0000000000
      1247       416  TIP3  H1            5.1102809661       13.0302983724       -8.2106442181  CLST         416          1.0000000000
      1248       416  TIP3  H2            6.4052157772       12.3545153014       -8.2429953279  CLST         416          1.0000000000
      1249       417  TIP3  OH2          12.6627388701      -11.1921190359        2.6660447606  CLST         417          1.0000000000
      1250       417  TIP3  H1           11.8206132457      -11.5435842522        2.3318007745  CLST         417          1.0000000000
      1251       417  TIP3  H2           12.9246824091      -10.4156821362        2.0853231693  CLST         417          1.0000000000
      1252       418  TIP3  OH2          -9.1596994059       -1.6385513285        8.3057040730  CLST         418          1.0000000000
      1253       418  TIP3  H1           -8.7960396568       -1.3328052306        7.4205201539  CLST         418          1.0000000000
      1254       418  TIP3  H2           -8.8327304429       -1.0395162392        8.9718952813  CLST         418          1.0000000000
      1255       419  TIP3  OH2          15.4982335012        0.3983809523       -6.0960321339  CLST         419          1.0000000000
      1256       419  TIP3  H1           14.8936995266        0.7892813507       -5.4053158939  CLST         419          1.0000000000
      1257       419  TIP3  H2           16.2533447840        0.9201847254       -5.8868258477  CLST         419          1.0000000000
      1258       420  TIP3  OH2          -8.2164290346       -8.2589675238        3.5287980149  CLST         420          1.0000000000
      1259       420  TIP3  H1           -8.9862636308       -7.6811055267        3.3105815749  CLST         420          1.0000000000
      1260       420  TIP3  H2           -8.6124430688       -9.1221387683        3.4412286749  CLST         420          1.0000000000
      1261       421  TIP3  OH2           3.5215284672       -6.3133067869      -13.3382323966  CLST         421          1.0000000000
      1262       421  TIP3  H1            4.4125055998       -6.5629294574      -13.2563201647  CLST         421          1.0000000000
      1263       421  TIP3  H2            3.0480115141       -7.1652912534      -13.3795454108  CLST         421          1.0000000000
      1264       422  TIP3  OH2          -1.8692418301       -9.4943896465       -1.7761605208  CLST         422          1.0000000000
      1265       422  TIP3  H1           -1.2298924739      -10.1989221948       -1.9857456177  CLST         422          1.0000000000
      1266       422  TIP3  H2           -2.7380004076      -10.0062147409       -1.7902584871  CLST         422          1.0000000000
      1267       423  TIP3  OH2           1.7843098395        4.8725688444       -3.8379267428  CLST         423          1.0000000000
      1268       423  TIP3  H1            2.5552342501        5.1977221763       -4.3160333858  CLST         423          1.0000000000
      1269       423  TIP3  H2            2.2287998847        4.3061737734       -3.1607166427  CLST         423          1.0000000000
      1270       424  TIP3  OH2          -9.0637958558        4.4127202851        4.3592226949  CLST         424          1.0000000000
      1271       424  TIP3  H1           -9.0019431718        3.7197579713        3.6773511845  CLST         424          1.0000000000
      1272       424  TIP3  H2           -8.2468156904        4.8870142926        4.2497795333  CLST         424          1.0000000000
      1273       425  TIP3  OH2           8.1594821331      -12.6004689392        8.3473447110  CLST         425          1.0000000000
      1274       425  TIP3  H1            8.3249974926      -12.6964190200        7.3739919527  CLST         425          1.0000000000
      1275       425  TIP3  H2            7.8501806435      -11.7095031100        8.4365941214  CLST         425          1.0000000000
      1276       426  TIP3  OH2           8.2961789110        2.2017529690        8.3921836081  CLST         426          1.0000000000
      1277       426  TIP3  H1            9.1616000856        1.9168937213        8.5923856536  CLST         426          1.0000000000
      1278       426  TIP3  H2            8.4553012833        3.0807499215        8.1279836602  CLST         426          1.0000000000
      1279       427  TIP3  OH2          11.5057175905        7.6140416456       10.9923002795  CLST         427          1.0000000000
      1280       427  TIP3  H1           11.2398515679        8.0143672132       11.8573867293  CLST         427          1.0000000000
      1281       427  TIP3  H2           10.6979881518        7.0909257223       10.6969305894  CLST         427          1.0000000000
      1282       428  TIP3  OH2          12.4740500079        7.7150189658        1.1611150816  CLST         428          1.0000000000
      1283       428  TIP3  H1           12.2946593318        8.3847888169        0.4621320720  CLST         428          1.0000000000
      1284       428  TIP3  H2           13.3958272021        7.5504156996        0.8976837189  CLST         428          1.0000000000
      1285       429  TIP3  OH2          11.8630602410       -9.7688738597       -0.7176415204  CLST         429          1.0000000000
      1286       429  TIP3  H1           12.4323998343       -9.3690264081       -0.0740044822  CLST         429          1.0000000000
      1287       429  TIP3  H2           11.6718299981       -9.0662635023       -1.3438030565  CLST         429          1.0000000000
      1288       430  TIP3  OH2           9.7196003023       -6.6387834574        3.4770886293  CLST         430          1.0000000000
      1289       430  TIP3  H1            9.7657240015       -7.3338683893        2.7495885326  CLST         430          1.0000000000
      1290       430  TIP3  H2           10.6547876937       -6.2759091023        3.4015599533  CLST         430          1.0000000000
      1291       431  TIP3  OH2         -12.7330809156        9.3840762528       -2.5561921244  CLST         431          1.0000000000
      1292       431  TIP3  H1          -13.5371084839        9.7559474722       -2.8107068494  CLST         431          1.0000000000
      1293       431  TIP3  H2          -12.9517871906        8.9362903156       -1.7535849116  CLST         431          1.0000000000
      1294       432  TIP3  OH2           5.4089813771        8.4676307604      -10.0173009594  CLST         432          1.0000000000
      1295       432  TIP3  H1            5.5602423802        8.8247809876       -9.1546800979  CLST         432          1.0000000000
      1296       432  TIP3  H2            4.7085491188        9.0510383938      -10.3150475221  CLST         432          1.0000000000
      1297       433  TIP3  OH2          -0.7733905422        8.1119962693        7.7876686784  CLST         433          1.0000000000
      1298       433  TIP3  H1           -1.5920535339        8.6032818009        7.9850970642  CLST         433          1.0000000000
      1299       433  TIP3  H2           -1.1486682667        7.5598920363        7.0736169442  CLST         433          1.0000000000
      1300       434  TIP3  OH2          -7.3492995887        0.6650433205        3.8793954820  CLST         434          1.0000000000
      1301       434  TIP3  H1           -7.7408808608        1.3361219053        3.2764647656  CLST         434          1.0000000000
      1302       434  TIP3  H2           -8.0182678612       -0.0616025207        3.7324626883  CLST         434          1.0000000000
      1303       435  TIP3  OH2           9.8749769878       -0.3564967922       -7.2144062052  CLST         435          1.0000000000
      1304       435  TIP3  H1            9.4423080021       -0.1674694619       -6.3458011674  CLST         435          1.0000000000
      1305       435  TIP3  H2           10.6497125650        0.1656377415       -7.1866955417  CLST         435          1.0000000000
      1306       436  TIP3  OH2           3.6813519802       10.5938478177       -9.0204768536  CLST         436          1.0000000000
      1307       436  TIP3  H1            3.9200417003       11.0832160662       -8.2419808699  CLST         436          1.0000000000
      1308       436  TIP3  H2            2.9003958771       10.0972193073       -8.7073548455  CLST         436          1.0000000000
      1309       437  TIP3  OH2          -8.4574832985       -0.8393860434       -7.9766181603  CLST         437          1.0000000000
      1310       437  TIP3  H1           -8.6828666295       -0.5126134233       -8.8575201330  CLST         437          1.0000000000
      1311       437  TIP3  H2           -7.5480113538       -0.5679081539       -7.7860988939  CLST         437          1.0000000000
      1312       438  TIP3  OH2          -3.2785589945        5.4586292972       -8.0314144820  CLST         438          1.0000000000
      1313       438  TIP3  H1           -4.1434955065        5.9609313407       -8.0179710323  CLST         438          1.0000000000
      1314       438  TIP3  H2           -3.1205116834        5.7741030553       -8.9292894562  CLST         438          1.0000000000
      1315       439  TIP3  OH2          14.4172021988        1.5688973444       -4.0276273928  CLST         439          1.0000000000
      1316       439  TIP3  H1           13.8144595567        2.2783224429       -4.3482192034  CLST         439          1.0000000000
      1317       439  TIP3  H2           13.9493001204        1.2854835020       -3.2187502130  CLST         439          1.0000000000
      1318       440  TIP3  OH2           1.2242359410      -12.9527985451      -11.2246561441  CLST         440          1.0000000000
      1319       440  TIP3  H1            0.2891255259      -12.5780687016      -11.2488528564  CLST         440          1.0000000000
      1320       440  TIP3  H2            1.1553450353      -13.8776926107      -11.0473597190  CLST         440          1.0000000000
      1321       441  TIP3  OH2          -1.5480443205       -4.2163427665        3.1769833929  CLST         441          1.0000000000
      1322       441  TIP3  H1           -1.7587300342       -3.3354507160        3.3601322712  CLST         441          1.0000000000
      1323       441  TIP3  H2           -1.3745975690       -4.6932876513        4.0706704740  CLST         441          1.0000000000
      1324       442  TIP3  OH2           3.2141999639       -9.9024906451       -8.0256316693  CLST         442          1.0000000000
      1325       442  TIP3  H1            3.9437591214      -10.2094055492       -8.6204469474  CLST         442          1.0000000000
      1326       442  TIP3  H2            2.5414615003       -9.5832740053       -8.6158786895  CLST         442          1.0000000000
      1327       443  TIP3  OH2           1.2305393310       10.3526039705      -12.9008713800  CLST         443          1.0000000000
      1328       443  TIP3  H1            1.6445505680       11.2123302940      -12.6042128730  CLST         443          1.0000000000
      1329       443  TIP3  H2            2.0853664506        9.8513504622      -12.9719420807  CLST         443          1.0000000000
      1330       444  TIP3  OH2          -7.9586259946        1.2901022900       -1.7362657967  CLST         444          1.0000000000
      1331       444  TIP3  H1           -7.9787040621        2.0386869558       -2.3906018148  CLST         444          1.0000000000
      1332       444  TIP3  H2           -7.4314293715        1.7693043376       -1.0555589141  CLST         444          1.0000000000
      1333       445  TIP3  OH2         -11.4431006954       -5.2678808253        6.1798201457  CLST         445          1.0000000000
      1334       445  TIP3  H1          -11.4598303282       -4.3596186082        5.9392964423  CLST         445          1.0000000000
      1335       445  TIP3  H2          -11.3858316616       -5.1901645166        7.1446951042  CLST         445          1.0000000000
      1336       446  TIP3  OH2          -2.9250480391        4.7043979639       -5.3642332034  CLST         446          1.0000000000
      1337       446  TIP3  H1           -2.9464960270        4.9466924234       -6.3355976039  CLST         446          1.0000000000
      1338       446  TIP3  H2           -2.0165512290        5.1030800371       -5.2317962965  CLST         446          1.0000000000
      1339       447  TIP3  OH2          -5.0723339838      -12.6428234537       -3.8103560513  CLST         447          1.0000000000
      1340       447  TIP3  H1           -5.1914531368      -13.5635414808       -3.5758285504  CLST         447          1.0000000000
      1341       447  TIP3  H2           -4.6213778435      -12.3556676051       -2.9840106062  CLST         447          1.0000000000
      1342       448  TIP3  OH2           7.2881884514        9.6992551449        4.8018790545  CLST         448          1.0000000000
      1343       448  TIP3  H1            7.5476123193        9.5935097225        5.7279517977  CLST         448          1.0000000000
      1344       448  TIP3  H2            6.5401133891       10.3587795837        4.9011320599  CLST         448          1.0000000000
      1345       449  TIP3  OH2           4.2326918323        5.1134101548        8.4172273266  CLST         449          1.0000000000
      1346       449  TIP3  H1            4.8253892196        4.5783500767        8.9124560724  CLST         449          1.0000000000
      1347       449  TIP3  H2            4.0269471141        4.6390605038        7.5617424534  CLST         449          1.0000000000
      1348       450  TIP3  OH2          -4.0831784635        0.4422793022       -1.9325516651  CLST         450          1.0000000000
      1349       450  TIP3  H1           -3.9814360377        1.2680780644       -2.4061239270  CLST         450          1.0000000000
      1350       450  TIP3  H2           -3.2242646441        0.3387547566       -1.5037144289  CLST         450          1.0000000000
      1351       451  TIP3  OH2          13.7795009652       -1.7854969008       -5.8666672432  CLST         451          1.0000000000
      1352       451  TIP3  H1           14.3351349650       -2.4400083445       -5.3993670501  CLST         451          1.0000000000
      1353       451  TIP3  H2           14.4126130696       -1.0799360973       -5.9397178242  CLST         451          1.0000000000
      1354       452  TIP3  OH2           8.3744605733        4.9865193936        8.0162155583  CLST         452          1.0000000000
      1355       452  TIP3  H1            7.6555086340        5.6482535147        8.0360157057  CLST         452          1.0000000000
      1356       452  TIP3  H2            9.0952310112        5.4986610721        7.5510541636  CLST         452          1.0000000000
      1357       453  TIP3  OH2           6.9272015279        2.8388956403       -6.0103571167  CLST         453          1.0000000000
      1358       453  TIP3  H1            6.2748846533        2.5271133757       -5.3661284172  CLST         453          1.0000000000
      1359       453  TIP3  H2            6.4935035029        2.6826336325       -6.8293558720  CLST         453          1.0000000000
      1360       454  TIP3  OH2           1.1339014153        5.4367459098        1.8822136201  CLST         454          1.0000000000
      1361       454  TIP3  H1            0.2032729629        5.1939452510        1.6577957612  CLST         454          1.0000000000
      1362       454  TIP3  H2            0.9676275799        6.0578201093        2.6313828495  CLST         454          1.0000000000
      1363       455  TIP3  OH2          -1.1511606935        0.8192074158      -10.3746908825  CLST         455          1.0000000000
      1364       455  TIP3  H1           -1.9077170589        1.1800258155       -9.9057477445  CLST         455          1.0000000000
      1365       455  TIP3  H2           -0.6035721376        1.5830721522      -10.2749692166  CLST         455          1.0000000000
      1366       456  TIP3  OH2           5.2558716355       11.3736175175        5.1794800672  CLST         456          1.0000000000
      1367       456  TIP3  H1            4.6036489607       11.4902141630        4.4478379985  CLST         456          1.0000000000
      1368       456  TIP3  H2            4.6633163941       11.2803874616        6.0148783576  CLST         456          1.0000000000
      1369       457  TIP3  OH2          -4.8995390467       -7.6618277300        4.8343185675  CLST         457          1.0000000000
      1370       457  TIP3  H1           -5.5619990041       -8.0512808259        5.3919289300  CLST         457          1.0000000000
      1371       457  TIP3  H2           -5.3744626815       -7.1358511246        4.1057491588  CLST         457          1.0000000000
      1372       458  TIP3  OH2           7.9380621706       -6.3911722855      -11.3199207385  CLST         458          1.0000000000
      1373       458  TIP3  H1            8.8666845644       -6.3420295084      -11.6192179138  CLST         458          1.0000000000
      1374       458  TIP3  H2            7.8303613787       -5.5344308389      -10.8269760830  CLST         458          1.0000000000
      1375       459  TIP3  OH2           6.5523630427       -9.8968635645       -7.8261190736  CLST         459          1.0000000000
      1376       459  TIP3  H1            6.0942593176       -9.1094642428       -7.4398607667  CLST         459          1.0000000000
      1377       459  TIP3  H2            7.2552486788       -9.4523567162       -8.4034570628  CLST         459          1.0000000000
      1378       460  TIP3  OH2           9.2969483900       -2.0981600381       -2.8393619889  CLST         460          1.0000000000
      1379       460  TIP3  H1            9.8896118681       -2.6729043373       -2.2524583673  CLST         460          1.0000000000
      1380       460  TIP3  H2            9.8959067124       -1.5351835778       -3.3431796400  CLST         460          1.0000000000
      1381       461  TIP3  OH2          -1.2364464841      -12.8314635344       -5.4037565901  CLST         461          1.0000000000
      1382       461  TIP3  H1           -0.4262871094      -12.8015809978       -5.9127263284  CLST         461          1.0000000000
      1383       461  TIP3  H2           -0.9596495225      -13.1958732286       -4.5430978929  CLST         461          1.0000000000
      1384       462  TIP3  OH2          -0.0066163925        5.5073020466      -12.6450100879  CLST         462          1.0000000000
      1385       462  TIP3  H1            0.3878082256        6.3873264373      -12.6261150976  CLST         462          1.0000000000
      1386       462  TIP3  H2            0.7307344762        5.0006117596      -13.0438940702  CLST         462          1.0000000000
      1387       463  TIP3  OH2          -1.7657825523        1.7842228771       -7.8184431264  CLST         463          1.0000000000
      1388       463  TIP3  H1           -1.5478309146        0.8832923652       -7.5969354920  CLST         463          1.0000000000
      1389       463  TIP3  H2           -2.6737347886        1.8670791668       -7.4928730107  CLST         463          1.0000000000
      1390       464  TIP3  OH2          -6.5431092980        6.1933402394        4.2818769420  CLST         464          1.0000000000
      1391       464  TIP3  H1           -6.2255362714        5.5686738011        4.8759218073  CLST         464          1.0000000000
      1392       464  TIP3  H2           -7.0423430098        6.7841877174        4.8035343861  CLST         464          1.0000000000
      1393       465  TIP3  OH2          -4.5906904994      -12.5235164707        6.3326693872  CLST         465          1.0000000000
      1394       465  TIP3  H1           -3.7881070956      -13.0390130242        6.3068777336  CLST         465          1.0000000000
      1395       465  TIP3  H2           -4.3142542122      -11.6148889650        6.3443933158  CLST         465          1.0000000000
      1396       466  TIP3  OH2          -2.4658385593        9.1560390958       -4.2919623743  CLST         466          1.0000000000
      1397       466  TIP3  H1           -3.0595584031        9.3331618545       -5.0775687573  CLST         466          1.0000000000
      1398       466  TIP3  H2           -2.5512686213        9.9924590033       -3.7733994934  CLST         466          1.0000000000
      1399       467  TIP3  OH2           8.2369225609        6.0047873137        4.6204749440  CLST         467          1.0000000000
      1400       467  TIP3  H1            8.6535114859        6.5570766465        5.3662142141  CLST         467          1.0000000000
      1401       467  TIP3  H2            8.0335294217        6.7084064412        4.0304518285  CLST         467          1.0000000000
      1402       468  TIP3  OH2          -0.4988507184      -12.4087483640       10.4465797262  CLST         468          1.0000000000
      1403       468  TIP3  H1           -0.9980208394      -11.9270229480       11.1276270471  CLST         468          1.0000000000
      1404       468  TIP3  H2            0.4536307975      -12.2042440923       10.6073559046  CLST         468          1.0000000000
      1405       469  TIP3  OH2           5.4487363809        8.3913773433       14.2205303073  CLST         469          1.0000000000
      1406       469  TIP3  H1            6.3342368339        8.6169708877       13.9016133827  CLST         469          1.0000000000
      1407       469  TIP3  H2            5.0828488635        9.0669893347       13.7137144320  CLST         469          1.0000000000
      1408       470  TIP3  OH2         -11.1963966015       12.7456756933        0.6044597808  CLST         470          1.0000000000
      1409       470  TIP3  H1          -11.3494620741       13.0391452328       -0.3091267465  CLST         470          1.0000000000
      1410       470  TIP3  H2          -11.4215793860       11.7727740753        0.6694851113  CLST         470          1.0000000000
      1411       471  TIP3  OH2          -4.3295447066        9.6009322378       -8.9795877364  CLST         471          1.0000000000
      1412       471  TIP3  H1           -4.7227661598        8.7091023672       -8.9751981539  CLST         471          1.0000000000
      1413       471  TIP3  H2           -4.5459066706        9.8357872519       -9.8573785493  CLST         471          1.0000000000
      1414       472  TIP3  OH2         -11.7869925771        3.8410688093        2.9033640988  CLST         472          1.0000000000
      1415       472  TIP3  H1          -12.1537379697        3.0548382838        3.3537994193  CLST         472          1.0000000000
      1416       472  TIP3  H2          -11.8957558822        3.4560352947        2.0429058083  CLST         472          1.0000000000
      1417       473  TIP3  OH2           5.3386420402        0.8075425727       10.1564822164  CLST         473          1.0000000000
      1418       473  TIP3  H1            5.8555428150        1.6652506678       10.0329885963  CLST         473          1.0000000000
      1419       473  TIP3  H2            4.6544600469        1.0467617691       10.7668633994  CLST         473          1.0000000000
      1420       474  TIP3  OH2           1.3200868896        1.7280846753        1.3521850997  CLST         474          1.0000000000
      1421       474  TIP3  H1            0.4106370550        1.5104547788        1.5465809149  CLST         474          1.0000000000
      1422       474  TIP3  H2            1.6344530974        0.8943711129        1.1048711230  CLST         474          1.0000000000
      1423       475  TIP3  OH2           6.0862261890       -8.6109491325       12.0380996478  CLST         475          1.0000000000
      1424       475  TIP3  H1            6.9318268991       -8.1749250283       11.7471447640  CLST         475          1.0000000000
      1425       475  TIP3  H2            6.2019057044       -9.3692843251       11.4637649000  CLST         475          1.0000000000
      1426       476  TIP3  OH2         -11.6113505317       -9.0422143369       -0.1419004298  CLST         476          1.0000000000
      1427       476  TIP3  H1          -12.1222764045       -8.3122212788       -0.5094763657  CLST         476          1.0000000000
      1428       476  TIP3  H2          -10.8426367562       -8.9434249487       -0.6827578042  CLST         476          1.0000000000
      1429       477  TIP3  OH2         -12.5541040423        3.6277226443      -13.5303681360  CLST         477          1.0000000000
      1430       477  TIP3  H1          -12.7995383228        2.7022889764      -13.3009378335  CLST         477          1.0000000000
      1431       477  TIP3  H2          -11.9282910953        3.4701248292      -14.2208467875  CLST         477          1.0000000000
      1432       478  TIP3  OH2          -3.9838718583        6.5209708126      -10.7092719793  CLST         478          1.0000000000
      1433       478  TIP3  H1           -4.6250441358        6.5555207020      -11.4113490069  CLST         478          1.0000000000
      1434       478  TIP3  H2           -3.3455663796        7.1896600859      -11.0633009303  CLST         478          1.0000000000
      1435       479  TIP3  OH2           7.8694357978       -1.4676951432       -8.5740678128  CLST         479          1.0000000000
      1436       479  TIP3  H1            8.6235666955       -1.2251916244       -8.0084436681  CLST         479          1.0000000000
      1437       479  TIP3  H2            7.0856004099       -1.1678386533       -8.0390027979  CLST         479          1.0000000000
      1438       480  TIP3  OH2          -6.0976930952        7.5754587989       -0.0553179885  CLST         480          1.0000000000
      1439       480  TIP3  H1           -5.2331949533        7.8766392646       -0.3777957610  CLST         480          1.0000000000
      1440       480  TIP3  H2           -5.8712303794        6.6355383044        0.0903043344  CLST         480          1.0000000000
      1441       481  TIP3  OH2          -2.9729386930        2.3626220027       11.9715453160  CLST         481          1.0000000000
      1442       481  TIP3  H1           -2.0526669235        2.1994410037       11.7832069104  CLST         481          1.0000000000
      1443       481  TIP3  H2           -3.2086785155        1.5161005753       12.3380292111  CLST         481          1.0000000000
      1444       482  TIP3  OH2          -7.9317722886       11.5059137210       -7.5372183663  CLST         482          1.0000000000
      1445       482  TIP3  H1           -8.6612832079       11.5083930400       -8.1468637299  CLST         482          1.0000000000
      1446       482  TIP3  H2           -7.1974439599       11.8160703719       -8.1291403389  CLST         482          1.0000000000
      1447       483  TIP3  OH2           6.2729385085       -5.8154948941       12.6038143391  CLST         483          1.0000000000
      1448       483  TIP3  H1            5.8988769976       -6.6713559613       12.9234601509  CLST         483          1.0000000000
      1449       483  TIP3  H2            6.0598675913       -5.7172593126       11.6705364882  CLST         483          1.0000000000
      1450       484  TIP3  OH2           6.7720872852       -2.9719602827        3.0161475135  CLST         484          1.0000000000
      1451       484  TIP3  H1            5.8800815703       -3.3037465142        3.0738336887  CLST         484          1.0000000000
      1452       484  TIP3  H2            6.7015332021       -2.1884642587        3.5814264634  CLST         484          1.0000000000
      1453       485  TIP3  OH2         -11.7203131551        4.4193329009       10.0509389750  CLST         485          1.0000000000
      1454       485  TIP3  H1          -11.3147341122        3.5921759550        9.8248709685  CLST         485          1.0000000000
      1455       485  TIP3  H2          -12.5611578612        4.3226478719        9.5518439291  CLST         485          1.0000000000
      1456       486  TIP3  OH2           8.4376494222       -7.2548559730       13.7117091054  CLST         486          1.0000000000
      1457       486  TIP3  H1            8.7733895358       -6.9173060847       14.4958095717  CLST         486          1.0000000000
      1458       486  TIP3  H2            7.9222882159       -6.4609779961       13.4420106453  CLST         486          1.0000000000
      1459       487  TIP3  OH2          12.2860409846       -8.4394638227        6.0821620469  CLST         487          1.0000000000
      1460       487  TIP3  H1           11.3540235955       -8.4300686717        5.8456820251  CLST         487          1.0000000000
      1461       487  TIP3  H2           12.2514020111       -8.5238096965        7.0437712904  CLST         487          1.0000000000
      1462       488  TIP3  OH2          15.7736389025        8.3882234098        7.7322967818  CLST         488          1.0000000000
      1463       488  TIP3  H1           16.4072125318        7.7490035464        7.3059285816  CLST         488          1.0000000000
      1464       488  TIP3  H2           15.2147000918        7.8038629553        8.2808085636  CLST         488          1.0000000000
      1465       489  TIP3  OH2          -6.2269487768      -10.7287030360       11.7020046720  CLST         489          1.0000000000
      1466       489  TIP3  H1           -6.3137030247       -9.8919804178       11.3478281762  CLST         489          1.0000000000
      1467       489  TIP3  H2           -7.0029123426      -11.1921881537       11.2780321041  CLST         489          1.0000000000
      1468       490  TIP3  OH2           6.8313447108      -13.0110180638        2.3386769631  CLST         490          1.0000000000
      1469       490  TIP3  H1            6.4639875551      -12.1792364641        2.6973779638  CLST         490          1.0000000000
      1470       490  TIP3  H2            7.2125273052      -13.5517198231        3.1219485498  CLST         490          1.0000000000
      1471       491  TIP3  OH2           3.1024905678       -9.2329304232        5.0217885352  CLST         491          1.0000000000
      1472       491  TIP3  H1            2.2408515811       -9.1888255387        5.4854249685  CLST         491          1.0000000000
      1473       491  TIP3  H2            2.6843493723       -9.4738938692        4.1804317780  CLST         491          1.0000000000
      1474       492  TIP3  OH2          -0.6048523634       -6.5440505374       12.2422722814  CLST         492          1.0000000000
      1475       492  TIP3  H1           -0.4055860204       -7.4684067421       12.2635348291  CLST         492          1.0000000000
      1476       492  TIP3  H2           -1.5674380632       -6.5176100280       12.3948761628  CLST         492          1.0000000000
      1477       493  TIP3  OH2           3.3973953516       10.6308740057        7.0979786327  CLST         493          1.0000000000
      1478       493  TIP3  H1            4.1167552154       10.5646437881        7.7549808657  CLST         493          1.0000000000
      1479       493  TIP3  H2            2.6627542815       10.3811819367        7.6963898498  CLST         493          1.0000000000
      1480       494  TIP3  OH2          -9.2551390168        5.4735892281       -0.8005836809  CLST         494          1.0000000000
      1481       494  TIP3  H1           -9.6223958033        5.9007131165       -1.5945072879  CLST         494          1.0000000000
      1482       494  TIP3  H2           -9.5780524977        5.9141908653        0.0139428218  CLST         494          1.0000000000
      1483       495  TIP3  OH2           5.0898881069       -6.7894070672       -1.9920825680  CLST         495          1.0000000000
      1484       495  TIP3  H1            5.7879070629       -6.3044873600       -2.5013874813  CLST         495          1.0000000000
      1485       495  TIP3  H2            5.7008136681       -7.4570056327       -1.4692941108  CLST         495          1.0000000000
      1486       496  TIP3  OH2         -12.8872462814      -10.6908245229        7.5537784137  CLST         496          1.0000000000
      1487       496  TIP3  H1          -13.5127297377      -11.3886024163        7.7300497098  CLST         496          1.0000000000
      1488       496  TIP3  H2          -12.5406823282      -11.1944384282        6.7647033804  CLST         496          1.0000000000
      1489       497  TIP3  OH2          -9.6629354915      -13.4749418849       -7.2961833577  CLST         497          1.0000000000
      1490       497  TIP3  H1          -10.2039228735      -14.3060177829       -7.4149471265  CLST         497          1.0000000000
      1491       497  TIP3  H2           -9.9558053416      -12.7510049137       -7.8991635045  CLST         497          1.0000000000
      1492       498  TIP3  OH2          -5.6578239432        0.5121702868      -11.2452519840  CLST         498          1.0000000000
      1493       498  TIP3  H1           -5.8472832424        0.7182284863      -12.1767935850  CLST         498          1.0000000000
      1494       498  TIP3  H2           -5.4665926489        1.3795469340      -10.7934164997  CLST         498          1.0000000000
      1495       499  TIP3  OH2          11.6035123161        6.6259331993        3.6655905778  CLST         499          1.0000000000
      1496       499  TIP3  H1           11.8926951382        7.0859791261        2.8576429978  CLST         499          1.0000000000
      1497       499  TIP3  H2           11.3337362456        7.3407821526        4.2730964649  CLST         499          1.0000000000
      1498       500  TIP3  OH2           2.3330232892       -8.7657160709      -13.3018517111  CLST         500          1.0000000000
      1499       500  TIP3  H1            1.6190675856       -9.3447909145      -13.6020156888  CLST         500          1.0000000000
      1500       500  TIP3  H2            2.9071892073       -9.3794391738      -12.7923553605  CLST         500          1.0000000000
      1501       501  TIP3  OH2           1.3256201552      -11.0590847436       14.0273305588  CLST         501          1.0000000000
      1502       501  TIP3  H1            1.2529913570      -12.0234320991       14.0868016407  CLST         501          1.0000000000
      1503       501  TIP3  H2            2.2519316412      -10.8442186592       14.0097577832  CLST         501          1.0000000000
      1504       502  TIP3  OH2           6.2259192893        3.7738186916        9.7439871326  CLST         502          1.0000000000
      1505       502  TIP3  H1            6.6391650958        4.1367356341       10.5338392868  CLST         502          1.0000000000
      1506       502  TIP3  H2            6.9555512727        3.2447171563        9.3661128391  CLST         502          1.0000000000
      1507       503  TIP3  OH2          10.3689135406       -0.7459657157        0.2397259566  CLST         503          1.0000000000
      1508       503  TIP3  H1           11.0819113996       -0.4791711651        0.8317741068  CLST         503          1.0000000000
      1509       503  TIP3  H2           10.0109180104        0.0766518798       -0.1539809323  CLST         503          1.0000000000
      1510       504  TIP3  OH2           8.2976135518      -13.8578434814       10.8282503513  CLST         504          1.0000000000
      1511       504  TIP3  H1            8.7282316432      -13.6361882464        9.9443386087  CLST         504          1.0000000000
      1512       504  TIP3  H2            7.9235267440      -14.6898088915       10.4970675378  CLST         504          1.0000000000
      1513       505  TIP3  OH2           3.5111868861      -10.8009583239       -5.5548497141  CLST         505          1.0000000000
      1514       505  TIP3  H1            3.5024138086      -10.2394139038       -6.3124281092  CLST         505          1.0000000000
      1515       505  TIP3  H2            2.6893162269      -10.5698570952       -5.1268563706  CLST         505          1.0000000000
      1516       506  TIP3  OH2          -9.1836994187       -3.4105847721       -8.0899765961  CLST         506          1.0000000000
      1517       506  TIP3  H1           -8.9190683523       -2.4534357981       -8.0784318220  CLST         506          1.0000000000
      1518       506  TIP3  H2           -9.7859518848       -3.3961700466       -8.8003469313  CLST         506          1.0000000000
      1519       507  TIP3  OH2          11.1832164955        9.8167014834      -12.8545029774  CLST         507          1.0000000000
      1520       507  TIP3  H1           11.6502391619        9.6791421988      -13.6416194754  CLST         507          1.0000000000
      1521       507  TIP3  H2           11.0550290580        8.8772292243      -12.5828845198  CLST         507          1.0000000000
      1522       508  TIP3  OH2           9.1883300788       12.2405563155        8.7510472918  CLST         508          1.0000000000
      1523       508  TIP3  H1            9.0749017627       12.0332730680        7.7713383043  CLST         508          1.0000000000
      1524       508  TIP3  H2           10.0517996609       12.6671569723        8.7482921962  CLST         508          1.0000000000
      1525       509  TIP3  OH2          -0.8967191953       -1.5205149389      -11.3553793178  CLST         509          1.0000000000
      1526       509  TIP3  H1           -1.8502632270       -1.7443175812      -11.5568379234  CLST         509          1.0000000000
      1527       509  TIP3  H2           -1.0166350827       -0.7078392170      -10.9124562026  CLST         509          1.0000000000
      1528       510  TIP3  OH2           8.1152785573        2.2391352905       11.5133085309  CLST         510          1.0000000000
      1529       510  TIP3  H1            8.0699621817        1.2821105089       11.6096137437  CLST         510          1.0000000000
      1530       510  TIP3  H2            9.0204415113        2.2807139607       11.1081866463  CLST         510          1.0000000000
      1531       511  TIP3  OH2          -8.7473058338       -5.8963596119       -0.7156996434  CLST         511          1.0000000000
      1532       511  TIP3  H1           -9.6238462551       -6.0920982619       -1.1335852048  CLST         511          1.0000000000
      1533       511  TIP3  H2           -8.5088372278       -5.1005475113       -1.1130744661  CLST         511          1.0000000000
      1534       512  TIP3  OH2          10.1348159593        7.0051624730        6.8857576692  CLST         512          1.0000000000
      1535       512  TIP3  H1           10.0786767493        7.5681562234        7.6532829186  CLST         512          1.0000000000
      1536       512  TIP3  H2           10.4094133637        7.6789457790        6.2103238691  CLST         512          1.0000000000
      1537       513  TIP3  OH2         -11.7574435561       10.4665517677        9.3699757035  CLST         513          1.0000000000
      1538       513  TIP3  H1          -11.3901810022       11.2713845094        9.6995394810  CLST         513          1.0000000000
      1539       513  TIP3  H2          -11.8432045345        9.9465851278       10.2503030691  CLST         513          1.0000000000
      1540       514  TIP3  OH2          -4.8068214577        4.9173527082        0.3425511815  CLST         514          1.0000000000
      1541       514  TIP3  H1           -4.0484264057        5.5084700796        0.6557995996  CLST         514          1.0000000000
      1542       514  TIP3  H2           -4.6170532069        4.8824160680       -0.5873405406  CLST         514          1.0000000000
      1543       515  TIP3  OH2          -0.7085067102        1.0335427097       -4.2563051160  CLST         515          1.0000000000
      1544       515  TIP3  H1           -1.4765231393        1.5530305962       -4.5513997656  CLST         515          1.0000000000
      1545       515  TIP3  H2           -0.0454198784        1.5584755047       -4.6892691930  CLST         515          1.0000000000
      1546       516  TIP3  OH2          -7.2119791383       -8.5408916013        6.4351525604  CLST         516          1.0000000000
      1547       516  TIP3  H1           -7.4092943634       -8.7436890917        5.5439327222  CLST         516          1.0000000000
      1548       516  TIP3  H2           -7.7384873261       -7.7309220929        6.4901404576  CLST         516          1.0000000000
      1549       517  TIP3  OH2           0.6115410087       11.0611789075       11.4789540706  CLST         517          1.0000000000
      1550       517  TIP3  H1            0.4363819834       10.6872474951       10.6542923807  CLST         517          1.0000000000
      1551       517  TIP3  H2           -0.3015152182       11.4382470144       11.6178613343  CLST         517          1.0000000000
      1552       518  TIP3  OH2         -11.6329599494       -3.4402771985      -11.4810912009  CLST         518          1.0000000000
      1553       518  TIP3  H1          -12.2107677673       -3.2107532222      -12.2136127613  CLST         518          1.0000000000
      1554       518  TIP3  H2          -10.7731978247       -3.5148176981      -11.9386045326  CLST         518          1.0000000000
      1555       519  TIP3  OH2           1.9727749832        3.3770294325        3.3094505895  CLST         519          1.0000000000
      1556       519  TIP3  H1            2.0277350162        4.2568510854        2.8709536148  CLST         519          1.0000000000
      1557       519  TIP3  H2            1.6750759021        2.7598738245        2.5924569268  CLST         519          1.0000000000
      1558       520  TIP3  OH2         -10.2854757464        6.2145925677        8.1511917416  CLST         520          1.0000000000
      1559       520  TIP3  H1          -10.4347204956        5.6093767661        7.4266957042  CLST         520          1.0000000000
      1560       520  TIP3  H2          -10.8843317488        5.7774080463        8.8332625266  CLST         520          1.0000000000
      1561       521  TIP3  OH2           8.3472458247       -8.8686711883       -9.5918935778  CLST         521          1.0000000000
      1562       521  TIP3  H1            8.5819698800       -9.4970707281      -10.2909101818  CLST         521          1.0000000000
      1563       521  TIP3  H2            8.2393629495       -8.0373172398      -10.1185031425  CLST         521          1.0000000000
      1564       522  TIP3  OH2          -5.6007353745       -7.1389355146        8.1150073408  CLST         522          1.0000000000
      1565       522  TIP3  H1           -6.2144961992       -7.8293164972        7.8038209551  CLST         522          1.0000000000
      1566       522  TIP3  H2           -4.8165246116       -7.6168716606        8.1872404315  CLST         522          1.0000000000
      1567       523  TIP3  OH2          -4.1097630358       12.1200021788      -13.7671968535  CLST         523          1.0000000000
      1568       523  TIP3  H1           -3.2302567295       11.8618363466      -13.4033865574  CLST         523          1.0000000000
      1569       523  TIP3  H2           -3.9126834880       12.8542598649      -14.3793257084  CLST         523          1.0000000000
      1570       524  TIP3  OH2           6.9834997019        3.8406620709       -1.8829496087  CLST         524          1.0000000000
      1571       524  TIP3  H1            7.0662740926        2.9670721002       -2.1952891306  CLST         524          1.0000000000
      1572       524  TIP3  H2            6.0910680361        3.9908370705       -2.0480012823  CLST         524          1.0000000000
      1573       525  TIP3  OH2           0.4443822616        6.9254048728       -2.5691052635  CLST         525          1.0000000000
      1574       525  TIP3  H1            0.9679419868        6.6155474053       -3.2748600455  CLST         525          1.0000000000
      1575       525  TIP3  H2            0.2575864511        6.0720610105       -2.1135713488  CLST         525          1.0000000000
      1576       526  TIP3  OH2           7.0337851235       -5.5890254559       -3.6290362992  CLST         526          1.0000000000
      1577       526  TIP3  H1            7.1480466257       -5.8510448865       -4.5995722372  CLST         526          1.0000000000
      1578       526  TIP3  H2            7.9483886004       -5.4527029992       -3.3299349032  CLST         526          1.0000000000
      1579       527  TIP3  OH2           0.3513653625        7.2536742504        3.9229879344  CLST         527          1.0000000000
      1580       527  TIP3  H1            0.9735149253        6.9120167541        4.6109742869  CLST         527          1.0000000000
      1581       527  TIP3  H2            0.3229951186        8.2323517548        3.9723668900  CLST         527          1.0000000000
      1582       528  TIP3  OH2          -2.8875869982        9.8531700925        8.8240607116  CLST         528          1.0000000000
      1583       528  TIP3  H1           -3.4340703432        9.3695098910        9.5006375802  CLST         528          1.0000000000
      1584       528  TIP3  H2           -3.6333020390       10.4199813100        8.4598382262  CLST         528          1.0000000000
      1585       529  TIP3  OH2          -5.9368978761       12.2890026714       -9.4846909735  CLST         529          1.0000000000
      1586       529  TIP3  H1           -5.0965840061       12.1267150376       -9.0091725181  CLST         529          1.0000000000
      1587       529  TIP3  H2           -5.6640660222       12.3664028414      -10.3905995089  CLST         529          1.0000000000
      1588       530  TIP3  OH2          -4.3944308121       -5.6242247669      -13.1324698564  CLST         530          1.0000000000
      1589       530  TIP3  H1           -4.3246355482       -6.6476277705      -13.1180124246  CLST         530          1.0000000000
      1590       530  TIP3  H2           -3.4786463588       -5.3950289887      -13.3918780570  CLST         530          1.0000000000
      1591       531  TIP3  OH2         -11.5341182259       -0.3167359607       10.4714856429  CLST         531          1.0000000000
      1592       531  TIP3  H1          -12.3619633421       -0.1521448781       10.9566281333  CLST         531          1.0000000000
      1593       531  TIP3  H2          -11.7462317225       -0.9102507159        9.7699178537  CLST         531          1.0000000000
      1594       532  TIP3  OH2         -12.0772377496       -3.1236558167       -8.7556334984  CLST         532          1.0000000000
      1595       532  TIP3  H1          -12.9761708218       -3.4109393991       -8.4368622312  CLST         532          1.0000000000
      1596       532  TIP3  H2          -12.1024130759       -3.3318243593       -9.7071930661  CLST         532          1.0000000000
      1597       533  TIP3  OH2          -2.8475316049       -7.2699899474        8.7226989371  CLST         533          1.0000000000
      1598       533  TIP3  H1           -2.1241920956       -7.8988054161        8.7059218009  CLST         533          1.0000000000
      1599       533  TIP3  H2           -2.3378276645       -6.4697766841        8.3938422349  CLST         533          1.0000000000
      1600       534  TIP3  OH2           0.3652988895      -13.1217984103       -7.7036311619  CLST         534          1.0000000000
      1601       534  TIP3  H1            0.8131864046      -13.2778799320       -8.5512752595  CLST         534          1.0000000000
      1602       534  TIP3  H2            1.1716300450      -13.2128600022       -7.1143238701  CLST         534          1.0000000000
      1603       535  TIP3  OH2           2.6800332901        3.2142755070       -7.5198581226  CLST         535          1.0000000000
      1604       535  TIP3  H1            3.2347629390        2.6936390062       -6.9229826519  CLST         535          1.0000000000
      1605       535  TIP3  H2            1.7564086474        2.7957057753       -7.4191510039  CLST         535          1.0000000000
      1606       536  TIP3  OH2           8.0159304027      -12.6711917721       -3.4406976314  CLST         536          1.0000000000
      1607       536  TIP3  H1            7.2121447039      -12.5717306844       -3.9919807438  CLST         536          1.0000000000
      1608       536  TIP3  H2            8.3332806467      -13.5804799403       -3.6155130594  CLST         536          1.0000000000
      1609       537  TIP3  OH2          11.6538070858       -2.6243420879       -7.5197552182  CLST         537          1.0000000000
      1610       537  TIP3  H1           11.3599306710       -1.7587495313       -7.2044243098  CLST         537          1.0000000000
      1611       537  TIP3  H2           12.6138696382       -2.3913637337       -7.5395836525  CLST         537          1.0000000000
      1612       538  TIP3  OH2          -5.2512652534      -10.9544531669        0.8268949620  CLST         538          1.0000000000
      1613       538  TIP3  H1           -4.3893133889      -11.1044152761        1.3379628755  CLST         538          1.0000000000
      1614       538  TIP3  H2           -5.0942066564      -10.0288610164        0.6896868190  CLST         538          1.0000000000
      1615       539  TIP3  OH2           2.5088541118       -5.0585070811        0.8425639801  CLST         539          1.0000000000
      1616       539  TIP3  H1            1.6020069955       -5.4040882260        1.0905222993  CLST         539          1.0000000000
      1617       539  TIP3  H2            2.3970145197       -4.9906568230       -0.1263175987  CLST         539          1.0000000000
      1618       540  TIP3  OH2           3.9880544251       -6.7689787191        4.8005268694  CLST         540          1.0000000000
      1619       540  TIP3  H1            3.7331910851       -7.6184097384        5.2108232459  CLST         540          1.0000000000
      1620       540  TIP3  H2            4.2073485128       -7.0541877033        3.9017316622  CLST         540          1.0000000000
      1621       541  TIP3  OH2          -5.5204121472       10.4961890334        2.0610855243  CLST         541          1.0000000000
      1622       541  TIP3  H1           -6.0194979028       10.4794832447        2.8996261839  CLST         541          1.0000000000
      1623       541  TIP3  H2           -4.8699137662       11.1908306009        2.2082495277  CLST         541          1.0000000000
      1624       542  TIP3  OH2         -10.9916919752       14.4493665545        5.5332229074  CLST         542          1.0000000000
      1625       542  TIP3  H1          -10.2551489196       15.0583969304        5.2856198151  CLST         542          1.0000000000
      1626       542  TIP3  H2          -10.9728991568       13.9054861483        4.7313346427  CLST         542          1.0000000000
      1627       543  TIP3  OH2         -10.6492717957       11.4132274590       -2.4348120922  CLST         543          1.0000000000
      1628       543  TIP3  H1          -11.5337470343       11.2232851166       -2.6563559346  CLST         543          1.0000000000
      1629       543  TIP3  H2          -10.3260176864       11.5408444909       -3.3268162928  CLST         543          1.0000000000
      1630       544  TIP3  OH2          -0.3833691559        5.5352235009       -5.5058319121  CLST         544          1.0000000000
      1631       544  TIP3  H1           -0.3723296043        5.2451551991       -6.4479709832  CLST         544          1.0000000000
      1632       544  TIP3  H2            0.3855055845        5.1749366231       -5.0373839614  CLST         544          1.0000000000
      1633       545  TIP3  OH2          -7.9894797665        2.3865009747      -12.7583497399  CLST         545          1.0000000000
      1634       545  TIP3  H1           -8.0308483196        2.1619970752      -13.7396982954  CLST         545          1.0000000000
      1635       545  TIP3  H2           -8.5487615248        3.1369090919      -12.7341351707  CLST         545          1.0000000000
      1636       546  TIP3  OH2           3.8614132405       11.0901159367       -2.2070418430  CLST         546          1.0000000000
      1637       546  TIP3  H1            3.3937134181       10.2599409795       -2.3941480439  CLST         546          1.0000000000
      1638       546  TIP3  H2            4.2592205551       10.9626295574       -1.3357008804  CLST         546          1.0000000000
      1639       547  TIP3  OH2          -3.4394076432       -2.2249670197      -11.0810280958  CLST         547          1.0000000000
      1640       547  TIP3  H1           -3.4082732883       -2.3991695464      -10.0423501208  CLST         547          1.0000000000
      1641       547  TIP3  H2           -3.9751244813       -1.4005760954      -11.1547546866  CLST         547          1.0000000000
      1642       548  TIP3  OH2          10.5366583983        2.3332153470        1.3980969146  CLST         548          1.0000000000
      1643       548  TIP3  H1            9.5966033670        2.3008622828        1.3948029841  CLST         548          1.0000000000
      1644       548  TIP3  H2           10.5917914723        2.9379271245        2.2061964318  CLST         548          1.0000000000
