PSF EXT CMAP XPLOR

         1 !NTITLE
*  DATE:     7/10/26      2:58: 0      CREATED BY USER: ericboittier            

       162 !NATOM
         1 PEPT     1        ALA      CAY      CT3     -0.270000       12.0110           0
         2 PEPT     1        ALA      HY1      HA3      0.900000E-01   1.00800           0
         3 PEPT     1        ALA      HY2      HA3      0.900000E-01   1.00800           0
         4 PEPT     1        ALA      HY3      HA3      0.900000E-01   1.00800           0
         5 PEPT     1        ALA      CY       C        0.510000       12.0110           0
         6 PEPT     1        ALA      OY       O       -0.510000       15.9994           0
         7 PEPT     1        ALA      N        NH1     -0.470000       14.0070           0
         8 PEPT     1        ALA      HN       H        0.310000       1.00800           0
         9 PEPT     1        ALA      CA       CT1      0.700000E-01   12.0110           0
        10 PEPT     1        ALA      HA       HB1      0.900000E-01   1.00800           0
        11 PEPT     1        ALA      CB       CT3     -0.270000       12.0110           0
        12 PEPT     1        ALA      HB1      HA3      0.900000E-01   1.00800           0
        13 PEPT     1        ALA      HB2      HA3      0.900000E-01   1.00800           0
        14 PEPT     1        ALA      HB3      HA3      0.900000E-01   1.00800           0
        15 PEPT     1        ALA      C        C        0.510000       12.0110           0
        16 PEPT     1        ALA      O        O       -0.510000       15.9994           0
        17 PEPT     2        ALA      N        NH1     -0.470000       14.0070           0
        18 PEPT     2        ALA      HN       H        0.310000       1.00800           0
        19 PEPT     2        ALA      CA       CT1      0.700000E-01   12.0110           0
        20 PEPT     2        ALA      HA       HB1      0.900000E-01   1.00800           0
        21 PEPT     2        ALA      CB       CT3     -0.270000       12.0110           0
        22 PEPT     2        ALA      HB1      HA3      0.900000E-01   1.00800           0
        23 PEPT     2        ALA      HB2      HA3      0.900000E-01   1.00800           0
        24 PEPT     2        ALA      HB3      HA3      0.900000E-01   1.00800           0
        25 PEPT     2        ALA      C        C        0.510000       12.0110           0
        26 PEPT     2        ALA      O        O       -0.510000       15.9994           0
        27 PEPT     3        ALA      N        NH1     -0.470000       14.0070           0
        28 PEPT     3        ALA      HN       H        0.310000       1.00800           0
        29 PEPT     3        ALA      CA       CT1      0.700000E-01   12.0110           0
        30 PEPT     3        ALA      HA       HB1      0.900000E-01   1.00800           0
        31 PEPT     3        ALA      CB       CT3     -0.270000       12.0110           0
        32 PEPT     3        ALA      HB1      HA3      0.900000E-01   1.00800           0
        33 PEPT     3        ALA      HB2      HA3      0.900000E-01   1.00800           0
        34 PEPT     3        ALA      HB3      HA3      0.900000E-01   1.00800           0
        35 PEPT     3        ALA      C        C        0.510000       12.0110           0
        36 PEPT     3        ALA      O        O       -0.510000       15.9994           0
        37 PEPT     4        ALA      N        NH1     -0.470000       14.0070           0
        38 PEPT     4        ALA      HN       H        0.310000       1.00800           0
        39 PEPT     4        ALA      CA       CT1      0.700000E-01   12.0110           0
        40 PEPT     4        ALA      HA       HB1      0.900000E-01   1.00800           0
        41 PEPT     4        ALA      CB       CT3     -0.270000       12.0110           0
        42 PEPT     4        ALA      HB1      HA3      0.900000E-01   1.00800           0
        43 PEPT     4        ALA      HB2      HA3      0.900000E-01   1.00800           0
        44 PEPT     4        ALA      HB3      HA3      0.900000E-01   1.00800           0
        45 PEPT     4        ALA      C        C        0.510000       12.0110           0
        46 PEPT     4        ALA      O        O       -0.510000       15.9994           0
        47 PEPT     5        ALA      N        NH1     -0.470000       14.0070           0
        48 PEPT     5        ALA      HN       H        0.310000       1.00800           0
        49 PEPT     5        ALA      CA       CT1      0.700000E-01   12.0110           0
        50 PEPT     5        ALA      HA       HB1      0.900000E-01   1.00800           0
        51 PEPT     5        ALA      CB       CT3     -0.270000       12.0110           0
        52 PEPT     5        ALA      HB1      HA3      0.900000E-01   1.00800           0
        53 PEPT     5        ALA      HB2      HA3      0.900000E-01   1.00800           0
        54 PEPT     5        ALA      HB3      HA3      0.900000E-01   1.00800           0
        55 PEPT     5        ALA      C        C        0.510000       12.0110           0
        56 PEPT     5        ALA      O        O       -0.510000       15.9994           0
        57 PEPT     6        ALA      N        NH1     -0.470000       14.0070           0
        58 PEPT     6        ALA      HN       H        0.310000       1.00800           0
        59 PEPT     6        ALA      CA       CT1      0.700000E-01   12.0110           0
        60 PEPT     6        ALA      HA       HB1      0.900000E-01   1.00800           0
        61 PEPT     6        ALA      CB       CT3     -0.270000       12.0110           0
        62 PEPT     6        ALA      HB1      HA3      0.900000E-01   1.00800           0
        63 PEPT     6        ALA      HB2      HA3      0.900000E-01   1.00800           0
        64 PEPT     6        ALA      HB3      HA3      0.900000E-01   1.00800           0
        65 PEPT     6        ALA      C        C        0.510000       12.0110           0
        66 PEPT     6        ALA      O        O       -0.510000       15.9994           0
        67 PEPT     7        ALA      N        NH1     -0.470000       14.0070           0
        68 PEPT     7        ALA      HN       H        0.310000       1.00800           0
        69 PEPT     7        ALA      CA       CT1      0.700000E-01   12.0110           0
        70 PEPT     7        ALA      HA       HB1      0.900000E-01   1.00800           0
        71 PEPT     7        ALA      CB       CT3     -0.270000       12.0110           0
        72 PEPT     7        ALA      HB1      HA3      0.900000E-01   1.00800           0
        73 PEPT     7        ALA      HB2      HA3      0.900000E-01   1.00800           0
        74 PEPT     7        ALA      HB3      HA3      0.900000E-01   1.00800           0
        75 PEPT     7        ALA      C        C        0.510000       12.0110           0
        76 PEPT     7        ALA      O        O       -0.510000       15.9994           0
        77 PEPT     8        ALA      N        NH1     -0.470000       14.0070           0
        78 PEPT     8        ALA      HN       H        0.310000       1.00800           0
        79 PEPT     8        ALA      CA       CT1      0.700000E-01   12.0110           0
        80 PEPT     8        ALA      HA       HB1      0.900000E-01   1.00800           0
        81 PEPT     8        ALA      CB       CT3     -0.270000       12.0110           0
        82 PEPT     8        ALA      HB1      HA3      0.900000E-01   1.00800           0
        83 PEPT     8        ALA      HB2      HA3      0.900000E-01   1.00800           0
        84 PEPT     8        ALA      HB3      HA3      0.900000E-01   1.00800           0
        85 PEPT     8        ALA      C        C        0.510000       12.0110           0
        86 PEPT     8        ALA      O        O       -0.510000       15.9994           0
        87 PEPT     9        ALA      N        NH1     -0.470000       14.0070           0
        88 PEPT     9        ALA      HN       H        0.310000       1.00800           0
        89 PEPT     9        ALA      CA       CT1      0.700000E-01   12.0110           0
        90 PEPT     9        ALA      HA       HB1      0.900000E-01   1.00800           0
        91 PEPT     9        ALA      CB       CT3     -0.270000       12.0110           0
        92 PEPT     9        ALA      HB1      HA3      0.900000E-01   1.00800           0
        93 PEPT     9        ALA      HB2      HA3      0.900000E-01   1.00800           0
        94 PEPT     9        ALA      HB3      HA3      0.900000E-01   1.00800           0
        95 PEPT     9        ALA      C        C        0.510000       12.0110           0
        96 PEPT     9        ALA      O        O       -0.510000       15.9994           0
        97 PEPT     10       ALA      N        NH1     -0.470000       14.0070           0
        98 PEPT     10       ALA      HN       H        0.310000       1.00800           0
        99 PEPT     10       ALA      CA       CT1      0.700000E-01   12.0110           0
       100 PEPT     10       ALA      HA       HB1      0.900000E-01   1.00800           0
       101 PEPT     10       ALA      CB       CT3     -0.270000       12.0110           0
       102 PEPT     10       ALA      HB1      HA3      0.900000E-01   1.00800           0
       103 PEPT     10       ALA      HB2      HA3      0.900000E-01   1.00800           0
       104 PEPT     10       ALA      HB3      HA3      0.900000E-01   1.00800           0
       105 PEPT     10       ALA      C        C        0.510000       12.0110           0
       106 PEPT     10       ALA      O        O       -0.510000       15.9994           0
       107 PEPT     11       ALA      N        NH1     -0.470000       14.0070           0
       108 PEPT     11       ALA      HN       H        0.310000       1.00800           0
       109 PEPT     11       ALA      CA       CT1      0.700000E-01   12.0110           0
       110 PEPT     11       ALA      HA       HB1      0.900000E-01   1.00800           0
       111 PEPT     11       ALA      CB       CT3     -0.270000       12.0110           0
       112 PEPT     11       ALA      HB1      HA3      0.900000E-01   1.00800           0
       113 PEPT     11       ALA      HB2      HA3      0.900000E-01   1.00800           0
       114 PEPT     11       ALA      HB3      HA3      0.900000E-01   1.00800           0
       115 PEPT     11       ALA      C        C        0.510000       12.0110           0
       116 PEPT     11       ALA      O        O       -0.510000       15.9994           0
       117 PEPT     12       ALA      N        NH1     -0.470000       14.0070           0
       118 PEPT     12       ALA      HN       H        0.310000       1.00800           0
       119 PEPT     12       ALA      CA       CT1      0.700000E-01   12.0110           0
       120 PEPT     12       ALA      HA       HB1      0.900000E-01   1.00800           0
       121 PEPT     12       ALA      CB       CT3     -0.270000       12.0110           0
       122 PEPT     12       ALA      HB1      HA3      0.900000E-01   1.00800           0
       123 PEPT     12       ALA      HB2      HA3      0.900000E-01   1.00800           0
       124 PEPT     12       ALA      HB3      HA3      0.900000E-01   1.00800           0
       125 PEPT     12       ALA      C        C        0.510000       12.0110           0
       126 PEPT     12       ALA      O        O       -0.510000       15.9994           0
       127 PEPT     13       ALA      N        NH1     -0.470000       14.0070           0
       128 PEPT     13       ALA      HN       H        0.310000       1.00800           0
       129 PEPT     13       ALA      CA       CT1      0.700000E-01   12.0110           0
       130 PEPT     13       ALA      HA       HB1      0.900000E-01   1.00800           0
       131 PEPT     13       ALA      CB       CT3     -0.270000       12.0110           0
       132 PEPT     13       ALA      HB1      HA3      0.900000E-01   1.00800           0
       133 PEPT     13       ALA      HB2      HA3      0.900000E-01   1.00800           0
       134 PEPT     13       ALA      HB3      HA3      0.900000E-01   1.00800           0
       135 PEPT     13       ALA      C        C        0.510000       12.0110           0
       136 PEPT     13       ALA      O        O       -0.510000       15.9994           0
       137 PEPT     14       ALA      N        NH1     -0.470000       14.0070           0
       138 PEPT     14       ALA      HN       H        0.310000       1.00800           0
       139 PEPT     14       ALA      CA       CT1      0.700000E-01   12.0110           0
       140 PEPT     14       ALA      HA       HB1      0.900000E-01   1.00800           0
       141 PEPT     14       ALA      CB       CT3     -0.270000       12.0110           0
       142 PEPT     14       ALA      HB1      HA3      0.900000E-01   1.00800           0
       143 PEPT     14       ALA      HB2      HA3      0.900000E-01   1.00800           0
       144 PEPT     14       ALA      HB3      HA3      0.900000E-01   1.00800           0
       145 PEPT     14       ALA      C        C        0.510000       12.0110           0
       146 PEPT     14       ALA      O        O       -0.510000       15.9994           0
       147 PEPT     15       ALA      N        NH1     -0.470000       14.0070           0
       148 PEPT     15       ALA      HN       H        0.310000       1.00800           0
       149 PEPT     15       ALA      CA       CT1      0.700000E-01   12.0110           0
       150 PEPT     15       ALA      HA       HB1      0.900000E-01   1.00800           0
       151 PEPT     15       ALA      CB       CT3     -0.270000       12.0110           0
       152 PEPT     15       ALA      HB1      HA3      0.900000E-01   1.00800           0
       153 PEPT     15       ALA      HB2      HA3      0.900000E-01   1.00800           0
       154 PEPT     15       ALA      HB3      HA3      0.900000E-01   1.00800           0
       155 PEPT     15       ALA      C        C        0.510000       12.0110           0
       156 PEPT     15       ALA      O        O       -0.510000       15.9994           0
       157 PEPT     15       ALA      NT       NH1     -0.470000       14.0070           0
       158 PEPT     15       ALA      HNT      H        0.310000       1.00800           0
       159 PEPT     15       ALA      CAT      CT3     -0.110000       12.0110           0
       160 PEPT     15       ALA      HT1      HA3      0.900000E-01   1.00800           0
       161 PEPT     15       ALA      HT2      HA3      0.900000E-01   1.00800           0
       162 PEPT     15       ALA      HT3      HA3      0.900000E-01   1.00800           0

       161 !NBOND: bonds
         5         1         5         7         1         2         1         3
         1         4         6         5        11         9         7         8
         7         9        15         9        15        17         9        10
        11        12        11        13        11        14        16        15
        21        19        17        18        17        19        25        19
        25        27        19        20        21        22        21        23
        21        24        26        25        31        29        27        28
        27        29        35        29        35        37        29        30
        31        32        31        33        31        34        36        35
        41        39        37        38        37        39        45        39
        45        47        39        40        41        42        41        43
        41        44        46        45        51        49        47        48
        47        49        55        49        55        57        49        50
        51        52        51        53        51        54        56        55
        61        59        57        58        57        59        65        59
        65        67        59        60        61        62        61        63
        61        64        66        65        71        69        67        68
        67        69        75        69        75        77        69        70
        71        72        71        73        71        74        76        75
        81        79        77        78        77        79        85        79
        85        87        79        80        81        82        81        83
        81        84        86        85        91        89        87        88
        87        89        95        89        95        97        89        90
        91        92        91        93        91        94        96        95
       101        99        97        98        97        99       105        99
       105       107        99       100       101       102       101       103
       101       104       106       105       111       109       107       108
       107       109       115       109       115       117       109       110
       111       112       111       113       111       114       116       115
       121       119       117       118       117       119       125       119
       125       127       119       120       121       122       121       123
       121       124       126       125       131       129       127       128
       127       129       135       129       135       137       129       130
       131       132       131       133       131       134       136       135
       141       139       137       138       137       139       145       139
       145       147       139       140       141       142       141       143
       141       144       146       145       151       149       147       148
       147       149       155       149       149       150       151       152
       151       153       151       154       156       155       155       157
       157       158       157       159       159       160       159       161
       159       162

       288 !NTHETA: angles
         2         1         3         2         1         4         2         1         5
         3         1         4         3         1         5         4         1         5
         1         5         6         1         5         7         6         5         7
         5         7         8         5         7         9         8         7         9
         7         9        10         7         9        11         7         9        15
        10         9        11        10         9        15        11         9        15
         9        11        12         9        11        13         9        11        14
        12        11        13        12        11        14        13        11        14
         9        15        16         9        15        17        16        15        17
        15        17        18        15        17        19        18        17        19
        17        19        20        17        19        21        17        19        25
        20        19        21        20        19        25        21        19        25
        19        21        22        19        21        23        19        21        24
        22        21        23        22        21        24        23        21        24
        19        25        26        19        25        27        26        25        27
        25        27        28        25        27        29        28        27        29
        27        29        30        27        29        31        27        29        35
        30        29        31        30        29        35        31        29        35
        29        31        32        29        31        33        29        31        34
        32        31        33        32        31        34        33        31        34
        29        35        36        29        35        37        36        35        37
        35        37        38        35        37        39        38        37        39
        37        39        40        37        39        41        37        39        45
        40        39        41        40        39        45        41        39        45
        39        41        42        39        41        43        39        41        44
        42        41        43        42        41        44        43        41        44
        39        45        46        39        45        47        46        45        47
        45        47        48        45        47        49        48        47        49
        47        49        50        47        49        51        47        49        55
        50        49        51        50        49        55        51        49        55
        49        51        52        49        51        53        49        51        54
        52        51        53        52        51        54        53        51        54
        49        55        56        49        55        57        56        55        57
        55        57        58        55        57        59        58        57        59
        57        59        60        57        59        61        57        59        65
        60        59        61        60        59        65        61        59        65
        59        61        62        59        61        63        59        61        64
        62        61        63        62        61        64        63        61        64
        59        65        66        59        65        67        66        65        67
        65        67        68        65        67        69        68        67        69
        67        69        70        67        69        71        67        69        75
        70        69        71        70        69        75        71        69        75
        69        71        72        69        71        73        69        71        74
        72        71        73        72        71        74        73        71        74
        69        75        76        69        75        77        76        75        77
        75        77        78        75        77        79        78        77        79
        77        79        80        77        79        81        77        79        85
        80        79        81        80        79        85        81        79        85
        79        81        82        79        81        83        79        81        84
        82        81        83        82        81        84        83        81        84
        79        85        86        79        85        87        86        85        87
        85        87        88        85        87        89        88        87        89
        87        89        90        87        89        91        87        89        95
        90        89        91        90        89        95        91        89        95
        89        91        92        89        91        93        89        91        94
        92        91        93        92        91        94        93        91        94
        89        95        96        89        95        97        96        95        97
        95        97        98        95        97        99        98        97        99
        97        99       100        97        99       101        97        99       105
       100        99       101       100        99       105       101        99       105
        99       101       102        99       101       103        99       101       104
       102       101       103       102       101       104       103       101       104
        99       105       106        99       105       107       106       105       107
       105       107       108       105       107       109       108       107       109
       107       109       110       107       109       111       107       109       115
       110       109       111       110       109       115       111       109       115
       109       111       112       109       111       113       109       111       114
       112       111       113       112       111       114       113       111       114
       109       115       116       109       115       117       116       115       117
       115       117       118       115       117       119       118       117       119
       117       119       120       117       119       121       117       119       125
       120       119       121       120       119       125       121       119       125
       119       121       122       119       121       123       119       121       124
       122       121       123       122       121       124       123       121       124
       119       125       126       119       125       127       126       125       127
       125       127       128       125       127       129       128       127       129
       127       129       130       127       129       131       127       129       135
       130       129       131       130       129       135       131       129       135
       129       131       132       129       131       133       129       131       134
       132       131       133       132       131       134       133       131       134
       129       135       136       129       135       137       136       135       137
       135       137       138       135       137       139       138       137       139
       137       139       140       137       139       141       137       139       145
       140       139       141       140       139       145       141       139       145
       139       141       142       139       141       143       139       141       144
       142       141       143       142       141       144       143       141       144
       139       145       146       139       145       147       146       145       147
       145       147       148       145       147       149       148       147       149
       147       149       150       147       149       151       147       149       155
       150       149       151       150       149       155       151       149       155
       149       151       152       149       151       153       149       151       154
       152       151       153       152       151       154       153       151       154
       149       155       156       149       155       157       156       155       157
       155       157       158       155       157       159       158       157       159
       157       159       160       157       159       161       157       159       162
       160       159       161       160       159       162       161       159       162

       391 !NPHI: dihedrals
         1         5         7         8         1         5         7         9
         2         1         5         6         2         1         5         7
         3         1         5         6         3         1         5         7
         4         1         5         6         4         1         5         7
         5         7         9        10         5         7         9        11
         5         7         9        15         6         5         7         8
         6         5         7         9         7         9        11        12
         7         9        11        13         7         9        11        14
         7         9        15        16         7         9        15        17
         8         7         9        10         8         7         9        11
         8         7         9        15         9        15        17        18
         9        15        17        19        10         9        11        12
        10         9        11        13        10         9        11        14
        10         9        15        16        10         9        15        17
        11         9        15        16        11         9        15        17
        12        11         9        15        13        11         9        15
        14        11         9        15        15        17        19        20
        15        17        19        21        15        17        19        25
        16        15        17        18        16        15        17        19
        17        19        21        22        17        19        21        23
        17        19        21        24        17        19        25        26
        17        19        25        27        18        17        19        20
        18        17        19        21        18        17        19        25
        19        25        27        28        19        25        27        29
        20        19        21        22        20        19        21        23
        20        19        21        24        20        19        25        26
        20        19        25        27        21        19        25        26
        21        19        25        27        22        21        19        25
        23        21        19        25        24        21        19        25
        25        27        29        30        25        27        29        31
        25        27        29        35        26        25        27        28
        26        25        27        29        27        29        31        32
        27        29        31        33        27        29        31        34
        27        29        35        36        27        29        35        37
        28        27        29        30        28        27        29        31
        28        27        29        35        29        35        37        38
        29        35        37        39        30        29        31        32
        30        29        31        33        30        29        31        34
        30        29        35        36        30        29        35        37
        31        29        35        36        31        29        35        37
        32        31        29        35        33        31        29        35
        34        31        29        35        35        37        39        40
        35        37        39        41        35        37        39        45
        36        35        37        38        36        35        37        39
        37        39        41        42        37        39        41        43
        37        39        41        44        37        39        45        46
        37        39        45        47        38        37        39        40
        38        37        39        41        38        37        39        45
        39        45        47        48        39        45        47        49
        40        39        41        42        40        39        41        43
        40        39        41        44        40        39        45        46
        40        39        45        47        41        39        45        46
        41        39        45        47        42        41        39        45
        43        41        39        45        44        41        39        45
        45        47        49        50        45        47        49        51
        45        47        49        55        46        45        47        48
        46        45        47        49        47        49        51        52
        47        49        51        53        47        49        51        54
        47        49        55        56        47        49        55        57
        48        47        49        50        48        47        49        51
        48        47        49        55        49        55        57        58
        49        55        57        59        50        49        51        52
        50        49        51        53        50        49        51        54
        50        49        55        56        50        49        55        57
        51        49        55        56        51        49        55        57
        52        51        49        55        53        51        49        55
        54        51        49        55        55        57        59        60
        55        57        59        61        55        57        59        65
        56        55        57        58        56        55        57        59
        57        59        61        62        57        59        61        63
        57        59        61        64        57        59        65        66
        57        59        65        67        58        57        59        60
        58        57        59        61        58        57        59        65
        59        65        67        68        59        65        67        69
        60        59        61        62        60        59        61        63
        60        59        61        64        60        59        65        66
        60        59        65        67        61        59        65        66
        61        59        65        67        62        61        59        65
        63        61        59        65        64        61        59        65
        65        67        69        70        65        67        69        71
        65        67        69        75        66        65        67        68
        66        65        67        69        67        69        71        72
        67        69        71        73        67        69        71        74
        67        69        75        76        67        69        75        77
        68        67        69        70        68        67        69        71
        68        67        69        75        69        75        77        78
        69        75        77        79        70        69        71        72
        70        69        71        73        70        69        71        74
        70        69        75        76        70        69        75        77
        71        69        75        76        71        69        75        77
        72        71        69        75        73        71        69        75
        74        71        69        75        75        77        79        80
        75        77        79        81        75        77        79        85
        76        75        77        78        76        75        77        79
        77        79        81        82        77        79        81        83
        77        79        81        84        77        79        85        86
        77        79        85        87        78        77        79        80
        78        77        79        81        78        77        79        85
        79        85        87        88        79        85        87        89
        80        79        81        82        80        79        81        83
        80        79        81        84        80        79        85        86
        80        79        85        87        81        79        85        86
        81        79        85        87        82        81        79        85
        83        81        79        85        84        81        79        85
        85        87        89        90        85        87        89        91
        85        87        89        95        86        85        87        88
        86        85        87        89        87        89        91        92
        87        89        91        93        87        89        91        94
        87        89        95        96        87        89        95        97
        88        87        89        90        88        87        89        91
        88        87        89        95        89        95        97        98
        89        95        97        99        90        89        91        92
        90        89        91        93        90        89        91        94
        90        89        95        96        90        89        95        97
        91        89        95        96        91        89        95        97
        92        91        89        95        93        91        89        95
        94        91        89        95        95        97        99       100
        95        97        99       101        95        97        99       105
        96        95        97        98        96        95        97        99
        97        99       101       102        97        99       101       103
        97        99       101       104        97        99       105       106
        97        99       105       107        98        97        99       100
        98        97        99       101        98        97        99       105
        99       105       107       108        99       105       107       109
       100        99       101       102       100        99       101       103
       100        99       101       104       100        99       105       106
       100        99       105       107       101        99       105       106
       101        99       105       107       102       101        99       105
       103       101        99       105       104       101        99       105
       105       107       109       110       105       107       109       111
       105       107       109       115       106       105       107       108
       106       105       107       109       107       109       111       112
       107       109       111       113       107       109       111       114
       107       109       115       116       107       109       115       117
       108       107       109       110       108       107       109       111
       108       107       109       115       109       115       117       118
       109       115       117       119       110       109       111       112
       110       109       111       113       110       109       111       114
       110       109       115       116       110       109       115       117
       111       109       115       116       111       109       115       117
       112       111       109       115       113       111       109       115
       114       111       109       115       115       117       119       120
       115       117       119       121       115       117       119       125
       116       115       117       118       116       115       117       119
       117       119       121       122       117       119       121       123
       117       119       121       124       117       119       125       126
       117       119       125       127       118       117       119       120
       118       117       119       121       118       117       119       125
       119       125       127       128       119       125       127       129
       120       119       121       122       120       119       121       123
       120       119       121       124       120       119       125       126
       120       119       125       127       121       119       125       126
       121       119       125       127       122       121       119       125
       123       121       119       125       124       121       119       125
       125       127       129       130       125       127       129       131
       125       127       129       135       126       125       127       128
       126       125       127       129       127       129       131       132
       127       129       131       133       127       129       131       134
       127       129       135       136       127       129       135       137
       128       127       129       130       128       127       129       131
       128       127       129       135       129       135       137       138
       129       135       137       139       130       129       131       132
       130       129       131       133       130       129       131       134
       130       129       135       136       130       129       135       137
       131       129       135       136       131       129       135       137
       132       131       129       135       133       131       129       135
       134       131       129       135       135       137       139       140
       135       137       139       141       135       137       139       145
       136       135       137       138       136       135       137       139
       137       139       141       142       137       139       141       143
       137       139       141       144       137       139       145       146
       137       139       145       147       138       137       139       140
       138       137       139       141       138       137       139       145
       139       145       147       148       139       145       147       149
       140       139       141       142       140       139       141       143
       140       139       141       144       140       139       145       146
       140       139       145       147       141       139       145       146
       141       139       145       147       142       141       139       145
       143       141       139       145       144       141       139       145
       145       147       149       150       145       147       149       151
       145       147       149       155       146       145       147       148
       146       145       147       149       147       149       151       152
       147       149       151       153       147       149       151       154
       147       149       155       156       147       149       155       157
       148       147       149       150       148       147       149       151
       148       147       149       155       149       155       157       158
       149       155       157       159       150       149       151       152
       150       149       151       153       150       149       151       154
       150       149       155       156       150       149       155       157
       151       149       155       156       151       149       155       157
       152       151       149       155       153       151       149       155
       154       151       149       155       155       157       159       160
       155       157       159       161       155       157       159       162
       156       155       157       158       156       155       157       159
       158       157       159       160       158       157       159       161
       158       157       159       162

        32 !NIMPHI: impropers
         5         1         7         6         7         5         9         8
        15         9        17        16        17        15        19        18
        25        19        27        26        27        25        29        28
        35        29        37        36        37        35        39        38
        45        39        47        46        47        45        49        48
        55        49        57        56        57        55        59        58
        65        59        67        66        67        65        69        68
        75        69        77        76        77        75        79        78
        85        79        87        86        87        85        89        88
        95        89        97        96        97        95        99        98
       105        99       107       106       107       105       109       108
       115       109       117       116       117       115       119       118
       125       119       127       126       127       125       129       128
       135       129       137       136       137       135       139       138
       145       139       147       146       147       145       149       148
       157       155       159       158       155       149       157       156

        16 !NDON: donors
         7         8        17        18        27        28        37        38
        47        48        57        58        67        68        77        78
        87        88        97        98       107       108       117       118
       127       128       137       138       147       148       157       158

        16 !NACC: acceptors
         6         5        16        15        26        25        36        35
        46        45        56        55        66        65        76        75
        86        85        96        95       106       105       116       115
       126       125       136       135       146       145       156       155

         0 !NNB

         0         0         0         0         0         0         0         0
         0         0         0         0         0         0         0         0
         0         0         0         0         0         0         0         0
         0         0         0         0         0         0         0         0
         0         0         0         0         0         0         0         0
         0         0         0         0         0         0         0         0
         0         0         0         0         0         0         0         0
         0         0         0         0         0         0         0         0
         0         0         0         0         0         0         0         0
         0         0         0         0         0         0         0         0
         0         0         0         0         0         0         0         0
         0         0         0         0         0         0         0         0
         0         0         0         0         0         0         0         0
         0         0         0         0         0         0         0         0
         0         0         0         0         0         0         0         0
         0         0         0         0         0         0         0         0
         0         0         0         0         0         0         0         0
         0         0         0         0         0         0         0         0
         0         0         0         0         0         0         0         0
         0         0         0         0         0         0         0         0
         0         0

        48         0 !NGRP NST2
         0         1         0         4         1         0         6         1         0
        10         1         0        14         1         0        16         1         0
        20         1         0        24         1         0        26         1         0
        30         1         0        34         1         0        36         1         0
        40         1         0        44         1         0        46         1         0
        50         1         0        54         1         0        56         1         0
        60         1         0        64         1         0        66         1         0
        70         1         0        74         1         0        76         1         0
        80         1         0        84         1         0        86         1         0
        90         1         0        94         1         0        96         1         0
       100         1         0       104         1         0       106         1         0
       110         1         0       114         1         0       116         1         0
       120         1         0       124         1         0       126         1         0
       130         1         0       134         1         0       136         1         0
       140         1         0       144         1         0       146         1         0
       150         1         0       154         1         0       156         1         0

         0         0 !NUMLP NUMLPH

        15 !NCRTERM: cross-terms
         5         7         9        15         7         9        15        17
        15        17        19        25        17        19        25        27
        25        27        29        35        27        29        35        37
        35        37        39        45        37        39        45        47
        45        47        49        55        47        49        55        57
        55        57        59        65        57        59        65        67
        65        67        69        75        67        69        75        77
        75        77        79        85        77        79        85        87
        85        87        89        95        87        89        95        97
        95        97        99       105        97        99       105       107
       105       107       109       115       107       109       115       117
       115       117       119       125       117       119       125       127
       125       127       129       135       127       129       135       137
       135       137       139       145       137       139       145       147
       145       147       149       155       147       149       155       157
