* COORD
*
        54  EXT
         1         1  TRIA  CAY           6.6744157365        7.2516161620       -8.2754456185  PEPT           1          1.0000000000
         2         1  TRIA  HY1           7.1884715468        8.1423007905       -8.4867798077  PEPT           1          1.0000000000
         3         1  TRIA  HY2           7.9749687389        7.4498276614       -7.9472529818  PEPT           1          1.0000000000
         4         1  TRIA  HY3           6.5045629030        7.0123427035       -7.5510306745  PEPT           1          1.0000000000
         5         1  TRIA  CY            7.6361180120        7.6880160395       -7.3158940174  PEPT           1          1.0000000000
         6         1  TRIA  OY            7.3833960847        7.3438723834       -7.9448806951  PEPT           1          1.0000000000
         7         1  TRIA  N1            7.3654700230        6.8755814460       -6.4291828098  PEPT           1          1.0000000000
         8         1  TRIA  HN1           7.6382073362        7.5988357668       -7.2671944437  PEPT           1          1.0000000000
         9         1  TRIA  CA1           8.4095913576        7.1381998333       -6.3810514824  PEPT           1          1.0000000000
        10         1  TRIA  HA1           8.0761401699        8.2365173336       -6.2180246129  PEPT           1          1.0000000000
        11         1  TRIA  CB1           7.9832613578        7.5237722300       -7.6485287071  PEPT           1          1.0000000000
        12         1  TRIA  HB11          6.7183927648        6.8254231219       -8.1475597108  PEPT           1          1.0000000000
        13         1  TRIA  HB21          7.9200951799        8.2116839741       -8.1248376467  PEPT           1          1.0000000000
        14         1  TRIA  HB31          8.0597810869        8.3932687931       -7.7491770988  PEPT           1          1.0000000000
        15         1  TRIA  C1            8.2482517506        7.2426070469       -7.9699818747  PEPT           1          1.0000000000
        16         1  TRIA  O1            7.8592191848        8.6176252159       -8.0488683146  PEPT           1          1.0000000000
        17         1  TRIA  N2            7.1592150212        6.7190820645       -6.9298104310  PEPT           1          1.0000000000
        18         1  TRIA  HN2           7.7699901534        7.1050719559       -7.9806660703  PEPT           1          1.0000000000
        19         1  TRIA  CA2           7.2712077187        7.3886223329       -7.9278221508  PEPT           1          1.0000000000
        20         1  TRIA  HA2           7.9101843730        7.6926442611       -7.2261058987  PEPT           1          1.0000000000
        21         1  TRIA  CB2           6.8835873786        8.4606785073       -8.0373992408  PEPT           1          1.0000000000
        22         1  TRIA  HB12          7.4269783767        7.4859171583       -7.7934657241  PEPT           1          1.0000000000
        23         1  TRIA  HB22          7.9992285439        8.3315543821       -7.1541152654  PEPT           1          1.0000000000
        24         1  TRIA  HB32          8.1014928150        6.9654905878       -8.4056018428  PEPT           1          1.0000000000
        25         1  TRIA  C2            7.3654700492        6.8755814841       -6.4291828277  PEPT           1          1.0000000000
        26         1  TRIA  O2            7.8332760350        7.5235970367       -7.1925656596  PEPT           1          1.0000000000
        27         1  TRIA  N3            7.6366752146        7.6858052902       -7.3161254133  PEPT           1          1.0000000000
        28         1  TRIA  HN3           7.9559207845        8.3655022811       -6.7512804394  PEPT           1          1.0000000000
        29         1  TRIA  CA3           7.8824198548        6.7556946456       -7.9321000679  PEPT           1          1.0000000000
        30         1  TRIA  HA3           8.2007356373        7.7175623975       -6.9914954818  PEPT           1          1.0000000000
        31         1  TRIA  CB3           7.4979990260        7.7595537322       -8.1943895438  PEPT           1          1.0000000000
        32         1  TRIA  HB13          7.1875982462        7.2697959818       -7.6073696428  PEPT           1          1.0000000000
        33         1  TRIA  HB23          7.4604193186        6.8639177183       -6.9717810464  PEPT           1          1.0000000000
        34         1  TRIA  HB33          7.1631644224        8.0349729291       -7.1315369327  PEPT           1          1.0000000000
        35         1  TRIA  C3            6.9572543811        7.4047160355       -6.8198787468  PEPT           1          1.0000000000
        36         1  TRIA  O3            7.9499674714        7.1490425679       -7.9875932337  PEPT           1          1.0000000000
        37         1  TRIA  NT            6.4469300363        7.1410249534       -7.5479530649  PEPT           1          1.0000000000
        38         1  TRIA  HNT           6.6096455766        8.2864818790       -7.3947186307  PEPT           1          1.0000000000
        39         1  TRIA  CAT           7.5188529580        6.8586497673       -7.1405005991  PEPT           1          1.0000000000
        40         1  TRIA  HT1           6.7971542529        7.3539515153       -8.0651268853  PEPT           1          1.0000000000
        41         1  TRIA  HT2           6.6459220602        7.1876160495       -6.8468071780  PEPT           1          1.0000000000
        42         1  TRIA  HT3           7.7283670610        7.0659819838       -7.7189174859  PEPT           1          1.0000000000
        43         1  TIP3  OH2           3.2590000000       13.0290000000        6.0320000000  SOLV           1          1.0000000000
        44         1  TIP3  H1            2.8000000000       12.3500000000        6.5270000000  SOLV           1          1.0000000000
        45         1  TIP3  H2            2.8140000000       13.0510000000        5.1850000000  SOLV           1          1.0000000000
        46         2  TIP3  OH2          -4.8140000000       12.1310000000        7.5690000000  SOLV           2          1.0000000000
        47         2  TIP3  H1           -4.8380000000       12.8680000000        6.9600000000  SOLV           2          1.0000000000
        48         2  TIP3  H2           -4.1670000000       12.3840000000        8.2270000000  SOLV           2          1.0000000000
        49         3  TIP3  OH2          -2.6620000000       12.2360000000        3.4640000000  SOLV           3          1.0000000000
        50         3  TIP3  H1           -3.0720000000       12.8490000000        2.8550000000  SOLV           3          1.0000000000
        51         3  TIP3  H2           -2.2790000000       12.7910000000        4.1430000000  SOLV           3          1.0000000000
        52         4  TIP3  OH2           9.3790000000       12.3780000000       -2.0160000000  SOLV           4          1.0000000000
        53         4  TIP3  H1            9.3790000000       13.3160000000       -1.8330000000  SOLV           4          1.0000000000
        54         4  TIP3  H2           10.3010000000       12.1240000000       -1.9730000000  SOLV           4          1.0000000000
