* COORD
*
        54  EXT
         1         1  TRIA  CAY          -3.8297488789       10.0685794838       10.2455492140  PEPT           1          1.0000000000
         2         1  TRIA  HY1          -3.8852219643        9.9900578051       11.3517160327  PEPT           1          1.0000000000
         3         1  TRIA  HY2          -2.7856272178       10.3197240478        9.9593851145  PEPT           1          1.0000000000
         4         1  TRIA  HY3          -4.4990274730       10.8816667134        9.8949828531  PEPT           1          1.0000000000
         5         1  TRIA  CY           -4.2076703939        8.7784948495        9.6225322424  PEPT           1          1.0000000000
         6         1  TRIA  OY           -3.3910700685        8.1094977222        9.0126675921  PEPT           1          1.0000000000
         7         1  TRIA  N1           -5.4911199179        8.4171266288        9.7588490051  PEPT           1          1.0000000000
         8         1  TRIA  HN1          -6.0993839020        8.9953303454       10.2846788157  PEPT           1          1.0000000000
         9         1  TRIA  CA1          -6.0641585018        7.1823366473        9.2539410246  PEPT           1          1.0000000000
        10         1  TRIA  HA1          -5.4691319169        6.3543761570        9.7071466500  PEPT           1          1.0000000000
        11         1  TRIA  CB1          -7.5125679404        7.0214451051        9.7717475556  PEPT           1          1.0000000000
        12         1  TRIA  HB11         -8.1825304343        7.8066189762        9.3683858951  PEPT           1          1.0000000000
        13         1  TRIA  HB21         -7.5244540817        7.0935089308       10.8801561071  PEPT           1          1.0000000000
        14         1  TRIA  HB31         -7.9220208174        6.0267224079        9.4930685093  PEPT           1          1.0000000000
        15         1  TRIA  C1           -5.9610007343        6.9461463137        7.7375481376  PEPT           1          1.0000000000
        16         1  TRIA  O1           -5.6838278247        5.8374413649        7.2994351378  PEPT           1          1.0000000000
        17         1  TRIA  N2           -6.1248072409        7.9277220420        6.8230058419  PEPT           1          1.0000000000
        18         1  TRIA  HN2          -5.7296366163        7.6382916281        5.9573859240  PEPT           1          1.0000000000
        19         1  TRIA  CA2          -7.2238259430        8.8714996947        6.6390122635  PEPT           1          1.0000000000
        20         1  TRIA  HA2          -7.0316762362        9.3067786470        5.6309629302  PEPT           1          1.0000000000
        21         1  TRIA  CB2          -7.1824211591       10.0741559235        7.6105368369  PEPT           1          1.0000000000
        22         1  TRIA  HB12         -7.5172501735        9.7862759487        8.6253185562  PEPT           1          1.0000000000
        23         1  TRIA  HB22         -6.1472966044       10.4714238881        7.6728515011  PEPT           1          1.0000000000
        24         1  TRIA  HB32         -7.8479852780       10.8876671733        7.2481000254  PEPT           1          1.0000000000
        25         1  TRIA  C2           -8.6362261890        8.2871042574        6.5180572394  PEPT           1          1.0000000000
        26         1  TRIA  O2           -9.5484235031        9.0096708729        6.1308987928  PEPT           1          1.0000000000
        27         1  TRIA  N3           -8.7569479000        6.9424613327        6.6001656099  PEPT           1          1.0000000000
        28         1  TRIA  HN3          -7.9211579574        6.4279980036        6.7723047864  PEPT           1          1.0000000000
        29         1  TRIA  CA3          -9.9619170511        6.1267476258        6.6313989218  PEPT           1          1.0000000000
        30         1  TRIA  HA3          -9.7579119596        5.3917742597        7.4428444459  PEPT           1          1.0000000000
        31         1  TRIA  CB3         -11.2443741776        6.8735915139        7.0871980229  PEPT           1          1.0000000000
        32         1  TRIA  HB13        -11.0384159638        7.4715323754        7.9987747042  PEPT           1          1.0000000000
        33         1  TRIA  HB23        -11.5972054853        7.5622887399        6.2903500679  PEPT           1          1.0000000000
        34         1  TRIA  HB33        -12.0604454213        6.1554341530        7.3156096046  PEPT           1          1.0000000000
        35         1  TRIA  C3          -10.2549563567        5.2300414027        5.4095343792  PEPT           1          1.0000000000
        36         1  TRIA  O3          -11.3292853595        4.6435808648        5.3428146961  PEPT           1          1.0000000000
        37         1  TRIA  NT           -9.3108430617        4.8154388499        4.5313486057  PEPT           1          1.0000000000
        38         1  TRIA  HNT          -9.6705929330        4.1426833607        3.8894953406  PEPT           1          1.0000000000
        39         1  TRIA  CAT          -7.9308792227        5.2071084819        4.3435670007  PEPT           1          1.0000000000
        40         1  TRIA  HT1          -7.3296303016        5.0312473031        5.2640883685  PEPT           1          1.0000000000
        41         1  TRIA  HT2          -7.4753810776        4.6070797034        3.5245764894  PEPT           1          1.0000000000
        42         1  TRIA  HT3          -7.8619447599        6.2813284545        4.0580091581  PEPT           1          1.0000000000
        43         1  TIP3  OH2           2.9190000000        5.1620000000        5.2690000000  SOLV           1          1.0000000000
        44         1  TIP3  H1            2.8970000000        4.4910000000        5.9500000000  SOLV           1          1.0000000000
        45         1  TIP3  H2            2.7880000000        5.9850000000        5.7380000000  SOLV           1          1.0000000000
        46         2  TIP3  OH2          -6.1690000000        3.4920000000       10.6220000000  SOLV           2          1.0000000000
        47         2  TIP3  H1           -5.9250000000        2.7190000000       11.1310000000  SOLV           2          1.0000000000
        48         2  TIP3  H2           -6.3640000000        3.1530000000        9.7490000000  SOLV           2          1.0000000000
        49         3  TIP3  OH2           4.0680000000        2.3380000000        8.2010000000  SOLV           3          1.0000000000
        50         3  TIP3  H1            3.6230000000        3.1640000000        8.3870000000  SOLV           3          1.0000000000
        51         3  TIP3  H2            4.0870000000        2.2850000000        7.2460000000  SOLV           3          1.0000000000
        52         4  TIP3  OH2           3.0990000000       -2.4640000000        9.4340000000  SOLV           4          1.0000000000
        53         4  TIP3  H1            3.0920000000       -1.5080000000        9.4120000000  SOLV           4          1.0000000000
        54         4  TIP3  H2            2.2270000000       -2.7180000000        9.1360000000  SOLV           4          1.0000000000
