PSF EXT CMAP XPLOR AUTOG

         1 !NTITLE
*  DATE:     7/11/26     19:52:21      CREATED BY USER: ericboittier            

        54 !NATOM
         1 PEPT     1        TRIA     CAY      CG331   -0.270000       12.0110           0
         2 PEPT     1        TRIA     HY1      HGA3     0.900000E-01   1.00800           0
         3 PEPT     1        TRIA     HY2      HGA3     0.900000E-01   1.00800           0
         4 PEPT     1        TRIA     HY3      HGA3     0.900000E-01   1.00800           0
         5 PEPT     1        TRIA     CY       CG2O1    0.510000       12.0110           0
         6 PEPT     1        TRIA     OY       OG2D1   -0.510000       15.9994           0
         7 PEPT     1        TRIA     N1       NG2S1   -0.470000       14.0070           0
         8 PEPT     1        TRIA     HN1      HGP1     0.310000       1.00800           0
         9 PEPT     1        TRIA     CA1      CG311    0.700000E-01   12.0110           0
        10 PEPT     1        TRIA     HA1      HGA1     0.900000E-01   1.00800           0
        11 PEPT     1        TRIA     CB1      CG331   -0.270000       12.0110           0
        12 PEPT     1        TRIA     HB11     HGA3     0.900000E-01   1.00800           0
        13 PEPT     1        TRIA     HB21     HGA3     0.900000E-01   1.00800           0
        14 PEPT     1        TRIA     HB31     HGA3     0.900000E-01   1.00800           0
        15 PEPT     1        TRIA     C1       CG2O1    0.510000       12.0110           0
        16 PEPT     1        TRIA     O1       OG2D1   -0.510000       15.9994           0
        17 PEPT     1        TRIA     N2       NG2S1   -0.470000       14.0070           0
        18 PEPT     1        TRIA     HN2      HGP1     0.310000       1.00800           0
        19 PEPT     1        TRIA     CA2      CG311    0.700000E-01   12.0110           0
        20 PEPT     1        TRIA     HA2      HGA1     0.900000E-01   1.00800           0
        21 PEPT     1        TRIA     CB2      CG331   -0.270000       12.0110           0
        22 PEPT     1        TRIA     HB12     HGA3     0.900000E-01   1.00800           0
        23 PEPT     1        TRIA     HB22     HGA3     0.900000E-01   1.00800           0
        24 PEPT     1        TRIA     HB32     HGA3     0.900000E-01   1.00800           0
        25 PEPT     1        TRIA     C2       CG2O1    0.510000       12.0110           0
        26 PEPT     1        TRIA     O2       OG2D1   -0.510000       15.9994           0
        27 PEPT     1        TRIA     N3       NG2S1   -0.470000       14.0070           0
        28 PEPT     1        TRIA     HN3      HGP1     0.310000       1.00800           0
        29 PEPT     1        TRIA     CA3      CG311    0.700000E-01   12.0110           0
        30 PEPT     1        TRIA     HA3      HGA1     0.900000E-01   1.00800           0
        31 PEPT     1        TRIA     CB3      CG331   -0.270000       12.0110           0
        32 PEPT     1        TRIA     HB13     HGA3     0.900000E-01   1.00800           0
        33 PEPT     1        TRIA     HB23     HGA3     0.900000E-01   1.00800           0
        34 PEPT     1        TRIA     HB33     HGA3     0.900000E-01   1.00800           0
        35 PEPT     1        TRIA     C3       CG2O1    0.510000       12.0110           0
        36 PEPT     1        TRIA     O3       OG2D1   -0.510000       15.9994           0
        37 PEPT     1        TRIA     NT       NG2S1   -0.470000       14.0070           0
        38 PEPT     1        TRIA     HNT      HGP1     0.310000       1.00800           0
        39 PEPT     1        TRIA     CAT      CG331   -0.110000       12.0110           0
        40 PEPT     1        TRIA     HT1      HGA3     0.900000E-01   1.00800           0
        41 PEPT     1        TRIA     HT2      HGA3     0.900000E-01   1.00800           0
        42 PEPT     1        TRIA     HT3      HGA3     0.900000E-01   1.00800           0
        43 SOLV     1        TIP3     OH2      OT      -0.834000       15.9994           0
        44 SOLV     1        TIP3     H1       HT       0.417000       1.00800           0
        45 SOLV     1        TIP3     H2       HT       0.417000       1.00800           0
        46 SOLV     2        TIP3     OH2      OT      -0.834000       15.9994           0
        47 SOLV     2        TIP3     H1       HT       0.417000       1.00800           0
        48 SOLV     2        TIP3     H2       HT       0.417000       1.00800           0
        49 SOLV     3        TIP3     OH2      OT      -0.834000       15.9994           0
        50 SOLV     3        TIP3     H1       HT       0.417000       1.00800           0
        51 SOLV     3        TIP3     H2       HT       0.417000       1.00800           0
        52 SOLV     4        TIP3     OH2      OT      -0.834000       15.9994           0
        53 SOLV     4        TIP3     H1       HT       0.417000       1.00800           0
        54 SOLV     4        TIP3     H2       HT       0.417000       1.00800           0

        53 !NBOND: bonds
         1         2         1         3         1         4         1         5
         5         6         5         7         7         8         7         9
         9        10         9        11         9        15        11        12
        11        13        11        14        15        16        15        17
        17        18        17        19        19        20        19        21
        19        25        21        22        21        23        21        24
        25        26        25        27        27        28        27        29
        29        30        29        31        29        35        31        32
        31        33        31        34        35        36        35        37
        37        38        37        39        39        40        39        41
        39        42        43        44        43        45        44        45
        46        47        46        48        47        48        49        50
        49        51        50        51        52        53        52        54
        53        54

        76 !NTHETA: angles
         2         1         3         2         1         4         2         1         5
         3         1         4         3         1         5         4         1         5
         1         5         6         1         5         7         6         5         7
         5         7         8         5         7         9         8         7         9
         7         9        10         7         9        11         7         9        15
        10         9        11        10         9        15        11         9        15
         9        11        12         9        11        13         9        11        14
        12        11        13        12        11        14        13        11        14
         9        15        16         9        15        17        16        15        17
        15        17        18        15        17        19        18        17        19
        17        19        20        17        19        21        17        19        25
        20        19        21        20        19        25        21        19        25
        19        21        22        19        21        23        19        21        24
        22        21        23        22        21        24        23        21        24
        19        25        26        19        25        27        26        25        27
        25        27        28        25        27        29        28        27        29
        27        29        30        27        29        31        27        29        35
        30        29        31        30        29        35        31        29        35
        29        31        32        29        31        33        29        31        34
        32        31        33        32        31        34        33        31        34
        29        35        36        29        35        37        36        35        37
        35        37        38        35        37        39        38        37        39
        37        39        40        37        39        41        37        39        42
        40        39        41        40        39        42        41        39        42
        44        43        45        47        46        48        50        49        51
        53        52        54

        91 !NPHI: dihedrals
         1         5         7         8         1         5         7         9
         2         1         5         6         2         1         5         7
         3         1         5         6         3         1         5         7
         4         1         5         6         4         1         5         7
         5         7         9        10         5         7         9        11
         5         7         9        15         6         5         7         8
         6         5         7         9         7         9        11        12
         7         9        11        13         7         9        11        14
         7         9        15        16         7         9        15        17
         8         7         9        10         8         7         9        11
         8         7         9        15         9        15        17        18
         9        15        17        19        10         9        11        12
        10         9        11        13        10         9        11        14
        10         9        15        16        10         9        15        17
        11         9        15        16        11         9        15        17
        12        11         9        15        13        11         9        15
        14        11         9        15        15        17        19        20
        15        17        19        21        15        17        19        25
        16        15        17        18        16        15        17        19
        17        19        21        22        17        19        21        23
        17        19        21        24        17        19        25        26
        17        19        25        27        18        17        19        20
        18        17        19        21        18        17        19        25
        19        25        27        28        19        25        27        29
        20        19        21        22        20        19        21        23
        20        19        21        24        20        19        25        26
        20        19        25        27        21        19        25        26
        21        19        25        27        22        21        19        25
        23        21        19        25        24        21        19        25
        25        27        29        30        25        27        29        31
        25        27        29        35        26        25        27        28
        26        25        27        29        27        29        31        32
        27        29        31        33        27        29        31        34
        27        29        35        36        27        29        35        37
        28        27        29        30        28        27        29        31
        28        27        29        35        29        35        37        38
        29        35        37        39        30        29        31        32
        30        29        31        33        30        29        31        34
        30        29        35        36        30        29        35        37
        31        29        35        36        31        29        35        37
        32        31        29        35        33        31        29        35
        34        31        29        35        35        37        39        40
        35        37        39        41        35        37        39        42
        36        35        37        38        36        35        37        39
        38        37        39        40        38        37        39        41
        38        37        39        42

         0 !NIMPHI: impropers


         0 !NDON: donors


         4 !NACC: acceptors
        43         0        46         0        49         0        52         0

         0 !NNB

         0         0         0         0         0         0         0         0
         0         0         0         0         0         0         0         0
         0         0         0         0         0         0         0         0
         0         0         0         0         0         0         0         0
         0         0         0         0         0         0         0         0
         0         0         0         0         0         0         0         0
         0         0         0         0         0         0

        10         0 !NGRP NST2
         0         2         0         8         2         0        16         1         0
        24         2         0        32         1         0        40         2         0
        42         1         0        45         1         0        48         1         0
        51         1         0

         0         0 !NUMLP NUMLPH

         3 !NCRTERM: cross-terms
         5         7         9        15         7         9        15        17
        15        17        19        25        17        19        25        27
        25        27        29        35        27        29        35        37

         0 !AUTOGEN
         0         0         0         0         0         0         0         0
         0         0         0         0         0         0         0         0
         0         0         0         0         0         0         0         0
         0         0         0         0         0         0         0         0
         0         0         0         0         0         0         0         0
         0         0       111       111       111       111       111       111
       111       111       111       111       111       111
         0         0         0         0         0         0         0         0
         0         0         0         0         0         0         0         0
         0         0         0         0         0         0         0         0
         0         0         0         0         0         0         0         0
         0         0         0         0         0         0         0         0
         0         0         0         0         0         0         0         0
         0         0         0         0         0
