PSF EXT CMAP XPLOR

         2 !NTITLE
* EXECUTING CHARMM SCRIPT FROM PYTHON                                           
*  DATE:     7/ 5/26      8:57:52      CREATED BY USER: ericboittier            

        20 !NATOM
         1 CLST     1        DCM      C        CG321     0.00000       12.0110           0
         2 CLST     1        DCM      H1       HGA2      0.00000       1.00800           0
         3 CLST     1        DCM      H2       HGA2      0.00000       1.00800           0
         4 CLST     1        DCM      CL1      CLGA1     0.00000       35.4530           0
         5 CLST     1        DCM      CL2      CLGA1     0.00000       35.4530           0
         6 CLST     2        DCM      C        CG321     0.00000       12.0110           0
         7 CLST     2        DCM      H1       HGA2      0.00000       1.00800           0
         8 CLST     2        DCM      H2       HGA2      0.00000       1.00800           0
         9 CLST     2        DCM      CL1      CLGA1     0.00000       35.4530           0
        10 CLST     2        DCM      CL2      CLGA1     0.00000       35.4530           0
        11 CLST     3        DCM      C        CG321     0.00000       12.0110           0
        12 CLST     3        DCM      H1       HGA2      0.00000       1.00800           0
        13 CLST     3        DCM      H2       HGA2      0.00000       1.00800           0
        14 CLST     3        DCM      CL1      CLGA1     0.00000       35.4530           0
        15 CLST     3        DCM      CL2      CLGA1     0.00000       35.4530           0
        16 CLST     4        DCM      C        CG321     0.00000       12.0110           0
        17 CLST     4        DCM      H1       HGA2      0.00000       1.00800           0
        18 CLST     4        DCM      H2       HGA2      0.00000       1.00800           0
        19 CLST     4        DCM      CL1      CLGA1     0.00000       35.4530           0
        20 CLST     4        DCM      CL2      CLGA1     0.00000       35.4530           0

        16 !NBOND: bonds
         2         1         1         4         1         5         1         3
         7         6         6         9         6        10         6         8
        12        11        11        14        11        15        11        13
        17        16        16        19        16        20        16        18

        24 !NTHETA: angles
         2         1         3         2         1         4         2         1         5
         3         1         4         3         1         5         4         1         5
         7         6         8         7         6         9         7         6        10
         8         6         9         8         6        10         9         6        10
        12        11        13        12        11        14        12        11        15
        13        11        14        13        11        15        14        11        15
        17        16        18        17        16        19        17        16        20
        18        16        19        18        16        20        19        16        20

         0 !NPHI: dihedrals


         0 !NIMPHI: impropers


         0 !NDON: donors


         0 !NACC: acceptors


       190 !NNB
         2         3         4         5         6         7         8         9
        10        11        12        13        14        15        16        17
        18        19        20         3         4         5         6         7
         8         9        10        11        12        13        14        15
        16        17        18        19        20         4         5         6
         7         8         9        10        11        12        13        14
        15        16        17        18        19        20         5         6
         7         8         9        10        11        12        13        14
        15        16        17        18        19        20         6         7
         8         9        10        11        12        13        14        15
        16        17        18        19        20         7         8         9
        10        11        12        13        14        15        16        17
        18        19        20         8         9        10        11        12
        13        14        15        16        17        18        19        20
         9        10        11        12        13        14        15        16
        17        18        19        20        10        11        12        13
        14        15        16        17        18        19        20        11
        12        13        14        15        16        17        18        19
        20        12        13        14        15        16        17        18
        19        20        13        14        15        16        17        18
        19        20        14        15        16        17        18        19
        20        15        16        17        18        19        20        16
        17        18        19        20        17        18        19        20
        18        19        20        19        20        20
        19        37        54        70        85        99       112       124
       135       145       154       162       169       175       180       184
       187       189       190       190

         4         0 !NGRP NST2
         0         1         0         5         1         0        10         1         0
        15         1         0

         0         0 !NUMLP NUMLPH

         0 !NCRTERM: cross-terms

