PSF EXT CMAP XPLOR AUTOG

         1 !NTITLE
*  DATE:     7/20/26     17: 6:23      CREATED BY USER: boittier                

         6 !NATOM
         1 CLST     1        TIP3     OH2      OT      -0.834000       15.9994           0
         2 CLST     1        TIP3     H1       HT       0.417000       1.00800           0
         3 CLST     1        TIP3     H2       HT       0.417000       1.00800           0
         4 CLST     2        TIP3     OH2      OT      -0.834000       15.9994           0
         5 CLST     2        TIP3     H1       HT       0.417000       1.00800           0
         6 CLST     2        TIP3     H2       HT       0.417000       1.00800           0

         6 !NBOND: bonds
         1         2         1         3         2         3         4         5
         4         6         5         6

         2 !NTHETA: angles
         2         1         3         5         4         6

         0 !NPHI: dihedrals


         0 !NIMPHI: impropers


         0 !NDON: donors


         2 !NACC: acceptors
         1         0         4         0

         0 !NNB

         0         0         0         0         0         0

         2         0 !NGRP NST2
         0         1         0         3         1         0

         0         0 !NUMLP NUMLPH

         0 !NCRTERM: cross-terms


         0 !AUTOGEN
       111       111       111       111       111       111
         0         0         0         0         0         0
