* COORD
*
        1644  EXT
         1         1  TIP3  OH2           4.4626183719       30.3324474286       29.7003490932  CLST           1          1.0000000000
         2         1  TIP3  H1            4.7571107751       30.2716743138       30.6062186045  CLST           1          1.0000000000
         3         1  TIP3  H2            5.1146456209       29.6662625498       29.4000113888  CLST           1          1.0000000000
         4         2  TIP3  OH2          10.6225858101        7.3927030092       20.1258347436  CLST           2          1.0000000000
         5         2  TIP3  H1           11.0237970319        7.3422235677       21.0086734035  CLST           2          1.0000000000
         6         2  TIP3  H2            9.7177392172        7.2587295963       20.3087860520  CLST           2          1.0000000000
         7         3  TIP3  OH2           8.6688444454        5.3972416743       27.6090669079  CLST           3          1.0000000000
         8         3  TIP3  H1            9.1861885614        5.6685936864       28.3536400429  CLST           3          1.0000000000
         9         3  TIP3  H2            8.7546350031        6.1262311242       27.0025506241  CLST           3          1.0000000000
        10         4  TIP3  OH2          29.0943787253        6.8570897920       10.1192073057  CLST           4          1.0000000000
        11         4  TIP3  H1           28.2597918883        7.0551044589        9.5932015931  CLST           4          1.0000000000
        12         4  TIP3  H2           28.8265937157        7.3405278273       10.9287798795  CLST           4          1.0000000000
        13         5  TIP3  OH2           9.1599676476        6.2771226257       10.5167916677  CLST           5          1.0000000000
        14         5  TIP3  H1            8.5430500187        5.8745135542       11.1290532902  CLST           5          1.0000000000
        15         5  TIP3  H2            9.3075328360        5.4791699825        9.9093248652  CLST           5          1.0000000000
        16         6  TIP3  OH2          10.5665803859       25.9231124619       20.2497696234  CLST           6          1.0000000000
        17         6  TIP3  H1           11.1688079411       26.3395321682       20.8673565669  CLST           6          1.0000000000
        18         6  TIP3  H2           10.6751096485       26.5860273286       19.5075955769  CLST           6          1.0000000000
        19         7  TIP3  OH2          19.6564708771        8.3005262087        5.7223261491  CLST           7          1.0000000000
        20         7  TIP3  H1           19.2186426711        9.1243985386        6.0534640438  CLST           7          1.0000000000
        21         7  TIP3  H2           20.4596068083        8.3235787172        6.2844308947  CLST           7          1.0000000000
        22         8  TIP3  OH2          27.3717172376       23.5978389013        0.6482992718  CLST           8          1.0000000000
        23         8  TIP3  H1           27.2524631894       23.8184966195        1.6240893897  CLST           8          1.0000000000
        24         8  TIP3  H2           28.1695895564       24.1313749459        0.3678356625  CLST           8          1.0000000000
        25         9  TIP3  OH2           2.6807393012       17.6561870901       27.8755066177  CLST           9          1.0000000000
        26         9  TIP3  H1            1.7678044823       17.8616455623       28.1524594488  CLST           9          1.0000000000
        27         9  TIP3  H2            3.1434086301       17.9592925811       28.6246248643  CLST           9          1.0000000000
        28        10  TIP3  OH2          17.6110765871       30.6244942915       31.5117545911  CLST          10          1.0000000000
        29        10  TIP3  H1           17.8543507154       30.5005575275       30.5942805786  CLST          10          1.0000000000
        30        10  TIP3  H2           18.1141867463       29.9695681336       31.9753131826  CLST          10          1.0000000000
        31        11  TIP3  OH2           7.0004399491        6.6588255414       30.0016401406  CLST          11          1.0000000000
        32        11  TIP3  H1            7.3127737869        5.7953602830       30.3131792363  CLST          11          1.0000000000
        33        11  TIP3  H2            6.7943456484        6.4548156136       29.0293380220  CLST          11          1.0000000000
        34        12  TIP3  OH2          23.6765721006        2.6880490016        1.7971118421  CLST          12          1.0000000000
        35        12  TIP3  H1           24.2308087699        2.7889586581        1.0421099898  CLST          12          1.0000000000
        36        12  TIP3  H2           22.8086108066        2.6670392722        1.4169871373  CLST          12          1.0000000000
        37        13  TIP3  OH2           7.6429596096        2.5720597816        2.1054338755  CLST          13          1.0000000000
        38        13  TIP3  H1            7.8274025318        3.4552402787        1.7021028359  CLST          13          1.0000000000
        39        13  TIP3  H2            7.5948890071        2.6862054131        3.0900805600  CLST          13          1.0000000000
        40        14  TIP3  OH2          31.5235683492        2.1148861812        7.8592100634  CLST          14          1.0000000000
        41        14  TIP3  H1           31.8504198432        2.9765630129        7.6511389973  CLST          14          1.0000000000
        42        14  TIP3  H2           32.1942157651        1.6003512838        7.3955440992  CLST          14          1.0000000000
        43        15  TIP3  OH2          22.9822526058       27.9749695676       19.0537939960  CLST          15          1.0000000000
        44        15  TIP3  H1           23.7802247241       27.9742248875       18.5559190382  CLST          15          1.0000000000
        45        15  TIP3  H2           23.2377928250       27.5625101679       19.8711476300  CLST          15          1.0000000000
        46        16  TIP3  OH2          28.0180480237       19.0684045162       25.6138872662  CLST          16          1.0000000000
        47        16  TIP3  H1           27.3596718647       18.9506101456       26.3020006610  CLST          16          1.0000000000
        48        16  TIP3  H2           28.8620439912       19.1249581407       26.1186509156  CLST          16          1.0000000000
        49        17  TIP3  OH2           4.8467751780       18.3528173483       23.3813402679  CLST          17          1.0000000000
        50        17  TIP3  H1            5.4035016638       18.6842644290       24.0363636408  CLST          17          1.0000000000
        51        17  TIP3  H2            4.0639803860       18.2410121661       23.9585711404  CLST          17          1.0000000000
        52        18  TIP3  OH2          20.1475337030       25.2131189057       30.3807682973  CLST          18          1.0000000000
        53        18  TIP3  H1           19.7388249535       26.0603412326       30.1862827436  CLST          18          1.0000000000
        54        18  TIP3  H2           20.0915476986       24.8940069828       29.4672005597  CLST          18          1.0000000000
        55        19  TIP3  OH2          10.9507189483       31.7476978222        9.5893158854  CLST          19          1.0000000000
        56        19  TIP3  H1           10.6984194936       30.8400712995        9.8963643855  CLST          19          1.0000000000
        57        19  TIP3  H2           11.3151128602       31.5331015178        8.7084710292  CLST          19          1.0000000000
        58        20  TIP3  OH2          18.5633393712        1.4649813531        2.7931275181  CLST          20          1.0000000000
        59        20  TIP3  H1           18.8011492423        1.1677284805        1.8960879216  CLST          20          1.0000000000
        60        20  TIP3  H2           17.5913176257        1.5333696495        2.7887171837  CLST          20          1.0000000000
        61        21  TIP3  OH2          21.7989005917       12.5969552928       26.5006342379  CLST          21          1.0000000000
        62        21  TIP3  H1           21.2413502175       13.2894666525       26.1423356726  CLST          21          1.0000000000
        63        21  TIP3  H2           22.5924195225       12.4918210315       25.9347882255  CLST          21          1.0000000000
        64        22  TIP3  OH2           2.8789908661       12.0845592249       25.2647129138  CLST          22          1.0000000000
        65        22  TIP3  H1            3.4379344751       11.5442665711       25.8572759459  CLST          22          1.0000000000
        66        22  TIP3  H2            2.7981536891       12.9193584777       25.7816938021  CLST          22          1.0000000000
        67        23  TIP3  OH2           5.4825086487       30.0852690622       11.5053268674  CLST          23          1.0000000000
        68        23  TIP3  H1            5.4604912927       29.4589515546       10.7515104920  CLST          23          1.0000000000
        69        23  TIP3  H2            5.2656293400       30.9799007115       11.1026808445  CLST          23          1.0000000000
        70        24  TIP3  OH2           0.0095556681        1.1577765694        4.5394287754  CLST          24          1.0000000000
        71        24  TIP3  H1            0.9365134628        1.0399525056        4.7382093392  CLST          24          1.0000000000
        72        24  TIP3  H2           -0.3675189040        0.3631897607        4.9472009248  CLST          24          1.0000000000
        73        25  TIP3  OH2           3.2441448676        2.0746977529       29.2730808788  CLST          25          1.0000000000
        74        25  TIP3  H1            3.5882309054        1.3739033481       29.7925515060  CLST          25          1.0000000000
        75        25  TIP3  H2            3.7225482871        2.9257028573       29.5216442141  CLST          25          1.0000000000
        76        26  TIP3  OH2          11.4149716330        5.5353966732       25.3473137680  CLST          26          1.0000000000
        77        26  TIP3  H1           10.6056066343        5.3264778933       24.8167226818  CLST          26          1.0000000000
        78        26  TIP3  H2           11.1450966361        6.4226306310       25.6788660150  CLST          26          1.0000000000
        79        27  TIP3  OH2          21.5367753034        7.3877867771       26.4209350597  CLST          27          1.0000000000
        80        27  TIP3  H1           21.5505177061        7.8472575415       27.2639637784  CLST          27          1.0000000000
        81        27  TIP3  H2           21.2472793016        8.0684378583       25.7892277055  CLST          27          1.0000000000
        82        28  TIP3  OH2          27.5225281882       21.5948794671       25.1010911885  CLST          28          1.0000000000
        83        28  TIP3  H1           27.7174635017       20.6264062448       25.0847165754  CLST          28          1.0000000000
        84        28  TIP3  H2           26.8857311528       21.7413369197       25.8039845320  CLST          28          1.0000000000
        85        29  TIP3  OH2          21.0747544029        7.5772219674       29.3839247171  CLST          29          1.0000000000
        86        29  TIP3  H1           21.5741297830        8.2007856303       30.0244904350  CLST          29          1.0000000000
        87        29  TIP3  H2           20.3808072778        8.2913066022       29.0861163091  CLST          29          1.0000000000
        88        30  TIP3  OH2           8.7452084490       21.3283511550       29.7714938439  CLST          30          1.0000000000
        89        30  TIP3  H1            8.9920714818       21.0488961349       30.6374428228  CLST          30          1.0000000000
        90        30  TIP3  H2            8.6672800533       20.4705108327       29.3379556478  CLST          30          1.0000000000
        91        31  TIP3  OH2          22.0755405005       30.6159522067       18.8173103575  CLST          31          1.0000000000
        92        31  TIP3  H1           22.1582955586       29.6197831514       18.9152694375  CLST          31          1.0000000000
        93        31  TIP3  H2           22.1012122053       30.8813574417       19.7829309887  CLST          31          1.0000000000
        94        32  TIP3  OH2          23.0292533687       25.3971440004        7.0850056177  CLST          32          1.0000000000
        95        32  TIP3  H1           22.0970931833       25.4683144914        7.1877060339  CLST          32          1.0000000000
        96        32  TIP3  H2           23.2899328153       26.0813014606        6.4146106837  CLST          32          1.0000000000
        97        33  TIP3  OH2          11.7880587644       22.9090977400        8.9335803711  CLST          33          1.0000000000
        98        33  TIP3  H1           11.7534738199       21.9286379111        8.9670907844  CLST          33          1.0000000000
        99        33  TIP3  H2           11.2762476951       23.0120594949        9.6927444582  CLST          33          1.0000000000
       100        34  TIP3  OH2           4.1638495576       27.8759277962        2.9325471985  CLST          34          1.0000000000
       101        34  TIP3  H1            3.6711257279       27.6437469127        2.1013682835  CLST          34          1.0000000000
       102        34  TIP3  H2            4.4900222836       26.9467941990        3.0646367904  CLST          34          1.0000000000
       103        35  TIP3  OH2           6.1661595893       31.0024156313        4.5399570822  CLST          35          1.0000000000
       104        35  TIP3  H1            5.2372061011       30.7175752625        4.7647238344  CLST          35          1.0000000000
       105        35  TIP3  H2            6.3104607823       31.6597762694        5.2943993707  CLST          35          1.0000000000
       106        36  TIP3  OH2          30.2959374467        1.2841898351        2.2659538959  CLST          36          1.0000000000
       107        36  TIP3  H1           29.4832954585        0.7456571962        2.1193809566  CLST          36          1.0000000000
       108        36  TIP3  H2           30.6591615028        0.9904858465        3.0574573127  CLST          36          1.0000000000
       109        37  TIP3  OH2          27.4129526549       23.5472441673       18.8866326108  CLST          37          1.0000000000
       110        37  TIP3  H1           26.9340134256       23.2411354278       19.6911690497  CLST          37          1.0000000000
       111        37  TIP3  H2           27.7595462535       22.7696207357       18.4425252873  CLST          37          1.0000000000
       112        38  TIP3  OH2          28.7078216386        2.1767506543       27.4230778760  CLST          38          1.0000000000
       113        38  TIP3  H1           28.6615204339        3.1086939518       27.2129525339  CLST          38          1.0000000000
       114        38  TIP3  H2           28.1753284518        1.8379214886       26.6588265103  CLST          38          1.0000000000
       115        39  TIP3  OH2           1.7052509358       21.0099010838        2.0633747504  CLST          39          1.0000000000
       116        39  TIP3  H1            1.4930137145       20.3108564908        2.7123606851  CLST          39          1.0000000000
       117        39  TIP3  H2            0.8562899838       21.2919858653        1.7332117111  CLST          39          1.0000000000
       118        40  TIP3  OH2          24.8452927978       12.5178958339        8.1899315069  CLST          40          1.0000000000
       119        40  TIP3  H1           23.9669099378       12.8213334295        7.8620850367  CLST          40          1.0000000000
       120        40  TIP3  H2           25.5083381168       12.7458252313        7.4965646090  CLST          40          1.0000000000
       121        41  TIP3  OH2           9.7567178803       29.6495143024       20.8312129574  CLST          41          1.0000000000
       122        41  TIP3  H1            9.1211813318       29.0197860341       21.1160698212  CLST          41          1.0000000000
       123        41  TIP3  H2            9.4162605861       30.4909709911       21.2172645767  CLST          41          1.0000000000
       124        42  TIP3  OH2           9.7820306800       10.2564866139       21.2483337848  CLST          42          1.0000000000
       125        42  TIP3  H1           10.5349319236       10.1921445866       21.8263073874  CLST          42          1.0000000000
       126        42  TIP3  H2           10.1404404964       10.1645503424       20.2860918480  CLST          42          1.0000000000
       127        43  TIP3  OH2          11.9986406479       12.6672288864        7.6595773725  CLST          43          1.0000000000
       128        43  TIP3  H1           12.7085255733       13.2697912952        7.8833971225  CLST          43          1.0000000000
       129        43  TIP3  H2           12.2763856567       11.8921587508        8.0925999664  CLST          43          1.0000000000
       130        44  TIP3  OH2           7.7990621383        0.9684781422        5.9979407567  CLST          44          1.0000000000
       131        44  TIP3  H1            7.9190628119        1.4118438424        6.9247266282  CLST          44          1.0000000000
       132        44  TIP3  H2            7.3685431167        1.7193671349        5.5375261543  CLST          44          1.0000000000
       133        45  TIP3  OH2           7.9628755995        9.4002038895        7.3496906807  CLST          45          1.0000000000
       134        45  TIP3  H1            7.8659629391        8.5017283602        7.6777256864  CLST          45          1.0000000000
       135        45  TIP3  H2            8.8524545692        9.6379350379        7.6371724223  CLST          45          1.0000000000
       136        46  TIP3  OH2          26.2137322274       28.7028325064       18.9447248900  CLST          46          1.0000000000
       137        46  TIP3  H1           26.4092812439       27.8108971868       18.7632058640  CLST          46          1.0000000000
       138        46  TIP3  H2           26.8152459541       28.9597016019       19.5719355911  CLST          46          1.0000000000
       139        47  TIP3  OH2           1.4246587490       25.3132654377       20.8255896453  CLST          47          1.0000000000
       140        47  TIP3  H1            1.8652864022       26.1748707057       20.8886878169  CLST          47          1.0000000000
       141        47  TIP3  H2            1.1964153123       25.3035966700       19.7951026074  CLST          47          1.0000000000
       142        48  TIP3  OH2           5.0816490548        5.5868973896        1.0640852730  CLST          48          1.0000000000
       143        48  TIP3  H1            5.9923224100        5.3071876549        0.9108422786  CLST          48          1.0000000000
       144        48  TIP3  H2            5.2058665574        6.5503591986        1.0645741705  CLST          48          1.0000000000
       145        49  TIP3  OH2          28.5646877592       21.2017348842       18.0588947399  CLST          49          1.0000000000
       146        49  TIP3  H1           29.4077942088       21.1692226912       18.4369112022  CLST          49          1.0000000000
       147        49  TIP3  H2           28.0633295191       20.4801264689       18.4185185512  CLST          49          1.0000000000
       148        50  TIP3  OH2           2.7648954450        3.7939851311        5.8495001604  CLST          50          1.0000000000
       149        50  TIP3  H1            1.9940234380        4.0809575219        6.3850061631  CLST          50          1.0000000000
       150        50  TIP3  H2            2.3436439622        3.4392929630        5.0986243518  CLST          50          1.0000000000
       151        51  TIP3  OH2          25.4098678634       21.8201675924       27.0917747741  CLST          51          1.0000000000
       152        51  TIP3  H1           25.3244339196       21.9310951492       28.0710632041  CLST          51          1.0000000000
       153        51  TIP3  H2           25.6597448413       20.8430000698       27.1024881607  CLST          51          1.0000000000
       154        52  TIP3  OH2           9.1249007797       26.2155711294       31.6152093700  CLST          52          1.0000000000
       155        52  TIP3  H1            9.3424008351       26.2107358743       30.6717548119  CLST          52          1.0000000000
       156        52  TIP3  H2            9.2471228832       27.1446281692       31.8009476508  CLST          52          1.0000000000
       157        53  TIP3  OH2          22.1627333234       10.0628253727       19.3318940081  CLST          53          1.0000000000
       158        53  TIP3  H1           21.7948636142       10.2067477728       18.4775495277  CLST          53          1.0000000000
       159        53  TIP3  H2           22.9743016998        9.4790636268       19.2178525970  CLST          53          1.0000000000
       160        54  TIP3  OH2           0.6496103028       28.8884401738       22.2833209507  CLST          54          1.0000000000
       161        54  TIP3  H1            1.1283601120       28.5303469990       21.5824880843  CLST          54          1.0000000000
       162        54  TIP3  H2            0.1153778357       29.5539757130       21.7987470471  CLST          54          1.0000000000
       163        55  TIP3  OH2           2.9493441109       27.8274120169       17.1686340621  CLST          55          1.0000000000
       164        55  TIP3  H1            2.9442042984       27.0111054484       17.6967069840  CLST          55          1.0000000000
       165        55  TIP3  H2            3.2333917014       27.4239437545       16.3464836069  CLST          55          1.0000000000
       166        56  TIP3  OH2          21.8699467906       11.1336447699        5.6937905266  CLST          56          1.0000000000
       167        56  TIP3  H1           21.5203207410       10.3391454127        6.0035528392  CLST          56          1.0000000000
       168        56  TIP3  H2           21.5964258209       11.0360549842        4.7473789469  CLST          56          1.0000000000
       169        57  TIP3  OH2           1.6539911802       18.5552599407        0.2901205580  CLST          57          1.0000000000
       170        57  TIP3  H1            2.1395323421       19.0828628892        0.9389571302  CLST          57          1.0000000000
       171        57  TIP3  H2            2.2404709717       18.7172818377       -0.4632588033  CLST          57          1.0000000000
       172        58  TIP3  OH2          18.7489014393       10.6319972014        7.0112118374  CLST          58          1.0000000000
       173        58  TIP3  H1           19.2254810172       11.4571853753        6.9211640443  CLST          58          1.0000000000
       174        58  TIP3  H2           18.9746875775       10.4559658080        7.9500907227  CLST          58          1.0000000000
       175        59  TIP3  OH2          20.3803628702       29.2517836838        5.3820911212  CLST          59          1.0000000000
       176        59  TIP3  H1           20.0746940657       29.5021541704        6.2590958343  CLST          59          1.0000000000
       177        59  TIP3  H2           20.1382337958       30.0263550005        4.8994700441  CLST          59          1.0000000000
       178        60  TIP3  OH2           1.3908674767        9.5176008295        8.5367811137  CLST          60          1.0000000000
       179        60  TIP3  H1            0.7007687644        8.9654690064        8.1016492510  CLST          60          1.0000000000
       180        60  TIP3  H2            1.8747248362        8.7239303886        8.9395442079  CLST          60          1.0000000000
       181        61  TIP3  OH2           2.7709421533       31.2878309975       26.3740856477  CLST          61          1.0000000000
       182        61  TIP3  H1            3.2949576111       30.4841866276       26.5987192147  CLST          61          1.0000000000
       183        61  TIP3  H2            2.0989335135       30.9856690470       25.6815100189  CLST          61          1.0000000000
       184        62  TIP3  OH2           7.9958040190        8.3816692271       12.4171803669  CLST          62          1.0000000000
       185        62  TIP3  H1            8.0626652297        7.7030937469       11.6961675139  CLST          62          1.0000000000
       186        62  TIP3  H2            8.4897025570        9.1561573451       12.0111694729  CLST          62          1.0000000000
       187        63  TIP3  OH2           4.6071060309       24.8001112987       21.5252354298  CLST          63          1.0000000000
       188        63  TIP3  H1            3.7099181244       24.7419794433       21.1093670539  CLST          63          1.0000000000
       189        63  TIP3  H2            5.1623086703       24.3208118262       20.8492335272  CLST          63          1.0000000000
       190        64  TIP3  OH2          29.6204240744       11.7855670825        5.4185005134  CLST          64          1.0000000000
       191        64  TIP3  H1           29.7724582818       10.8674577868        5.3010895277  CLST          64          1.0000000000
       192        64  TIP3  H2           30.2523073775       11.9768043206        6.1458393956  CLST          64          1.0000000000
       193        65  TIP3  OH2          10.9342974700       27.5268744706       26.4707442011  CLST          65          1.0000000000
       194        65  TIP3  H1           11.4300337322       27.7409476717       25.6644999991  CLST          65          1.0000000000
       195        65  TIP3  H2           10.5038658406       28.3698063359       26.6737105815  CLST          65          1.0000000000
       196        66  TIP3  OH2           6.2715582381       21.9922747760        9.3404362191  CLST          66          1.0000000000
       197        66  TIP3  H1            5.5862204793       21.9053627834        8.6037894477  CLST          66          1.0000000000
       198        66  TIP3  H2            6.6442106112       22.7895317175        9.0591905891  CLST          66          1.0000000000
       199        67  TIP3  OH2          20.2327948178       24.1882392219       27.8310525872  CLST          67          1.0000000000
       200        67  TIP3  H1           21.0380347701       24.5874324284       27.5289333564  CLST          67          1.0000000000
       201        67  TIP3  H2           20.0803702039       23.4613929749       27.2588005891  CLST          67          1.0000000000
       202        68  TIP3  OH2          31.1317054045       26.3791150386        5.5468270700  CLST          68          1.0000000000
       203        68  TIP3  H1           32.1012094731       26.5223318782        5.6979999233  CLST          68          1.0000000000
       204        68  TIP3  H2           30.8594752605       26.4296360418        6.4381022752  CLST          68          1.0000000000
       205        69  TIP3  OH2           7.9385861611       11.6402909449       23.1009778843  CLST          69          1.0000000000
       206        69  TIP3  H1            8.2015203128       11.4528322385       22.2059928607  CLST          69          1.0000000000
       207        69  TIP3  H2            8.8103282454       11.7828447118       23.4868926827  CLST          69          1.0000000000
       208        70  TIP3  OH2          30.9192911986       19.4447418282       31.4258073159  CLST          70          1.0000000000
       209        70  TIP3  H1           31.8861507921       19.6756740656       31.4684148593  CLST          70          1.0000000000
       210        70  TIP3  H2           30.7187918765       19.2537962630       32.3626687643  CLST          70          1.0000000000
       211        71  TIP3  OH2          21.7111158061       24.5405550175        1.9185249146  CLST          71          1.0000000000
       212        71  TIP3  H1           21.0189869950       25.0960757093        2.2500163524  CLST          71          1.0000000000
       213        71  TIP3  H2           21.2282876468       23.8502963440        1.3422979092  CLST          71          1.0000000000
       214        72  TIP3  OH2           0.1879370909        1.9964635809       30.3611685958  CLST          72          1.0000000000
       215        72  TIP3  H1           -0.2177758482        1.0697565529       30.3969160193  CLST          72          1.0000000000
       216        72  TIP3  H2            0.9526253017        1.8396372370       29.7732392571  CLST          72          1.0000000000
       217        73  TIP3  OH2          22.1285364995       13.1236893273        7.4818132890  CLST          73          1.0000000000
       218        73  TIP3  H1           21.9771455833       12.3611760251        6.9038408651  CLST          73          1.0000000000
       219        73  TIP3  H2           21.5773874883       13.7896316124        7.0440122968  CLST          73          1.0000000000
       220        74  TIP3  OH2           6.6109404284       29.1320550583       28.3072666458  CLST          74          1.0000000000
       221        74  TIP3  H1            6.7418081788       28.3222143237       27.8203282615  CLST          74          1.0000000000
       222        74  TIP3  H2            7.4752436575       29.5976044776       28.3843484091  CLST          74          1.0000000000
       223        75  TIP3  OH2           3.0111592861       18.5505335815       25.1548062862  CLST          75          1.0000000000
       224        75  TIP3  H1            3.1687863874       19.5079958951       25.3365225368  CLST          75          1.0000000000
       225        75  TIP3  H2            2.9218179948       18.1273649624       26.0423088982  CLST          75          1.0000000000
       226        76  TIP3  OH2           3.9610939922       22.1446576537        1.3119972728  CLST          76          1.0000000000
       227        76  TIP3  H1            3.7832255074       23.0314014819        1.4852299893  CLST          76          1.0000000000
       228        76  TIP3  H2            3.0925318781       21.7610909120        1.5731595383  CLST          76          1.0000000000
       229        77  TIP3  OH2          10.2696071153       23.6734772557       29.3675477093  CLST          77          1.0000000000
       230        77  TIP3  H1            9.9526588257       22.7681239024       29.3605510010  CLST          77          1.0000000000
       231        77  TIP3  H2           10.6294370515       23.7056951737       28.4851006414  CLST          77          1.0000000000
       232        78  TIP3  OH2          10.6378424515       11.7017999697       24.0886235919  CLST          78          1.0000000000
       233        78  TIP3  H1           11.2938285086       10.9743699780       23.8911249201  CLST          78          1.0000000000
       234        78  TIP3  H2           11.1969406831       12.4477836738       24.0038150133  CLST          78          1.0000000000
       235        79  TIP3  OH2          12.8930576486        0.5826816645        1.2081924063  CLST          79          1.0000000000
       236        79  TIP3  H1           13.5966738629        1.1396161184        1.6660245737  CLST          79          1.0000000000
       237        79  TIP3  H2           12.1401447707        1.0760253158        1.4703313195  CLST          79          1.0000000000
       238        80  TIP3  OH2          24.3625462318       31.8473057814        6.5240248371  CLST          80          1.0000000000
       239        80  TIP3  H1           24.6270161460       31.6995542651        5.5814446694  CLST          80          1.0000000000
       240        80  TIP3  H2           25.2776207633       31.9559541626        6.8420269971  CLST          80          1.0000000000
       241        81  TIP3  OH2          24.2909683854       20.9862629845        2.2886518534  CLST          81          1.0000000000
       242        81  TIP3  H1           24.9912821846       20.6606664742        1.6430919443  CLST          81          1.0000000000
       243        81  TIP3  H2           24.6809491188       20.7749912995        3.1575000165  CLST          81          1.0000000000
       244        82  TIP3  OH2          30.3142855933       21.9064968582       25.4191715369  CLST          82          1.0000000000
       245        82  TIP3  H1           29.3397760426       21.8584808086       25.3742207769  CLST          82          1.0000000000
       246        82  TIP3  H2           30.4965906413       21.3919022276       26.1628430764  CLST          82          1.0000000000
       247        83  TIP3  OH2          12.4078813372       23.3146804518        1.5463965257  CLST          83          1.0000000000
       248        83  TIP3  H1           12.6695098025       24.0121268893        2.0042361218  CLST          83          1.0000000000
       249        83  TIP3  H2           11.3761312402       23.4886209514        1.4458871348  CLST          83          1.0000000000
       250        84  TIP3  OH2          28.2050105217       10.9597858349       29.7533579357  CLST          84          1.0000000000
       251        84  TIP3  H1           27.2751839469       10.9523884447       29.3910493350  CLST          84          1.0000000000
       252        84  TIP3  H2           28.3508095426       11.8955972572       29.8552397497  CLST          84          1.0000000000
       253        85  TIP3  OH2           5.7805998766       29.6367292242        0.1044303568  CLST          85          1.0000000000
       254        85  TIP3  H1            6.0370987934       30.1634344853        0.9280631445  CLST          85          1.0000000000
       255        85  TIP3  H2            6.5218044797       29.0326867632       -0.0064209970  CLST          85          1.0000000000
       256        86  TIP3  OH2           6.5360604283       23.4101003399        5.8431774683  CLST          86          1.0000000000
       257        86  TIP3  H1            5.6814457282       23.4460667019        6.3610421032  CLST          86          1.0000000000
       258        86  TIP3  H2            6.6217175194       24.4005665546        5.7023660684  CLST          86          1.0000000000
       259        87  TIP3  OH2          30.5384017800       28.2109895299       10.6299032734  CLST          87          1.0000000000
       260        87  TIP3  H1           31.2529411815       27.9681702654       11.2384417896  CLST          87          1.0000000000
       261        87  TIP3  H2           29.8206679598       27.5622365867       10.8370188599  CLST          87          1.0000000000
       262        88  TIP3  OH2          31.0884339450        4.5827040987       23.8982480549  CLST          88          1.0000000000
       263        88  TIP3  H1           31.0248008302        3.6181180369       23.9814585891  CLST          88          1.0000000000
       264        88  TIP3  H2           30.1560244294        4.7452611833       23.6494218702  CLST          88          1.0000000000
       265        89  TIP3  OH2           3.5288882902        0.7819236747       20.0959378029  CLST          89          1.0000000000
       266        89  TIP3  H1            3.4265819660        1.5610534210       19.6082821808  CLST          89          1.0000000000
       267        89  TIP3  H2            3.5892412222        0.2315593194       19.3328610600  CLST          89          1.0000000000
       268        90  TIP3  OH2           5.6571811016       11.1623003366       26.4541293706  CLST          90          1.0000000000
       269        90  TIP3  H1            5.3617317620       11.8806197612       27.0372132265  CLST          90          1.0000000000
       270        90  TIP3  H2            5.7523338243       11.6479370638       25.6462358810  CLST          90          1.0000000000
       271        91  TIP3  OH2           6.0079991139       23.8104273412       19.5771451280  CLST          91          1.0000000000
       272        91  TIP3  H1            6.2561578745       22.9083789074       19.5266652803  CLST          91          1.0000000000
       273        91  TIP3  H2            6.8887723392       24.2339342419       19.7300501972  CLST          91          1.0000000000
       274        92  TIP3  OH2           9.6973221043       11.5849062662        2.4846249899  CLST          92          1.0000000000
       275        92  TIP3  H1           10.1536790889       11.5417041812        3.2931836220  CLST          92          1.0000000000
       276        92  TIP3  H2            9.8835021947       12.5203900286        2.2679206096  CLST          92          1.0000000000
       277        93  TIP3  OH2          23.1010263623        7.1582300784        2.7077184110  CLST          93          1.0000000000
       278        93  TIP3  H1           23.1946181163        8.1378307722        2.9690394240  CLST          93          1.0000000000
       279        93  TIP3  H2           24.0136955791        6.9318921411        2.5111173414  CLST          93          1.0000000000
       280        94  TIP3  OH2          17.7058408865        6.6470262595        6.5621176051  CLST          94          1.0000000000
       281        94  TIP3  H1           18.5445787389        7.0787902244        6.1914474233  CLST          94          1.0000000000
       282        94  TIP3  H2           17.3804736916        6.3505762936        5.7112816204  CLST          94          1.0000000000
       283        95  TIP3  OH2           9.7544099655        5.8529830358       30.0212300982  CLST          95          1.0000000000
       284        95  TIP3  H1            9.9271745075        6.1835176832       30.8981478802  CLST          95          1.0000000000
       285        95  TIP3  H2           10.0900198960        4.9253122607       30.1627945247  CLST          95          1.0000000000
       286        96  TIP3  OH2           9.5424302331       20.8543821066       11.1812974087  CLST          96          1.0000000000
       287        96  TIP3  H1           10.3454168547       20.5751878363       10.7454218304  CLST          96          1.0000000000
       288        96  TIP3  H2            9.0831894169       20.0459138051       11.5068871253  CLST          96          1.0000000000
       289        97  TIP3  OH2          24.1488125342        6.8973977939        8.5093825449  CLST          97          1.0000000000
       290        97  TIP3  H1           24.4215741665        6.0879510522        8.8725239884  CLST          97          1.0000000000
       291        97  TIP3  H2           23.2364088286        6.7331781736        8.4521761688  CLST          97          1.0000000000
       292        98  TIP3  OH2           6.0146311573        0.6119694040       28.4033009419  CLST          98          1.0000000000
       293        98  TIP3  H1            6.6749959861        0.3241917475       29.0504350327  CLST          98          1.0000000000
       294        98  TIP3  H2            5.3660689745       -0.0406008163       28.6719386885  CLST          98          1.0000000000
       295        99  TIP3  OH2          25.0268556270       20.4598365064        4.9385495482  CLST          99          1.0000000000
       296        99  TIP3  H1           24.8781222905       20.9504320141        5.7653335809  CLST          99          1.0000000000
       297        99  TIP3  H2           25.7990157973       19.8875774244        5.1811340746  CLST          99          1.0000000000
       298       100  TIP3  OH2           2.2844899054        0.4753419456       22.6910641518  CLST         100          1.0000000000
       299       100  TIP3  H1            2.6109070917        0.5431821033       21.8033046908  CLST         100          1.0000000000
       300       100  TIP3  H2            2.8193291144        1.2034543802       23.0130249737  CLST         100          1.0000000000
       301       101  TIP3  OH2          12.6862447817       24.9663342574        3.9307659470  CLST         101          1.0000000000
       302       101  TIP3  H1           12.7535603130       24.4557218422        4.7308605505  CLST         101          1.0000000000
       303       101  TIP3  H2           13.5651995784       25.3588026890        3.7622611386  CLST         101          1.0000000000
       304       102  TIP3  OH2          19.7283188552       10.3574335335        1.3283044037  CLST         102          1.0000000000
       305       102  TIP3  H1           19.0695970925       10.4386479127        2.0234517872  CLST         102          1.0000000000
       306       102  TIP3  H2           19.2825940558        9.6138876794        0.8750428787  CLST         102          1.0000000000
       307       103  TIP3  OH2          31.3243427733       22.5653373704        7.7328369174  CLST         103          1.0000000000
       308       103  TIP3  H1           31.9500257456       22.2613110129        8.3660727033  CLST         103          1.0000000000
       309       103  TIP3  H2           30.5843234179       21.9558489269        7.7422463589  CLST         103          1.0000000000
       310       104  TIP3  OH2          27.5149800075       19.6881718484        9.9706355323  CLST         104          1.0000000000
       311       104  TIP3  H1           26.9145513428       19.9045649606       10.7197662176  CLST         104          1.0000000000
       312       104  TIP3  H2           26.8988078911       19.5635100010        9.2199759986  CLST         104          1.0000000000
       313       105  TIP3  OH2          26.6685403947       10.6393196532       20.3409612539  CLST         105          1.0000000000
       314       105  TIP3  H1           27.0268827501       11.1757663268       19.6008705795  CLST         105          1.0000000000
       315       105  TIP3  H2           26.0809440050       10.0483180252       19.8322491944  CLST         105          1.0000000000
       316       106  TIP3  OH2           7.5394305997       23.7958645854       30.5532344486  CLST         106          1.0000000000
       317       106  TIP3  H1            8.2645355858       24.2892610293       30.2374069603  CLST         106          1.0000000000
       318       106  TIP3  H2            7.7216031879       22.8949525398       30.2316829341  CLST         106          1.0000000000
       319       107  TIP3  OH2          23.4509971485       27.1450645646        5.1521023936  CLST         107          1.0000000000
       320       107  TIP3  H1           22.6766945551       27.4383980540        4.5328828270  CLST         107          1.0000000000
       321       107  TIP3  H2           24.2107616897       27.5257710843        4.7464121970  CLST         107          1.0000000000
       322       108  TIP3  OH2          21.3976045253        2.0503144893        9.5932703357  CLST         108          1.0000000000
       323       108  TIP3  H1           22.3510723401        1.8389117852        9.3710389655  CLST         108          1.0000000000
       324       108  TIP3  H2           21.0741545957        1.2190025500        9.9386075523  CLST         108          1.0000000000
       325       109  TIP3  OH2           2.3616380496        7.0914816030        8.8003304900  CLST         109          1.0000000000
       326       109  TIP3  H1            1.5314577741        6.6419074450        9.1020615785  CLST         109          1.0000000000
       327       109  TIP3  H2            3.0059662768        6.3479407546        8.6477494213  CLST         109          1.0000000000
       328       110  TIP3  OH2           1.6745222980       12.4259920040       20.7103497473  CLST         110          1.0000000000
       329       110  TIP3  H1            2.2120734145       13.2055182327       20.8215812327  CLST         110          1.0000000000
       330       110  TIP3  H2            1.3208981170       12.2429791838       21.6047923520  CLST         110          1.0000000000
       331       111  TIP3  OH2          11.8543107021       20.1842714730        9.5128884028  CLST         111          1.0000000000
       332       111  TIP3  H1           12.6609686958       19.7229089292        9.8573350819  CLST         111          1.0000000000
       333       111  TIP3  H2           11.5859518908       19.6094517210        8.7554392427  CLST         111          1.0000000000
       334       112  TIP3  OH2           6.4682126192       -0.1411251831        1.7732026841  CLST         112          1.0000000000
       335       112  TIP3  H1            6.8423171796        0.7533647968        1.8272525352  CLST         112          1.0000000000
       336       112  TIP3  H2            6.4857026213       -0.4884776830        2.6730519840  CLST         112          1.0000000000
       337       113  TIP3  OH2          19.0141848164        0.9718042717       31.8417430912  CLST         113          1.0000000000
       338       113  TIP3  H1           18.3582143181        0.2111498605       31.7165566471  CLST         113          1.0000000000
       339       113  TIP3  H2           19.5135139680        1.0135770789       31.0056307938  CLST         113          1.0000000000
       340       114  TIP3  OH2          17.9602650943        3.5020355731       31.6222353111  CLST         114          1.0000000000
       341       114  TIP3  H1           18.1626573636        2.5465186545       31.7028252238  CLST         114          1.0000000000
       342       114  TIP3  H2           18.2334572205        3.6854955285       30.7435319706  CLST         114          1.0000000000
       343       115  TIP3  OH2          23.0764524077        0.3265231816       21.0171985562  CLST         115          1.0000000000
       344       115  TIP3  H1           23.7185057099        0.6329634505       20.3642277573  CLST         115          1.0000000000
       345       115  TIP3  H2           22.5747238842        1.1677242198       21.1612268534  CLST         115          1.0000000000
       346       116  TIP3  OH2           6.9535314376       26.1667937570        2.1483884889  CLST         116          1.0000000000
       347       116  TIP3  H1            7.3280393882       25.8427728458        1.3661318318  CLST         116          1.0000000000
       348       116  TIP3  H2            7.2944187500       27.0930006777        2.0973639281  CLST         116          1.0000000000
       349       117  TIP3  OH2          31.0740894695       31.9638795892       12.5033243416  CLST         117          1.0000000000
       350       117  TIP3  H1           31.3524898257       31.0724488459       12.7167583921  CLST         117          1.0000000000
       351       117  TIP3  H2           31.6552757760       32.3870693304       13.1738647895  CLST         117          1.0000000000
       352       118  TIP3  OH2          31.9757757766       22.2910948908        4.9426661146  CLST         118          1.0000000000
       353       118  TIP3  H1           31.7202248311       22.6998504022        5.7464999626  CLST         118          1.0000000000
       354       118  TIP3  H2           31.7329997679       23.0584227299        4.3295690294  CLST         118          1.0000000000
       355       119  TIP3  OH2          22.6110651226       21.5099997140       23.1138033952  CLST         119          1.0000000000
       356       119  TIP3  H1           22.4018037285       21.0526837268       22.2612714027  CLST         119          1.0000000000
       357       119  TIP3  H2           22.7569570785       22.3949459846       22.9374928858  CLST         119          1.0000000000
       358       120  TIP3  OH2           9.5534642653       23.8633610253        1.2727042932  CLST         120          1.0000000000
       359       120  TIP3  H1            8.6912490126       23.3539417830        1.3072403743  CLST         120          1.0000000000
       360       120  TIP3  H2            9.3321422808       24.4942666579        0.5231475425  CLST         120          1.0000000000
       361       121  TIP3  OH2          26.2001883011       31.5768226772       23.8896383353  CLST         121          1.0000000000
       362       121  TIP3  H1           26.1152260377       31.8820297215       22.9882685643  CLST         121          1.0000000000
       363       121  TIP3  H2           26.9191803541       30.8608304380       23.8599838070  CLST         121          1.0000000000
       364       122  TIP3  OH2          10.4872387479       12.1376384732        5.2414565136  CLST         122          1.0000000000
       365       122  TIP3  H1            9.5481082516       12.3960839834        5.4037781940  CLST         122          1.0000000000
       366       122  TIP3  H2           10.9460747512       12.6475133458        5.8748239697  CLST         122          1.0000000000
       367       123  TIP3  OH2          24.5430002408       26.3180845703       20.6892114700  CLST         123          1.0000000000
       368       123  TIP3  H1           24.9432343059       25.5192414494       20.3388369407  CLST         123          1.0000000000
       369       123  TIP3  H2           25.0369292539       26.4678785609       21.5087040339  CLST         123          1.0000000000
       370       124  TIP3  OH2          25.8801746950       23.2292732826       21.1097168272  CLST         124          1.0000000000
       371       124  TIP3  H1           26.6304951775       22.9362736535       21.6660749101  CLST         124          1.0000000000
       372       124  TIP3  H2           25.2859369683       23.6367645925       21.8167901588  CLST         124          1.0000000000
       373       125  TIP3  OH2          18.3799857631        4.1028442034        8.0509297979  CLST         125          1.0000000000
       374       125  TIP3  H1           18.8714125042        3.6618868662        7.3734245517  CLST         125          1.0000000000
       375       125  TIP3  H2           18.1256640133        4.8820080267        7.5936287100  CLST         125          1.0000000000
       376       126  TIP3  OH2          24.8860057416       21.2123723028       19.6539154517  CLST         126          1.0000000000
       377       126  TIP3  H1           25.7059296037       20.7439969076       19.9418610651  CLST         126          1.0000000000
       378       126  TIP3  H2           25.0830579525       22.0321014800       20.0964021676  CLST         126          1.0000000000
       379       127  TIP3  OH2          24.5568193668       20.2854451413       24.7428804385  CLST         127          1.0000000000
       380       127  TIP3  H1           24.0149264849       19.5787412904       25.0884643781  CLST         127          1.0000000000
       381       127  TIP3  H2           23.9273059731       20.7296601041       24.0948175248  CLST         127          1.0000000000
       382       128  TIP3  OH2           9.8300002615        0.7401656774       29.4081554795  CLST         128          1.0000000000
       383       128  TIP3  H1            9.0376692886        0.2880664265       29.6976157533  CLST         128          1.0000000000
       384       128  TIP3  H2            9.5881811310        1.5462334669       28.9491288305  CLST         128          1.0000000000
       385       129  TIP3  OH2          24.0441569245        9.5716676192        1.1001798950  CLST         129          1.0000000000
       386       129  TIP3  H1           24.9324548413       10.0089883820        1.3007237000  CLST         129          1.0000000000
       387       129  TIP3  H2           24.3477952177        8.8456678938        0.5572696133  CLST         129          1.0000000000
       388       130  TIP3  OH2          27.8731376933        4.0028201884        9.7698803282  CLST         130          1.0000000000
       389       130  TIP3  H1           28.2822976221        4.8416880361       10.0079728528  CLST         130          1.0000000000
       390       130  TIP3  H2           28.1498253716        3.4634859471       10.5559406540  CLST         130          1.0000000000
       391       131  TIP3  OH2           7.7384851363       28.0546198018       21.9361393915  CLST         131          1.0000000000
       392       131  TIP3  H1            7.7975548344       28.8479409806       22.5360617412  CLST         131          1.0000000000
       393       131  TIP3  H2            6.8631054027       27.8678288955       22.1036732174  CLST         131          1.0000000000
       394       132  TIP3  OH2          20.2573289179       11.3396945687       12.2454479649  CLST         132          1.0000000000
       395       132  TIP3  H1           20.7722483548       12.0579939842       11.9434631257  CLST         132          1.0000000000
       396       132  TIP3  H2           19.8107168321       11.6918267028       13.0403870621  CLST         132          1.0000000000
       397       133  TIP3  OH2          10.3505299338        9.5872019260        8.6198749233  CLST         133          1.0000000000
       398       133  TIP3  H1           10.1120135094        9.5936093650        9.5456352994  CLST         133          1.0000000000
       399       133  TIP3  H2           11.3390762678        9.6343738667        8.7032382585  CLST         133          1.0000000000
       400       134  TIP3  OH2          24.1437979954        5.8634290311       25.8756748522  CLST         134          1.0000000000
       401       134  TIP3  H1           23.1741848318        5.6885134919       25.9604978798  CLST         134          1.0000000000
       402       134  TIP3  H2           24.4406041734        5.8981055879       26.7684236445  CLST         134          1.0000000000
       403       135  TIP3  OH2          10.9243585764       20.5594202127       18.5506518360  CLST         135          1.0000000000
       404       135  TIP3  H1           10.8220710969       21.2372927390       19.2787574776  CLST         135          1.0000000000
       405       135  TIP3  H2           10.8234561368       21.2152255346       17.8654590643  CLST         135          1.0000000000
       406       136  TIP3  OH2          27.5601584826        1.9343504104       24.7807971146  CLST         136          1.0000000000
       407       136  TIP3  H1           27.0777351846        1.0981806276       24.5634472744  CLST         136          1.0000000000
       408       136  TIP3  H2           26.7869701542        2.5064249244       24.9861937504  CLST         136          1.0000000000
       409       137  TIP3  OH2          12.8667254819       10.2349817877        9.1173197259  CLST         137          1.0000000000
       410       137  TIP3  H1           13.2110199367       10.2158498306       10.0147009293  CLST         137          1.0000000000
       411       137  TIP3  H2           13.4061744649        9.4719638404        8.8363346350  CLST         137          1.0000000000
       412       138  TIP3  OH2          31.0439852756       21.8761752242        1.5479439382  CLST         138          1.0000000000
       413       138  TIP3  H1           30.9110112808       22.4164697720        0.7436758731  CLST         138          1.0000000000
       414       138  TIP3  H2           31.0609431314       22.4790469543        2.2591185071  CLST         138          1.0000000000
       415       139  TIP3  OH2          22.2916963681       21.1738915042        4.5537023322  CLST         139          1.0000000000
       416       139  TIP3  H1           21.8760513246       21.1698553748        3.6802168651  CLST         139          1.0000000000
       417       139  TIP3  H2           23.0585647738       20.5960912803        4.5146011819  CLST         139          1.0000000000
       418       140  TIP3  OH2          24.8496418349        3.4199337273       31.4103041142  CLST         140          1.0000000000
       419       140  TIP3  H1           25.6554800581        3.8545568564       31.6728744452  CLST         140          1.0000000000
       420       140  TIP3  H2           24.2754357773        4.1817363015       31.2705587748  CLST         140          1.0000000000
       421       141  TIP3  OH2           2.0523797894       27.3803355964       28.2033690174  CLST         141          1.0000000000
       422       141  TIP3  H1            1.8341904111       28.2642088930       28.5000711988  CLST         141          1.0000000000
       423       141  TIP3  H2            2.7378062682       27.6397635915       27.5545754125  CLST         141          1.0000000000
       424       142  TIP3  OH2          20.1944271929        0.0009212231        4.7291101685  CLST         142          1.0000000000
       425       142  TIP3  H1           20.3961370587        0.6175294039        5.4269424889  CLST         142          1.0000000000
       426       142  TIP3  H2           19.2862355598        0.2808644772        4.5542049549  CLST         142          1.0000000000
       427       143  TIP3  OH2           9.3683923115       26.1060311039       23.4805548060  CLST         143          1.0000000000
       428       143  TIP3  H1            9.4749114602       26.6523823887       22.7105006770  CLST         143          1.0000000000
       429       143  TIP3  H2           10.1221280475       25.5314128694       23.4979568927  CLST         143          1.0000000000
       430       144  TIP3  OH2           3.3270576657       28.9987410022        9.1606034471  CLST         144          1.0000000000
       431       144  TIP3  H1            2.4327935547       29.3646963344        9.3182436154  CLST         144          1.0000000000
       432       144  TIP3  H2            3.7527389624       29.7764275716        8.8468560294  CLST         144          1.0000000000
       433       145  TIP3  OH2          21.6804035158       13.3354638871        3.1286847966  CLST         145          1.0000000000
       434       145  TIP3  H1           21.2837441126       13.6293636033        2.3328340561  CLST         145          1.0000000000
       435       145  TIP3  H2           21.8092084047       12.3734303614        3.0382939277  CLST         145          1.0000000000
       436       146  TIP3  OH2           9.1494298836        2.7112721573       27.7114361444  CLST         146          1.0000000000
       437       146  TIP3  H1            9.1465167411        3.6940625265       27.7130910404  CLST         146          1.0000000000
       438       146  TIP3  H2            8.4785426886        2.4602136563       27.0450970378  CLST         146          1.0000000000
       439       147  TIP3  OH2          20.8489646721       31.5719361569       27.6782884366  CLST         147          1.0000000000
       440       147  TIP3  H1           21.7334698658       31.2785592477       27.6494648705  CLST         147          1.0000000000
       441       147  TIP3  H2           20.4527740532       31.2674360495       26.8277122437  CLST         147          1.0000000000
       442       148  TIP3  OH2          23.9221136997        1.2996912492        8.9840352116  CLST         148          1.0000000000
       443       148  TIP3  H1           23.9835674130        0.8964120901        8.0890602657  CLST         148          1.0000000000
       444       148  TIP3  H2           24.7987339439        1.5889780694        9.0772780803  CLST         148          1.0000000000
       445       149  TIP3  OH2           8.6259546265       29.0155559087        0.8605948241  CLST         149          1.0000000000
       446       149  TIP3  H1            9.1999211669       29.7491505698        0.6114680939  CLST         149          1.0000000000
       447       149  TIP3  H2            8.4419809980       29.2018526444        1.7721375192  CLST         149          1.0000000000
       448       150  TIP3  OH2          29.6409340545       20.4016669555        8.5167580731  CLST         150          1.0000000000
       449       150  TIP3  H1           28.8045750770       20.2923834904        9.0366337687  CLST         150          1.0000000000
       450       150  TIP3  H2           30.2844862340       19.9808676399        9.1859081158  CLST         150          1.0000000000
       451       151  TIP3  OH2          22.7429216223       25.3484251093       26.9895284844  CLST         151          1.0000000000
       452       151  TIP3  H1           23.6748192534       25.3785681272       27.2531397559  CLST         151          1.0000000000
       453       151  TIP3  H2           22.7080326147       24.6175502920       26.3563369685  CLST         151          1.0000000000
       454       152  TIP3  OH2           3.7859030838       29.8522081477        4.9752109589  CLST         152          1.0000000000
       455       152  TIP3  H1            4.2621918372       29.0285299303        5.2025822945  CLST         152          1.0000000000
       456       152  TIP3  H2            3.4875692714       29.5317720763        4.0332021508  CLST         152          1.0000000000
       457       153  TIP3  OH2          29.1280768165        4.8469914249       17.6791493294  CLST         153          1.0000000000
       458       153  TIP3  H1           30.0624459287        5.1831776918       17.8138483729  CLST         153          1.0000000000
       459       153  TIP3  H2           29.3193832388        4.0019949612       18.1393351321  CLST         153          1.0000000000
       460       154  TIP3  OH2           4.5622571410       25.0049084178        2.0346218965  CLST         154          1.0000000000
       461       154  TIP3  H1            5.5260733005       25.1679989189        2.0997335727  CLST         154          1.0000000000
       462       154  TIP3  H2            4.2895750726       25.5981869079        1.3184934868  CLST         154          1.0000000000
       463       155  TIP3  OH2           9.4005076884       29.1292577914       10.2647725669  CLST         155          1.0000000000
       464       155  TIP3  H1            8.7536449535       28.5926902687        9.7899546852  CLST         155          1.0000000000
       465       155  TIP3  H2           10.0233042430       28.3540215218       10.3815834703  CLST         155          1.0000000000
       466       156  TIP3  OH2          29.6238918053       11.2767398669       11.5195762095  CLST         156          1.0000000000
       467       156  TIP3  H1           28.8421055691       11.8634088901       11.5204701767  CLST         156          1.0000000000
       468       156  TIP3  H2           29.1847511670       10.4619507919       11.2383449314  CLST         156          1.0000000000
       469       157  TIP3  OH2           3.9104333719       31.1403676845        7.4709099610  CLST         157          1.0000000000
       470       157  TIP3  H1            4.8620583419       31.4136372209        7.6315638099  CLST         157          1.0000000000
       471       157  TIP3  H2            3.9660490759       30.5161622773        6.6976804028  CLST         157          1.0000000000
       472       158  TIP3  OH2          10.5543163275        9.1068356989       13.2635461136  CLST         158          1.0000000000
       473       158  TIP3  H1            9.9746113228        8.3673866710       13.5541825662  CLST         158          1.0000000000
       474       158  TIP3  H2            9.9240296353        9.8621755386       13.1643205878  CLST         158          1.0000000000
       475       159  TIP3  OH2           0.5847365594       19.6142952562        4.3708332942  CLST         159          1.0000000000
       476       159  TIP3  H1           -0.1709209572       19.2691544247        4.9586365180  CLST         159          1.0000000000
       477       159  TIP3  H2            0.6266402508       20.5176152882        4.7599843444  CLST         159          1.0000000000
       478       160  TIP3  OH2           7.4618075820       28.3037396543        8.4980198776  CLST         160          1.0000000000
       479       160  TIP3  H1            7.2791897307       27.9032967313        7.5981255036  CLST         160          1.0000000000
       480       160  TIP3  H2            7.0554085067       29.1957119873        8.3201800339  CLST         160          1.0000000000
       481       161  TIP3  OH2          29.3827130383       29.5025083911        7.8981118512  CLST         161          1.0000000000
       482       161  TIP3  H1           29.6037691243       30.2479576750        8.4184233398  CLST         161          1.0000000000
       483       161  TIP3  H2           28.5536590973       29.2673253406        8.3176328835  CLST         161          1.0000000000
       484       162  TIP3  OH2          31.0724746793        3.6283734143       21.2389383065  CLST         162          1.0000000000
       485       162  TIP3  H1           31.2024279906        4.0952517787       20.3849284758  CLST         162          1.0000000000
       486       162  TIP3  H2           31.3202504508        4.2819000080       21.9037723945  CLST         162          1.0000000000
       487       163  TIP3  OH2          21.7983364194        9.1414382864       11.2137656913  CLST         163          1.0000000000
       488       163  TIP3  H1           21.1245381204        8.4273648456       11.3347615079  CLST         163          1.0000000000
       489       163  TIP3  H2           21.3312613130        9.8918842249       11.6658290789  CLST         163          1.0000000000
       490       164  TIP3  OH2           4.1020983683       21.5571808602       13.0226349327  CLST         164          1.0000000000
       491       164  TIP3  H1            4.6756301278       22.2001213322       12.5462688078  CLST         164          1.0000000000
       492       164  TIP3  H2            4.7954282316       20.9226118055       13.3853044615  CLST         164          1.0000000000
       493       165  TIP3  OH2          19.7015725804       26.4981094685        3.6279657478  CLST         165          1.0000000000
       494       165  TIP3  H1           19.9979762893       26.2536293107        4.5676479485  CLST         165          1.0000000000
       495       165  TIP3  H2           18.8219457089       26.1103780045        3.4759496775  CLST         165          1.0000000000
       496       166  TIP3  OH2          30.2773886671       25.3784579776       21.4392640731  CLST         166          1.0000000000
       497       166  TIP3  H1           31.1849990132       24.9348148866       21.4137356562  CLST         166          1.0000000000
       498       166  TIP3  H2           29.6229156099       24.7303456687       21.4891414877  CLST         166          1.0000000000
       499       167  TIP3  OH2           8.1505886699       10.6496120506       30.9673925561  CLST         167          1.0000000000
       500       167  TIP3  H1            8.5827768071       10.2709126221       31.7594744465  CLST         167          1.0000000000
       501       167  TIP3  H2            8.4100815603        9.9628599479       30.3686873766  CLST         167          1.0000000000
       502       168  TIP3  OH2          31.1540047685       18.4948601317        2.1156221952  CLST         168          1.0000000000
       503       168  TIP3  H1           31.6033485166       18.8011665445        2.8626028803  CLST         168          1.0000000000
       504       168  TIP3  H2           31.8947840921       18.0733948766        1.6364233395  CLST         168          1.0000000000
       505       169  TIP3  OH2           5.1648840346        3.9975168448        3.2164935576  CLST         169          1.0000000000
       506       169  TIP3  H1            4.3655958473        3.4941870797        3.3917214279  CLST         169          1.0000000000
       507       169  TIP3  H2            4.9563911455        4.4686845108        2.3716626409  CLST         169          1.0000000000
       508       170  TIP3  OH2          30.7752916299        4.2379413469        1.4170405618  CLST         170          1.0000000000
       509       170  TIP3  H1           30.0433932431        4.8263968917        1.3174596842  CLST         170          1.0000000000
       510       170  TIP3  H2           30.2535027846        3.4705051265        1.4563199362  CLST         170          1.0000000000
       511       171  TIP3  OH2          28.8779510073        1.4263657939        7.3645372640  CLST         171          1.0000000000
       512       171  TIP3  H1           29.3537496502        1.2781736224        6.5379755463  CLST         171          1.0000000000
       513       171  TIP3  H2           29.5641354048        1.5489634188        8.0070592846  CLST         171          1.0000000000
       514       172  TIP3  OH2          25.4199224533       18.7798452436        8.0350325657  CLST         172          1.0000000000
       515       172  TIP3  H1           24.8321766153       18.1594964105        7.6380443959  CLST         172          1.0000000000
       516       172  TIP3  H2           26.1283890081       18.9179095986        7.3674799750  CLST         172          1.0000000000
       517       173  TIP3  OH2          10.0999752268       19.2579459308        1.8452072371  CLST         173          1.0000000000
       518       173  TIP3  H1           10.4718377681       19.3005806665        0.8941918829  CLST         173          1.0000000000
       519       173  TIP3  H2            9.3767518925       19.7888961548        1.6800921362  CLST         173          1.0000000000
       520       174  TIP3  OH2          31.8460803625        5.4393978148        9.8093701096  CLST         174          1.0000000000
       521       174  TIP3  H1           31.5341239981        5.0416821823       10.6262952187  CLST         174          1.0000000000
       522       174  TIP3  H2           31.2757350199        6.2060636986        9.7651814841  CLST         174          1.0000000000
       523       175  TIP3  OH2          25.9872909479       10.3233546337       28.3145877539  CLST         175          1.0000000000
       524       175  TIP3  H1           26.5165031292        9.9998838792       27.5741121028  CLST         175          1.0000000000
       525       175  TIP3  H2           25.1500572639       10.2727208244       27.8210902428  CLST         175          1.0000000000
       526       176  TIP3  OH2           6.7281146946        9.2659225485       24.0704726909  CLST         176          1.0000000000
       527       176  TIP3  H1            7.0270763903       10.1169238226       23.7069049162  CLST         176          1.0000000000
       528       176  TIP3  H2            6.5386490717        9.4647968502       25.0107180999  CLST         176          1.0000000000
       529       177  TIP3  OH2          28.0471810083       20.5225535769       30.2959876990  CLST         177          1.0000000000
       530       177  TIP3  H1           28.9083439738       20.1596972081       30.6534076544  CLST         177          1.0000000000
       531       177  TIP3  H2           27.5543063969       20.6582905628       31.1637365519  CLST         177          1.0000000000
       532       178  TIP3  OH2          10.7623202374       22.8711685634       20.4505859805  CLST         178          1.0000000000
       533       178  TIP3  H1           10.9465072198       23.0470811217       21.3948513900  CLST         178          1.0000000000
       534       178  TIP3  H2           10.6805516519       23.7864653585       20.1619532455  CLST         178          1.0000000000
       535       179  TIP3  OH2           6.5730164644       30.8864867581        8.4057041568  CLST         179          1.0000000000
       536       179  TIP3  H1            6.1216223281       31.5814359783        8.9657988053  CLST         179          1.0000000000
       537       179  TIP3  H2            7.4798261150       31.2101949577        8.3253765449  CLST         179          1.0000000000
       538       180  TIP3  OH2          24.3037661292        8.1430954980        5.9880683549  CLST         180          1.0000000000
       539       180  TIP3  H1           24.6014575419        8.0478665292        6.9191703214  CLST         180          1.0000000000
       540       180  TIP3  H2           23.4742161302        8.5916299338        6.1731704936  CLST         180          1.0000000000
       541       181  TIP3  OH2           6.0082726284       18.9120651316       31.4410689158  CLST         181          1.0000000000
       542       181  TIP3  H1            6.7740081456       18.6584438462       31.0137938506  CLST         181          1.0000000000
       543       181  TIP3  H2            6.2015355836       18.8483941837       32.3912299493  CLST         181          1.0000000000
       544       182  TIP3  OH2          30.1729665250       10.4379437028       21.5523976090  CLST         182          1.0000000000
       545       182  TIP3  H1           30.6393798414       11.0993778066       22.0677394219  CLST         182          1.0000000000
       546       182  TIP3  H2           29.4454695506       10.2387010956       22.0855491764  CLST         182          1.0000000000
       547       183  TIP3  OH2          26.4948643157        3.6323385649       19.6245479866  CLST         183          1.0000000000
       548       183  TIP3  H1           26.8557887973        3.5488693828       20.5481188411  CLST         183          1.0000000000
       549       183  TIP3  H2           25.7415073145        3.0700846364       19.7213356542  CLST         183          1.0000000000
       550       184  TIP3  OH2           3.0121514726        8.2311933681       29.4375570827  CLST         184          1.0000000000
       551       184  TIP3  H1            3.3158340518        7.6197912614       30.0900000027  CLST         184          1.0000000000
       552       184  TIP3  H2            2.0360448924        8.0574816165       29.5911152909  CLST         184          1.0000000000
       553       185  TIP3  OH2           7.5225054323        4.7654686069       12.2139725897  CLST         185          1.0000000000
       554       185  TIP3  H1            7.6875131060        3.7924162806       12.0850107398  CLST         185          1.0000000000
       555       185  TIP3  H2            6.9036005579        4.7869254090       12.9935388261  CLST         185          1.0000000000
       556       186  TIP3  OH2           3.9979522185        5.9142868981       26.6600968899  CLST         186          1.0000000000
       557       186  TIP3  H1            3.9980491256        6.8130355582       26.9194788185  CLST         186          1.0000000000
       558       186  TIP3  H2            3.8199210427        6.0057168485       25.7078423797  CLST         186          1.0000000000
       559       187  TIP3  OH2           4.1551519861        1.6650535181       26.3575209565  CLST         187          1.0000000000
       560       187  TIP3  H1            4.0912720805        1.6933835300       27.3281899976  CLST         187          1.0000000000
       561       187  TIP3  H2            3.6570965313        0.8203840144       26.2740771208  CLST         187          1.0000000000
       562       188  TIP3  OH2          27.1825109388       30.3294231936        4.9190930538  CLST         188          1.0000000000
       563       188  TIP3  H1           27.3110584058       31.1436816601        4.3135508900  CLST         188          1.0000000000
       564       188  TIP3  H2           27.0043391145       30.7345660176        5.7733453700  CLST         188          1.0000000000
       565       189  TIP3  OH2          26.7763114092        3.5454084571       16.7732904867  CLST         189          1.0000000000
       566       189  TIP3  H1           26.7185795408        3.0329968874       17.6058743297  CLST         189          1.0000000000
       567       189  TIP3  H2           27.5437411202        4.1237431279       17.0329612055  CLST         189          1.0000000000
       568       190  TIP3  OH2           7.2826126521       26.1342111435        5.2667087115  CLST         190          1.0000000000
       569       190  TIP3  H1            7.0471625376       26.4442255151        4.4061887420  CLST         190          1.0000000000
       570       190  TIP3  H2            8.1685041768       25.9328856819        5.1533339772  CLST         190          1.0000000000
       571       191  TIP3  OH2          20.9704557248       26.9950390629       25.2770961677  CLST         191          1.0000000000
       572       191  TIP3  H1           21.3097181324       27.5141699049       24.4895690824  CLST         191          1.0000000000
       573       191  TIP3  H2           21.7979558011       26.9252526633       25.7989208106  CLST         191          1.0000000000
       574       192  TIP3  OH2           8.9422036720       14.3220071643        1.8931585274  CLST         192          1.0000000000
       575       192  TIP3  H1            8.3597757065       14.0612424643        2.6599719131  CLST         192          1.0000000000
       576       192  TIP3  H2            9.0611588286       15.2764058901        2.0451449302  CLST         192          1.0000000000
       577       193  TIP3  OH2           6.1616122011       19.7027320424       11.7789291909  CLST         193          1.0000000000
       578       193  TIP3  H1            7.0480032346       19.4150703129       11.5318008317  CLST         193          1.0000000000
       579       193  TIP3  H2            5.6994031910       19.9505553472       10.9471587493  CLST         193          1.0000000000
       580       194  TIP3  OH2          25.5386258139       27.4257591622       11.1147198095  CLST         194          1.0000000000
       581       194  TIP3  H1           24.8971582279       27.4361246851       11.8242593241  CLST         194          1.0000000000
       582       194  TIP3  H2           25.0356382091       27.0631032476       10.3890727034  CLST         194          1.0000000000
       583       195  TIP3  OH2          24.4959502395        9.0793847957       10.2244186348  CLST         195          1.0000000000
       584       195  TIP3  H1           23.5734380668        9.1247148341       10.4557018881  CLST         195          1.0000000000
       585       195  TIP3  H2           24.5002669939        8.1063652629        9.9002357713  CLST         195          1.0000000000
       586       196  TIP3  OH2           5.9531753132       19.5355200083       25.9000924483  CLST         196          1.0000000000
       587       196  TIP3  H1            6.4586175685       20.2559297195       25.4886244389  CLST         196          1.0000000000
       588       196  TIP3  H2            5.2147530056       20.0374274202       26.2660195363  CLST         196          1.0000000000
       589       197  TIP3  OH2           2.1668234364       22.7262310409       29.1135329290  CLST         197          1.0000000000
       590       197  TIP3  H1            2.0162738792       23.6098289156       29.5073572107  CLST         197          1.0000000000
       591       197  TIP3  H2            3.1536633111       22.7747704871       29.1503950070  CLST         197          1.0000000000
       592       198  TIP3  OH2          10.8635989607        1.9920979239        4.6042412935  CLST         198          1.0000000000
       593       198  TIP3  H1           10.1122952322        1.4496792541        4.4885936309  CLST         198          1.0000000000
       594       198  TIP3  H2           10.5857561383        2.8734685948        4.2656035316  CLST         198          1.0000000000
       595       199  TIP3  OH2          31.8554557423        8.4028660829       26.0240821859  CLST         199          1.0000000000
       596       199  TIP3  H1           30.9867548018        8.6743631316       26.4021627763  CLST         199          1.0000000000
       597       199  TIP3  H2           31.8362500298        7.4656850771       26.2098680276  CLST         199          1.0000000000
       598       200  TIP3  OH2          24.2332841359       11.7782930298       10.9954698878  CLST         200          1.0000000000
       599       200  TIP3  H1           23.9183879384       10.9080639707       10.6422237574  CLST         200          1.0000000000
       600       200  TIP3  H2           24.6711787405       12.2164329360       10.2755111724  CLST         200          1.0000000000
       601       201  TIP3  OH2           4.5623153056        0.9189871382       -0.0831590813  CLST         201          1.0000000000
       602       201  TIP3  H1            4.3087515947        1.6361399488        0.5314881879  CLST         201          1.0000000000
       603       201  TIP3  H2            4.8760048319        0.2845373717        0.5393904643  CLST         201          1.0000000000
       604       202  TIP3  OH2          29.9152271296       27.7134448653       19.4946168924  CLST         202          1.0000000000
       605       202  TIP3  H1           30.0833987771       27.0705541256       20.1701337826  CLST         202          1.0000000000
       606       202  TIP3  H2           29.3677027602       28.3549721815       19.9623038456  CLST         202          1.0000000000
       607       203  TIP3  OH2          31.1867975910       11.2501236211        7.5353213747  CLST         203          1.0000000000
       608       203  TIP3  H1           32.0145274050       10.9531830532        7.9058040489  CLST         203          1.0000000000
       609       203  TIP3  H2           30.5325898000       10.9019436535        8.1692870045  CLST         203          1.0000000000
       610       204  TIP3  OH2          26.4756840923        6.3920193591       18.4913707453  CLST         204          1.0000000000
       611       204  TIP3  H1           27.2284553134        6.3992069105       17.9271915083  CLST         204          1.0000000000
       612       204  TIP3  H2           26.3938964250        5.4232432474       18.6541883290  CLST         204          1.0000000000
       613       205  TIP3  OH2          29.5162094643        7.0446194121       29.2401966284  CLST         205          1.0000000000
       614       205  TIP3  H1           29.5865334725        7.7787985240       28.5964898386  CLST         205          1.0000000000
       615       205  TIP3  H2           30.4887920163        6.8777570264       29.2995737331  CLST         205          1.0000000000
       616       206  TIP3  OH2           5.0083947250       20.8553360539       22.0162682706  CLST         206          1.0000000000
       617       206  TIP3  H1            4.8387537889       19.9965995213       22.3096127701  CLST         206          1.0000000000
       618       206  TIP3  H2            5.8391697551       21.0595585812       22.5481133223  CLST         206          1.0000000000
       619       207  TIP3  OH2          12.8507402492       10.1228094226       12.2125703506  CLST         207          1.0000000000
       620       207  TIP3  H1           12.0525801739        9.7191597855       12.6208918341  CLST         207          1.0000000000
       621       207  TIP3  H2           13.5513736038        9.8562828476       12.7976786940  CLST         207          1.0000000000
       622       208  TIP3  OH2          20.2895102061        2.2645637293        6.8336845612  CLST         208          1.0000000000
       623       208  TIP3  H1           20.7568091479        2.0962271978        7.6840722882  CLST         208          1.0000000000
       624       208  TIP3  H2           20.7919378717        2.9982405953        6.4528723667  CLST         208          1.0000000000
       625       209  TIP3  OH2           4.4736392110       22.6784888753        7.3598981324  CLST         209          1.0000000000
       626       209  TIP3  H1            4.2444083868       22.3348606164        6.5026848669  CLST         209          1.0000000000
       627       209  TIP3  H2            3.6646583099       23.1035742609        7.6271627103  CLST         209          1.0000000000
       628       210  TIP3  OH2          12.1808131316       20.7207368127        5.4301712549  CLST         210          1.0000000000
       629       210  TIP3  H1           12.5598715141       20.5367168618        4.5565363425  CLST         210          1.0000000000
       630       210  TIP3  H2           12.4400703727       21.6809613551        5.5882717431  CLST         210          1.0000000000
       631       211  TIP3  OH2          31.5098831013       22.6466970540       12.1780166595  CLST         211          1.0000000000
       632       211  TIP3  H1           32.0354040661       22.0902112381       12.7802382558  CLST         211          1.0000000000
       633       211  TIP3  H2           30.6645448094       22.1136929759       12.1914761603  CLST         211          1.0000000000
       634       212  TIP3  OH2          19.5260294758        3.3980378605       29.2567137930  CLST         212          1.0000000000
       635       212  TIP3  H1           20.1368835451        4.1142199741       28.9876511469  CLST         212          1.0000000000
       636       212  TIP3  H2           20.1997140581        2.7584783108       29.6165823844  CLST         212          1.0000000000
       637       213  TIP3  OH2          22.4452829309       20.3766334246       20.2594728371  CLST         213          1.0000000000
       638       213  TIP3  H1           22.0423997320       20.1033279264       19.4242010174  CLST         213          1.0000000000
       639       213  TIP3  H2           23.3241858417       20.6963669054       20.0963885545  CLST         213          1.0000000000
       640       214  TIP3  OH2          25.4216700873        2.2540452898       26.4465411245  CLST         214          1.0000000000
       641       214  TIP3  H1           25.6875310352        1.4423379643       26.8869181435  CLST         214          1.0000000000
       642       214  TIP3  H2           24.7205223257        2.6371785981       27.0409704854  CLST         214          1.0000000000
       643       215  TIP3  OH2          20.0963774887       18.9814972452        5.6878646115  CLST         215          1.0000000000
       644       215  TIP3  H1           20.8100356113       19.5345213567        5.4881042931  CLST         215          1.0000000000
       645       215  TIP3  H2           19.9768788252       18.5996656588        4.7833227845  CLST         215          1.0000000000
       646       216  TIP3  OH2          19.8659358337       29.5536765027        8.0315489884  CLST         216          1.0000000000
       647       216  TIP3  H1           20.7591195604       29.9152852773        8.1559837183  CLST         216          1.0000000000
       648       216  TIP3  H2           20.1361067425       28.6361547407        8.1596947521  CLST         216          1.0000000000
       649       217  TIP3  OH2           7.5509845378       31.5987821739       30.3297459047  CLST         217          1.0000000000
       650       217  TIP3  H1            7.7567863501       30.6546139534       30.1184957035  CLST         217          1.0000000000
       651       217  TIP3  H2            7.0834272977       31.5017314623       31.1598836453  CLST         217          1.0000000000
       652       218  TIP3  OH2          23.6914627567       27.9602157933        9.0980496004  CLST         218          1.0000000000
       653       218  TIP3  H1           23.2891372176       28.8247822317        8.8629688248  CLST         218          1.0000000000
       654       218  TIP3  H2           24.1090774628       27.6305555464        8.2710942426  CLST         218          1.0000000000
       655       219  TIP3  OH2          19.4318830420       27.3139764946       29.1939293148  CLST         219          1.0000000000
       656       219  TIP3  H1           19.3255590332       28.2316395042       29.0105274008  CLST         219          1.0000000000
       657       219  TIP3  H2           19.2692795485       26.9586761553       28.2907674915  CLST         219          1.0000000000
       658       220  TIP3  OH2           6.3330466234        6.8892972599        7.7960413103  CLST         220          1.0000000000
       659       220  TIP3  H1            6.0179986634        6.9383905140        6.8763985195  CLST         220          1.0000000000
       660       220  TIP3  H2            5.8256460718        6.1985631905        8.1712193593  CLST         220          1.0000000000
       661       221  TIP3  OH2          21.5289407700       24.7662483233       10.2950958600  CLST         221          1.0000000000
       662       221  TIP3  H1           22.4671194265       24.5761892333       10.3063933302  CLST         221          1.0000000000
       663       221  TIP3  H2           21.1391145803       23.9314096371       10.1627079302  CLST         221          1.0000000000
       664       222  TIP3  OH2          24.9996751128       31.1067916814       18.2119632636  CLST         222          1.0000000000
       665       222  TIP3  H1           25.5047280554       30.2914364492       18.4769189061  CLST         222          1.0000000000
       666       222  TIP3  H2           24.2048404371       30.7195235155       17.9741828709  CLST         222          1.0000000000
       667       223  TIP3  OH2           2.7777778980       21.0150460091       20.2483553961  CLST         223          1.0000000000
       668       223  TIP3  H1            2.2776252237       20.1757395131       20.3603668002  CLST         223          1.0000000000
       669       223  TIP3  H2            3.5556175630       20.9677681524       20.7449430894  CLST         223          1.0000000000
       670       224  TIP3  OH2           7.5951038136        4.8069929692        0.6409985291  CLST         224          1.0000000000
       671       224  TIP3  H1            8.2951429478        5.4716249338        0.5563254582  CLST         224          1.0000000000
       672       224  TIP3  H2            7.5731993877        4.3154274495       -0.2461149718  CLST         224          1.0000000000
       673       225  TIP3  OH2          31.5280504573        4.5908776224       30.6100493154  CLST         225          1.0000000000
       674       225  TIP3  H1           31.4609122460        4.4955869581       31.5639553513  CLST         225          1.0000000000
       675       225  TIP3  H2           31.3844285525        3.6405194424       30.4772538587  CLST         225          1.0000000000
       676       226  TIP3  OH2          26.1862162068       27.5015563116        7.4925883488  CLST         226          1.0000000000
       677       226  TIP3  H1           26.1431827753       26.5303568441        7.6136519294  CLST         226          1.0000000000
       678       226  TIP3  H2           26.2628577369       27.5013555932        6.5117120367  CLST         226          1.0000000000
       679       227  TIP3  OH2          11.6612770724       27.7026773499       21.9792717433  CLST         227          1.0000000000
       680       227  TIP3  H1           11.7230464733       28.2920984957       22.7481128151  CLST         227          1.0000000000
       681       227  TIP3  H2           11.5142410542       28.3841706484       21.2839705608  CLST         227          1.0000000000
       682       228  TIP3  OH2           3.5395351330       12.4149562688        3.2448706100  CLST         228          1.0000000000
       683       228  TIP3  H1            2.6785007393       12.1354594796        3.5950564151  CLST         228          1.0000000000
       684       228  TIP3  H2            3.1424832959       12.7304320911        2.4618056242  CLST         228          1.0000000000
       685       229  TIP3  OH2          20.3325533125       18.8223422664        2.8829439698  CLST         229          1.0000000000
       686       229  TIP3  H1           20.4376031026       18.2452744728        2.1379620031  CLST         229          1.0000000000
       687       229  TIP3  H2           20.6284743682       19.6742029042        2.4626343933  CLST         229          1.0000000000
       688       230  TIP3  OH2          12.2752018159        6.1689797879       28.4567314658  CLST         230          1.0000000000
       689       230  TIP3  H1           12.9716179294        6.1198842441       29.0920006283  CLST         230          1.0000000000
       690       230  TIP3  H2           11.9833295226        5.2822345680       28.4950680067  CLST         230          1.0000000000
       691       231  TIP3  OH2           7.1638721408        3.4060233044        4.9262141232  CLST         231          1.0000000000
       692       231  TIP3  H1            7.5334762196        4.2496639110        5.1317473828  CLST         231          1.0000000000
       693       231  TIP3  H2            6.3525657730        3.7261277848        4.4443443776  CLST         231          1.0000000000
       694       232  TIP3  OH2          21.5487381342        9.0172365668        7.5304700934  CLST         232          1.0000000000
       695       232  TIP3  H1           21.0549511593        9.6296945362        8.1420838345  CLST         232          1.0000000000
       696       232  TIP3  H2           21.7155143443        8.2566410804        8.0801283794  CLST         232          1.0000000000
       697       233  TIP3  OH2           3.6101707542       26.5145569483        8.0731206442  CLST         233          1.0000000000
       698       233  TIP3  H1            4.1283205746       26.1872690959        8.7274211155  CLST         233          1.0000000000
       699       233  TIP3  H2            3.5033625569       27.4708662272        8.4111607446  CLST         233          1.0000000000
       700       234  TIP3  OH2          28.1912763569        8.5876236434       31.3003244629  CLST         234          1.0000000000
       701       234  TIP3  H1           28.7310027776        8.4285285734       30.5359866818  CLST         234          1.0000000000
       702       234  TIP3  H2           28.2351705298        9.5789882763       31.3149380041  CLST         234          1.0000000000
       703       235  TIP3  OH2          29.9364918465       27.7789254284       22.7448507079  CLST         235          1.0000000000
       704       235  TIP3  H1           30.0348746544       26.9204816278       22.3168880435  CLST         235          1.0000000000
       705       235  TIP3  H2           30.8827020601       27.9688264853       22.8247880938  CLST         235          1.0000000000
       706       236  TIP3  OH2          31.4837801127       18.1899941808       28.9195720637  CLST         236          1.0000000000
       707       236  TIP3  H1           32.0456506133       18.9007750161       29.3163124168  CLST         236          1.0000000000
       708       236  TIP3  H2           30.8598470235       18.0551967499       29.5918452768  CLST         236          1.0000000000
       709       237  TIP3  OH2          28.2229399835       26.7125798791       10.8883478353  CLST         237          1.0000000000
       710       237  TIP3  H1           27.3820009202       27.0760059789       11.2215541463  CLST         237          1.0000000000
       711       237  TIP3  H2           27.7891692526       26.1871883454       10.1700234597  CLST         237          1.0000000000
       712       238  TIP3  OH2           0.6746103871        4.7989323803        7.2557044735  CLST         238          1.0000000000
       713       238  TIP3  H1            0.0002145804        5.3051053610        6.8038101171  CLST         238          1.0000000000
       714       238  TIP3  H2            0.5733871438        5.0158600225        8.2425370024  CLST         238          1.0000000000
       715       239  TIP3  OH2          17.8086957083        5.9338727372        3.5032154384  CLST         239          1.0000000000
       716       239  TIP3  H1           17.5286591591        6.5035652395        2.7183168411  CLST         239          1.0000000000
       717       239  TIP3  H2           18.4867747255        5.4122897209        3.0905552153  CLST         239          1.0000000000
       718       240  TIP3  OH2          17.7200990845        8.8795156752       -0.2586243180  CLST         240          1.0000000000
       719       240  TIP3  H1           17.0228866623        9.1250036829        0.3536147853  CLST         240          1.0000000000
       720       240  TIP3  H2           17.8637991449        7.9168466987        0.0393672295  CLST         240          1.0000000000
       721       241  TIP3  OH2          24.2025729908       24.0631723631       23.3072227554  CLST         241          1.0000000000
       722       241  TIP3  H1           24.0186715874       23.9283820981       24.2499267288  CLST         241          1.0000000000
       723       241  TIP3  H2           24.2513531173       25.0269010835       23.3015904713  CLST         241          1.0000000000
       724       242  TIP3  OH2           6.0384635979       26.1308711267        9.6675269296  CLST         242          1.0000000000
       725       242  TIP3  H1            6.4340630699       27.0501098976        9.3800236410  CLST         242          1.0000000000
       726       242  TIP3  H2            6.8133451695       25.5512503127        9.4292897236  CLST         242          1.0000000000
       727       243  TIP3  OH2          25.2691443590       24.6102840591       27.5754781228  CLST         243          1.0000000000
       728       243  TIP3  H1           25.3155381294       24.0506209898       26.7985322227  CLST         243          1.0000000000
       729       243  TIP3  H2           25.5129479477       23.9349575793       28.2363236241  CLST         243          1.0000000000
       730       244  TIP3  OH2           4.8864644898        5.7589742618        5.4474125753  CLST         244          1.0000000000
       731       244  TIP3  H1            5.1051406068        5.5256014191        4.5404219052  CLST         244          1.0000000000
       732       244  TIP3  H2            4.2739316910        5.0473839995        5.7410674080  CLST         244          1.0000000000
       733       245  TIP3  OH2          24.7897244483        3.6789476769       24.1293120757  CLST         245          1.0000000000
       734       245  TIP3  H1           24.9446032103        3.0558808258       24.8445665476  CLST         245          1.0000000000
       735       245  TIP3  H2           24.5548885468        4.4125575530       24.7392362525  CLST         245          1.0000000000
       736       246  TIP3  OH2           1.9891031267       25.2902991042       30.0054612785  CLST         246          1.0000000000
       737       246  TIP3  H1            1.6216844177       25.9203519183       29.3699071098  CLST         246          1.0000000000
       738       246  TIP3  H2            2.9299429445       25.3268500790       29.8862370374  CLST         246          1.0000000000
       739       247  TIP3  OH2           5.9902353035        8.0264669251        0.5355492698  CLST         247          1.0000000000
       740       247  TIP3  H1            6.6040500154        7.8738002675       -0.2789424326  CLST         247          1.0000000000
       741       247  TIP3  H2            5.4556622034        8.7766877024        0.3152025853  CLST         247          1.0000000000
       742       248  TIP3  OH2          29.3901273783        8.3332609906       19.8785748238  CLST         248          1.0000000000
       743       248  TIP3  H1           29.5602937148        8.7390300588       19.0362710819  CLST         248          1.0000000000
       744       248  TIP3  H2           29.9101067855        8.9496044787       20.5109661401  CLST         248          1.0000000000
       745       249  TIP3  OH2           8.8989221957        4.7059330771       23.9860972495  CLST         249          1.0000000000
       746       249  TIP3  H1            8.2817440308        5.4464084278       23.9633957821  CLST         249          1.0000000000
       747       249  TIP3  H2            8.4079875386        4.0193985647       24.4440657951  CLST         249          1.0000000000
       748       250  TIP3  OH2          24.2988589204        9.6780858826       26.4795165478  CLST         250          1.0000000000
       749       250  TIP3  H1           23.8619152995        8.8344528570       26.2231641231  CLST         250          1.0000000000
       750       250  TIP3  H2           24.5824603257       10.0957442787       25.6515601911  CLST         250          1.0000000000
       751       251  TIP3  OH2          28.2219256901       12.4596596180        3.0387960241  CLST         251          1.0000000000
       752       251  TIP3  H1           28.9874282724       12.7478231724        2.4766479879  CLST         251          1.0000000000
       753       251  TIP3  H2           28.7082520972       12.3296999488        3.8418856770  CLST         251          1.0000000000
       754       252  TIP3  OH2           5.8790417347        5.2395463771       14.6439105329  CLST         252          1.0000000000
       755       252  TIP3  H1            5.7263867825        6.1046454536       14.2866614398  CLST         252          1.0000000000
       756       252  TIP3  H2            5.5302694213        5.3457771301       15.5428857285  CLST         252          1.0000000000
       757       253  TIP3  OH2           5.9883924172       13.9285064643        3.2891472041  CLST         253          1.0000000000
       758       253  TIP3  H1            5.2532597549       13.2808710743        3.4245913476  CLST         253          1.0000000000
       759       253  TIP3  H2            6.0953887118       13.9306874026        2.3351418754  CLST         253          1.0000000000
       760       254  TIP3  OH2          27.6730144783        8.1592304981        3.1032974033  CLST         254          1.0000000000
       761       254  TIP3  H1           27.2055536763        8.5504798894        2.2728274960  CLST         254          1.0000000000
       762       254  TIP3  H2           27.0638800041        7.4978543197        3.4268227606  CLST         254          1.0000000000
       763       255  TIP3  OH2          24.7181691921       10.4689519762        4.2341041016  CLST         255          1.0000000000
       764       255  TIP3  H1           23.8455301080       10.8714066051        4.3844034096  CLST         255          1.0000000000
       765       255  TIP3  H2           24.6829304772        9.7545572444        4.9374790941  CLST         255          1.0000000000
       766       256  TIP3  OH2          11.4567768003        3.8002015732       30.5166129635  CLST         256          1.0000000000
       767       256  TIP3  H1           11.7721477487        2.8731173222       30.2514415327  CLST         256          1.0000000000
       768       256  TIP3  H2           11.5873267730        3.7525650965       31.4891591485  CLST         256          1.0000000000
       769       257  TIP3  OH2          23.4276221488       30.6859286480       26.8628570041  CLST         257          1.0000000000
       770       257  TIP3  H1           24.2711936944       31.0053730229       27.1839503365  CLST         257          1.0000000000
       771       257  TIP3  H2           23.4023145919       30.9194710552       25.9663563863  CLST         257          1.0000000000
       772       258  TIP3  OH2          26.5306144510       10.2555249080        7.8110308733  CLST         258          1.0000000000
       773       258  TIP3  H1           26.8477293140       10.7430868095        7.0619445805  CLST         258          1.0000000000
       774       258  TIP3  H2           25.7717722281       10.7566488753        8.1392654750  CLST         258          1.0000000000
       775       259  TIP3  OH2          10.1565083766        6.1117465621        1.0382501257  CLST         259          1.0000000000
       776       259  TIP3  H1           11.0221595951        6.5626257064        0.8373625708  CLST         259          1.0000000000
       777       259  TIP3  H2            9.8615871456        6.6676217219        1.7659086607  CLST         259          1.0000000000
       778       260  TIP3  OH2          26.8612583273        7.7431070110        8.9362296653  CLST         260          1.0000000000
       779       260  TIP3  H1           26.8146745952        8.5695089233        8.4636764541  CLST         260          1.0000000000
       780       260  TIP3  H2           26.1839709731        7.2772003095        8.3697590929  CLST         260          1.0000000000
       781       261  TIP3  OH2           0.7938111936       27.5744135219       12.3625689787  CLST         261          1.0000000000
       782       261  TIP3  H1            0.2780032402       26.7017148788       12.3151652319  CLST         261          1.0000000000
       783       261  TIP3  H2            1.5060589849       27.3259144994       12.9548230680  CLST         261          1.0000000000
       784       262  TIP3  OH2          20.7686147263        4.8368292094        5.9900414495  CLST         262          1.0000000000
       785       262  TIP3  H1           21.6798214120        4.6775422323        5.5874687686  CLST         262          1.0000000000
       786       262  TIP3  H2           20.2349060446        5.1160169699        5.2089158742  CLST         262          1.0000000000
       787       263  TIP3  OH2           1.7425403816        0.8419168638        6.6126899705  CLST         263          1.0000000000
       788       263  TIP3  H1            2.4176345848        1.4653015384        7.0010959046  CLST         263          1.0000000000
       789       263  TIP3  H2            2.1576212073        0.0264444584        6.9040583655  CLST         263          1.0000000000
       790       264  TIP3  OH2           5.2056850583       27.7219688266       22.1925157523  CLST         264          1.0000000000
       791       264  TIP3  H1            5.3348207603       26.7617646273       21.9452291634  CLST         264          1.0000000000
       792       264  TIP3  H2            4.3222001121       27.8294452186       21.8993305543  CLST         264          1.0000000000
       793       265  TIP3  OH2           7.5743170002        4.9706336077       21.6594692028  CLST         265          1.0000000000
       794       265  TIP3  H1            7.6585045590        5.9435615981       21.5419030809  CLST         265          1.0000000000
       795       265  TIP3  H2            8.3862421023        4.7104833980       22.1504596982  CLST         265          1.0000000000
       796       266  TIP3  OH2          23.8589648235       23.0335575388        0.1590550145  CLST         266          1.0000000000
       797       266  TIP3  H1           24.1991430218       22.6616093100        1.0099540933  CLST         266          1.0000000000
       798       266  TIP3  H2           23.7166996252       23.9679611160        0.3599556128  CLST         266          1.0000000000
       799       267  TIP3  OH2           1.2399158735        2.6375364211       26.6743537110  CLST         267          1.0000000000
       800       267  TIP3  H1            1.2450397860        3.4450096717       27.2117268380  CLST         267          1.0000000000
       801       267  TIP3  H2            2.1794058606        2.4161719676       26.8189191748  CLST         267          1.0000000000
       802       268  TIP3  OH2           5.1217034141       27.3144675373       25.0629029584  CLST         268          1.0000000000
       803       268  TIP3  H1            5.1764078801       27.7285905155       24.1321474061  CLST         268          1.0000000000
       804       268  TIP3  H2            4.7303706381       26.4512021955       24.7788474748  CLST         268          1.0000000000
       805       269  TIP3  OH2           5.5690558251       10.8588816098       31.8165267796  CLST         269          1.0000000000
       806       269  TIP3  H1            6.4043865635       10.6873907372       31.3588702342  CLST         269          1.0000000000
       807       269  TIP3  H2            5.7111490317       11.6719088463       32.2892426594  CLST         269          1.0000000000
       808       270  TIP3  OH2           1.2625554171        9.2866613368       23.9543114774  CLST         270          1.0000000000
       809       270  TIP3  H1            1.1669552989        8.4646741085       23.5165297101  CLST         270          1.0000000000
       810       270  TIP3  H2            0.8576876273        9.0025815968       24.8004728259  CLST         270          1.0000000000
       811       271  TIP3  OH2          25.4239659054       22.7696515052       29.7077444392  CLST         271          1.0000000000
       812       271  TIP3  H1           26.1480241178       23.2098902314       30.2516247796  CLST         271          1.0000000000
       813       271  TIP3  H2           24.6875292725       22.6524419491       30.3423517063  CLST         271          1.0000000000
       814       272  TIP3  OH2           9.4462627254       23.6349065030        5.8147785009  CLST         272          1.0000000000
       815       272  TIP3  H1            8.4885555599       23.5863392878        6.0597697768  CLST         272          1.0000000000
       816       272  TIP3  H2            9.4948128298       24.1679621483        4.9896528035  CLST         272          1.0000000000
       817       273  TIP3  OH2          17.9384858410        9.4486874576        3.2398602111  CLST         273          1.0000000000
       818       273  TIP3  H1           17.1444505861        9.5666963483        3.8451960581  CLST         273          1.0000000000
       819       273  TIP3  H2           18.4418136279        8.8447804784        3.7885096189  CLST         273          1.0000000000
       820       274  TIP3  OH2           4.1354512386       13.0552833156       27.8150015765  CLST         274          1.0000000000
       821       274  TIP3  H1            3.9961971809       12.3152202168       28.5214095656  CLST         274          1.0000000000
       822       274  TIP3  H2            3.6578344712       13.7719805014       28.2668395135  CLST         274          1.0000000000
       823       275  TIP3  OH2           8.8173849396       20.7722233996        5.9803406895  CLST         275          1.0000000000
       824       275  TIP3  H1            9.4084263100       21.5354485338        6.0061007828  CLST         275          1.0000000000
       825       275  TIP3  H2            9.3107420490       20.0444560923        5.5641030888  CLST         275          1.0000000000
       826       276  TIP3  OH2          31.6619382710       25.9143867102        1.4462236960  CLST         276          1.0000000000
       827       276  TIP3  H1           31.1890571467       25.8932192709        0.5973632748  CLST         276          1.0000000000
       828       276  TIP3  H2           31.1841796906       26.5211919806        1.9854661128  CLST         276          1.0000000000
       829       277  TIP3  OH2           6.5108363871        6.4106954267       24.9400671044  CLST         277          1.0000000000
       830       277  TIP3  H1            5.6639339246        6.0469247001       24.6919442431  CLST         277          1.0000000000
       831       277  TIP3  H2            6.5919784858        7.2638584576       24.5673513939  CLST         277          1.0000000000
       832       278  TIP3  OH2          31.1848503027       24.3844432149        3.4785987904  CLST         278          1.0000000000
       833       278  TIP3  H1           31.4772632462       24.9471108679        2.7618806745  CLST         278          1.0000000000
       834       278  TIP3  H2           30.8560339904       25.0396494110        4.1621831863  CLST         278          1.0000000000
       835       279  TIP3  OH2          18.2835606857        6.4742737707        0.3920790977  CLST         279          1.0000000000
       836       279  TIP3  H1           18.2615198374        5.5514293217        0.0459650768  CLST         279          1.0000000000
       837       279  TIP3  H2           19.1674477503        6.5735626934        0.6446036550  CLST         279          1.0000000000
       838       280  TIP3  OH2          28.5750409688       21.8461146159        5.4560295961  CLST         280          1.0000000000
       839       280  TIP3  H1           28.4240546201       22.5885018039        6.0283024214  CLST         280          1.0000000000
       840       280  TIP3  H2           28.2155904178       22.2309795906        4.6210076825  CLST         280          1.0000000000
       841       281  TIP3  OH2           8.1237789546        7.8046748888       21.2648047356  CLST         281          1.0000000000
       842       281  TIP3  H1            8.5278621707        8.7136378284       21.2292940060  CLST         281          1.0000000000
       843       281  TIP3  H2            7.1895886133        7.9372994003       21.2208977352  CLST         281          1.0000000000
       844       282  TIP3  OH2          24.0774802828       19.9687183810        9.9530322245  CLST         282          1.0000000000
       845       282  TIP3  H1           23.4725882147       20.4844813593        9.4227295688  CLST         282          1.0000000000
       846       282  TIP3  H2           24.6450230274       19.4406052925        9.3235323958  CLST         282          1.0000000000
       847       283  TIP3  OH2           4.5030617975        8.6153395425       27.1714307413  CLST         283          1.0000000000
       848       283  TIP3  H1            4.6651496489        9.5793973675       26.9458209892  CLST         283          1.0000000000
       849       283  TIP3  H2            3.8113610395        8.7399081421       27.8547479283  CLST         283          1.0000000000
       850       284  TIP3  OH2          11.9218301376        8.3483055654       30.4249552744  CLST         284          1.0000000000
       851       284  TIP3  H1           11.5789812054        7.6216603590       29.8838911418  CLST         284          1.0000000000
       852       284  TIP3  H2           11.1467815942        8.9175601688       30.3465525639  CLST         284          1.0000000000
       853       285  TIP3  OH2          26.5597280522        1.8914833679        8.9142525314  CLST         285          1.0000000000
       854       285  TIP3  H1           27.2179104102        1.6402085429        8.1730235854  CLST         285          1.0000000000
       855       285  TIP3  H2           27.0864158177        2.6334130922        9.2473284519  CLST         285          1.0000000000
       856       286  TIP3  OH2           2.8809484967        5.8163762156       31.3421141163  CLST         286          1.0000000000
       857       286  TIP3  H1            2.0552336089        5.4717501439       31.6151030945  CLST         286          1.0000000000
       858       286  TIP3  H2            3.4105705023        5.4766401965       32.1407054665  CLST         286          1.0000000000
       859       287  TIP3  OH2          27.5388023319        9.2297864712       11.1666320397  CLST         287          1.0000000000
       860       287  TIP3  H1           27.2505219935       10.0356939183       11.6807763304  CLST         287          1.0000000000
       861       287  TIP3  H2           26.6866398109        8.8871585762       10.8766472770  CLST         287          1.0000000000
       862       288  TIP3  OH2           5.6296029409        3.4053226241       22.3721655435  CLST         288          1.0000000000
       863       288  TIP3  H1            5.5816173139        2.7588200709       21.7015834105  CLST         288          1.0000000000
       864       288  TIP3  H2            6.3338732302        4.0106544506       21.9842833265  CLST         288          1.0000000000
       865       289  TIP3  OH2          24.8338012145       26.8132744690       23.6738165836  CLST         289          1.0000000000
       866       289  TIP3  H1           24.0215740984       27.3956134991       23.6444697956  CLST         289          1.0000000000
       867       289  TIP3  H2           25.5216726795       27.4047376380       23.9529694992  CLST         289          1.0000000000
       868       290  TIP3  OH2           2.2196825905       19.8357141097       11.2676911329  CLST         290          1.0000000000
       869       290  TIP3  H1            2.7713769367       19.0631125604       11.4308929785  CLST         290          1.0000000000
       870       290  TIP3  H2            2.4800563413       20.4310629078       11.9227410662  CLST         290          1.0000000000
       871       291  TIP3  OH2          21.5421965685       28.3138639856        2.8570504908  CLST         291          1.0000000000
       872       291  TIP3  H1           20.9889816921       27.7765214502        3.3805902933  CLST         291          1.0000000000
       873       291  TIP3  H2           21.2400062653       28.1026729118        2.0158132070  CLST         291          1.0000000000
       874       292  TIP3  OH2          12.1111077446        3.4542549932       27.2016125683  CLST         292          1.0000000000
       875       292  TIP3  H1           11.2476703921        3.0395280921       27.1350531925  CLST         292          1.0000000000
       876       292  TIP3  H2           11.9092841429        4.2622611931       26.6543621145  CLST         292          1.0000000000
       877       293  TIP3  OH2           9.0507290416       10.6108123318       11.1823570105  CLST         293          1.0000000000
       878       293  TIP3  H1            8.5941082077       11.2778151749       11.5817289801  CLST         293          1.0000000000
       879       293  TIP3  H2            9.2390639046       11.0317740381       10.3270064609  CLST         293          1.0000000000
       880       294  TIP3  OH2           4.1231977679        4.5699466001       29.3622227535  CLST         294          1.0000000000
       881       294  TIP3  H1            3.5583239482        5.0861676112       29.9782198455  CLST         294          1.0000000000
       882       294  TIP3  H2            4.4947448477        5.1682473591       28.6692378534  CLST         294          1.0000000000
       883       295  TIP3  OH2          29.4924662438       18.4089947625       23.2283011885  CLST         295          1.0000000000
       884       295  TIP3  H1           28.7431184373       18.2627822219       23.7786648982  CLST         295          1.0000000000
       885       295  TIP3  H2           30.1582634439       18.3414810254       23.8573782605  CLST         295          1.0000000000
       886       296  TIP3  OH2          30.3459919211       11.5281198608       18.8360026983  CLST         296          1.0000000000
       887       296  TIP3  H1           31.2727037848       11.4885547600       18.6794790303  CLST         296          1.0000000000
       888       296  TIP3  H2           30.2638675764       11.2464791976       19.7854672443  CLST         296          1.0000000000
       889       297  TIP3  OH2           8.0840958196       31.3773617219       11.3227511947  CLST         297          1.0000000000
       890       297  TIP3  H1            8.7011170954       30.6944966679       11.1206097806  CLST         297          1.0000000000
       891       297  TIP3  H2            7.3037089877       30.9029648100       11.5142264539  CLST         297          1.0000000000
       892       298  TIP3  OH2           1.0153755485       30.5069013111       24.3844379597  CLST         298          1.0000000000
       893       298  TIP3  H1            1.4450760023       31.2265718674       23.8649570291  CLST         298          1.0000000000
       894       298  TIP3  H2            0.9377601902       29.8108122669       23.6506142057  CLST         298          1.0000000000
       895       299  TIP3  OH2           2.9682988121       10.2349778247       12.7272531607  CLST         299          1.0000000000
       896       299  TIP3  H1            2.2508425050       10.7333183935       12.3175414353  CLST         299          1.0000000000
       897       299  TIP3  H2            2.5000748811        9.4186660350       12.8634996230  CLST         299          1.0000000000
       898       300  TIP3  OH2          21.0624489303        5.2232173037       28.1799380510  CLST         300          1.0000000000
       899       300  TIP3  H1           20.8945378411        5.5083388834       27.2437146418  CLST         300          1.0000000000
       900       300  TIP3  H2           21.0850654038        6.0912357878       28.6453784800  CLST         300          1.0000000000
       901       301  TIP3  OH2           9.6580010979       23.6139904063       11.3702539006  CLST         301          1.0000000000
       902       301  TIP3  H1            9.3680755379       24.0201281728       12.1759555966  CLST         301          1.0000000000
       903       301  TIP3  H2            9.4920359470       22.6985420773       11.6160870220  CLST         301          1.0000000000
       904       302  TIP3  OH2           7.7795437289       12.7699428522        5.3637654389  CLST         302          1.0000000000
       905       302  TIP3  H1            7.1097760052       13.4316055483        5.1088354863  CLST         302          1.0000000000
       906       302  TIP3  H2            7.1144238392       12.1819112189        5.7380821270  CLST         302          1.0000000000
       907       303  TIP3  OH2          21.0044470015        1.3392876286       29.8488641348  CLST         303          1.0000000000
       908       303  TIP3  H1           21.8495721506        1.0055374135       30.2786410317  CLST         303          1.0000000000
       909       303  TIP3  H2           20.8745185585        0.7902204663       29.0419418878  CLST         303          1.0000000000
       910       304  TIP3  OH2          23.8880953187        1.2000484273       16.6588492158  CLST         304          1.0000000000
       911       304  TIP3  H1           24.1876429335        0.3390283710       17.0835593905  CLST         304          1.0000000000
       912       304  TIP3  H2           24.2995158101        1.2675532429       15.7848311279  CLST         304          1.0000000000
       913       305  TIP3  OH2           3.4740487391       28.0125379267       13.8870334540  CLST         305          1.0000000000
       914       305  TIP3  H1            4.2968785182       27.9333187736       13.4408801760  CLST         305          1.0000000000
       915       305  TIP3  H2            3.4796870356       28.9403618272       14.1427376388  CLST         305          1.0000000000
       916       306  TIP3  OH2           8.8507945527       19.9085260958       20.6971145243  CLST         306          1.0000000000
       917       306  TIP3  H1            9.3537693795       19.8780204167       19.8237160785  CLST         306          1.0000000000
       918       306  TIP3  H2            9.1270382913       19.1217406152       21.1443415955  CLST         306          1.0000000000
       919       307  TIP3  OH2           9.1614792297        7.8857879265       24.2392320722  CLST         307          1.0000000000
       920       307  TIP3  H1            8.2519751094        8.1795046491       24.2521585886  CLST         307          1.0000000000
       921       307  TIP3  H2            9.4912037237        8.2451024241       25.0899376875  CLST         307          1.0000000000
       922       308  TIP3  OH2          21.0360729304       27.0227341466        8.7955656133  CLST         308          1.0000000000
       923       308  TIP3  H1           20.9005610783       26.4548923081        9.6095682540  CLST         308          1.0000000000
       924       308  TIP3  H2           21.9267734624       27.4322386574        9.0810767951  CLST         308          1.0000000000
       925       309  TIP3  OH2          29.9123675542       31.3424587057        5.5622180766  CLST         309          1.0000000000
       926       309  TIP3  H1           29.0600849092       31.1406458284        5.0261257768  CLST         309          1.0000000000
       927       309  TIP3  H2           29.7028469646       30.8880973440        6.3299290856  CLST         309          1.0000000000
       928       310  TIP3  OH2          26.8516137347       31.3248805217        7.3246281247  CLST         310          1.0000000000
       929       310  TIP3  H1           27.7007038707       31.7030319386        7.5435107527  CLST         310          1.0000000000
       930       310  TIP3  H2           26.8045751546       30.6600215982        8.0483000164  CLST         310          1.0000000000
       931       311  TIP3  OH2          24.6455700673        8.3679775207       19.5958814194  CLST         311          1.0000000000
       932       311  TIP3  H1           25.0925606279        7.5931430126       19.1113610431  CLST         311          1.0000000000
       933       311  TIP3  H2           24.6264187616        8.0480419156       20.5168105887  CLST         311          1.0000000000
       934       312  TIP3  OH2           6.4836912881       30.9941956729       25.6090090360  CLST         312          1.0000000000
       935       312  TIP3  H1            6.0748954322       31.7465360039       26.0071410064  CLST         312          1.0000000000
       936       312  TIP3  H2            6.3327117976       30.2591519787       26.3203051585  CLST         312          1.0000000000
       937       313  TIP3  OH2          22.9639383045       21.0876046050        7.0539949256  CLST         313          1.0000000000
       938       313  TIP3  H1           23.4841793190       21.9491411349        7.0700244463  CLST         313          1.0000000000
       939       313  TIP3  H2           22.5123353930       21.2637515108        6.1957062392  CLST         313          1.0000000000
       940       314  TIP3  OH2          30.2998505381       19.7259649418       21.0618128302  CLST         314          1.0000000000
       941       314  TIP3  H1           30.6069548263       20.5195756713       21.6528356682  CLST         314          1.0000000000
       942       314  TIP3  H2           29.8733389301       19.1507337636       21.7107678776  CLST         314          1.0000000000
       943       315  TIP3  OH2          30.4323286153       31.2080043973       25.5054755709  CLST         315          1.0000000000
       944       315  TIP3  H1           31.3161018465       30.7782246619       25.2959696812  CLST         315          1.0000000000
       945       315  TIP3  H2           30.6458005804       31.5535857901       26.4249176129  CLST         315          1.0000000000
       946       316  TIP3  OH2          18.5020419370       28.0420166508       26.4203283875  CLST         316          1.0000000000
       947       316  TIP3  H1           19.2723732132       27.4492163268       26.2792540836  CLST         316          1.0000000000
       948       316  TIP3  H2           18.8798332373       28.8253030003       26.1538876190  CLST         316          1.0000000000
       949       317  TIP3  OH2          25.7630293207       -0.1455065114       28.1131732309  CLST         317          1.0000000000
       950       317  TIP3  H1           26.6679242173       -0.0736938087       28.4798988144  CLST         317          1.0000000000
       951       317  TIP3  H2           25.3168826790        0.4786785406       28.7565576879  CLST         317          1.0000000000
       952       318  TIP3  OH2          27.8986339210       22.2695322072       22.4636159904  CLST         318          1.0000000000
       953       318  TIP3  H1           27.6231930087       22.2228262818       23.4426694044  CLST         318          1.0000000000
       954       318  TIP3  H2           28.8695678175       22.1706853788       22.6464956021  CLST         318          1.0000000000
       955       319  TIP3  OH2           5.6536744120       10.8417907998        8.7141528016  CLST         319          1.0000000000
       956       319  TIP3  H1            6.1832464768       10.1420752558        8.3268471499  CLST         319          1.0000000000
       957       319  TIP3  H2            6.2438243380       11.1269243780        9.3782354303  CLST         319          1.0000000000
       958       320  TIP3  OH2          21.2652908947        1.0544433325       17.2918252837  CLST         320          1.0000000000
       959       320  TIP3  H1           22.0958152657        1.2649984347       16.8577589599  CLST         320          1.0000000000
       960       320  TIP3  H2           21.4970660487        0.2005918305       17.7530494130  CLST         320          1.0000000000
       961       321  TIP3  OH2          21.9210398144       10.2556824815       22.1302378998  CLST         321          1.0000000000
       962       321  TIP3  H1           21.0281099691        9.9426079036       22.1813998304  CLST         321          1.0000000000
       963       321  TIP3  H2           22.0669532146       10.1286707337       21.1518569020  CLST         321          1.0000000000
       964       322  TIP3  OH2          19.1285669382       30.2178139141       29.3624929309  CLST         322          1.0000000000
       965       322  TIP3  H1           19.6003431708       30.7369641391       28.6741636367  CLST         322          1.0000000000
       966       322  TIP3  H2           19.8976724610       29.8578054009       29.9430527789  CLST         322          1.0000000000
       967       323  TIP3  OH2          30.8383721344        3.9918810333        4.2029845699  CLST         323          1.0000000000
       968       323  TIP3  H1           31.1057759631        3.1115780176        4.5368691152  CLST         323          1.0000000000
       969       323  TIP3  H2           30.8045870366        3.9057063884        3.2282411262  CLST         323          1.0000000000
       970       324  TIP3  OH2          20.8661371673        6.3718320254        1.5097082922  CLST         324          1.0000000000
       971       324  TIP3  H1           20.8748767556        5.4506890827        1.9085207307  CLST         324          1.0000000000
       972       324  TIP3  H2           21.5183140638        6.8244769126        2.1064542852  CLST         324          1.0000000000
       973       325  TIP3  OH2          27.3006661784        0.9040919779        3.6367342833  CLST         325          1.0000000000
       974       325  TIP3  H1           26.3290571171        0.8930407527        3.5820997615  CLST         325          1.0000000000
       975       325  TIP3  H2           27.5441297337        1.7152510669        3.1711419848  CLST         325          1.0000000000
       976       326  TIP3  OH2           9.0899656836        8.6393896346       29.1968074817  CLST         326          1.0000000000
       977       326  TIP3  H1            8.8828408849        7.7390821139       29.3844554060  CLST         326          1.0000000000
       978       326  TIP3  H2            8.4977462288        8.7342082651       28.3880264430  CLST         326          1.0000000000
       979       327  TIP3  OH2          10.4132673713       28.2143328674       18.7952526540  CLST         327          1.0000000000
       980       327  TIP3  H1           10.1678406607       28.6749824230       18.0135683780  CLST         327          1.0000000000
       981       327  TIP3  H2           10.0117173714       28.7525658515       19.5406251565  CLST         327          1.0000000000
       982       328  TIP3  OH2           2.2332745067        6.9365177150       22.1021876494  CLST         328          1.0000000000
       983       328  TIP3  H1            2.2213379638        6.0408595489       22.5796534377  CLST         328          1.0000000000
       984       328  TIP3  H2            3.1271568869        7.0840848285       21.8244008198  CLST         328          1.0000000000
       985       329  TIP3  OH2           1.4000239328       20.2198101751       29.6055693599  CLST         329          1.0000000000
       986       329  TIP3  H1            1.5144203902       21.0345233600       29.1162854923  CLST         329          1.0000000000
       987       329  TIP3  H2            2.2881370444       20.1416988334       30.0566696458  CLST         329          1.0000000000
       988       330  TIP3  OH2          22.4130873910       30.8849257313        3.4118454985  CLST         330          1.0000000000
       989       330  TIP3  H1           22.1681420950       29.9585758347        3.3011060503  CLST         330          1.0000000000
       990       330  TIP3  H2           21.7735180573       31.2923766335        3.9647271381  CLST         330          1.0000000000
       991       331  TIP3  OH2          12.3679083482        9.7013159710       22.7775031334  CLST         331          1.0000000000
       992       331  TIP3  H1           13.1155369691        9.8721016083       22.2131383070  CLST         331          1.0000000000
       993       331  TIP3  H2           12.4342113714        8.7706809685       22.9526802324  CLST         331          1.0000000000
       994       332  TIP3  OH2          11.2885615263       30.5326199030       27.3492777554  CLST         332          1.0000000000
       995       332  TIP3  H1           12.0918468698       30.2749160319       26.8378881910  CLST         332          1.0000000000
       996       332  TIP3  H2           11.6418554179       31.3849970895       27.7005061192  CLST         332          1.0000000000
       997       333  TIP3  OH2          10.5492892168       17.6243215146        8.0064408972  CLST         333          1.0000000000
       998       333  TIP3  H1            9.6382601013       17.5816735250        8.2713362859  CLST         333          1.0000000000
       999       333  TIP3  H2           10.5736820282       17.5722509880        7.0678902323  CLST         333          1.0000000000
      1000       334  TIP3  OH2          21.2875347729       22.1641800687        9.1576589082  CLST         334          1.0000000000
      1001       334  TIP3  H1           20.3285641894       22.0938618574        8.7841314048  CLST         334          1.0000000000
      1002       334  TIP3  H2           21.7002534481       21.6405058947        8.4527602221  CLST         334          1.0000000000
      1003       335  TIP3  OH2           6.7732571295       21.7919740715        1.4602757818  CLST         335          1.0000000000
      1004       335  TIP3  H1            6.8225613421       21.4542191345        2.3581344274  CLST         335          1.0000000000
      1005       335  TIP3  H2            5.8220498999       22.0257462727        1.3858579027  CLST         335          1.0000000000
      1006       336  TIP3  OH2          22.4999048479       28.0906324992       28.1855367252  CLST         336          1.0000000000
      1007       336  TIP3  H1           22.9956221432       27.4241284812       27.7074717597  CLST         336          1.0000000000
      1008       336  TIP3  H2           23.0949303886       28.8549095908       27.9750604434  CLST         336          1.0000000000
      1009       337  TIP3  OH2          30.3259782621       26.9142068096        8.0489893215  CLST         337          1.0000000000
      1010       337  TIP3  H1           30.8217504944       26.9999428136        8.8525336833  CLST         337          1.0000000000
      1011       337  TIP3  H2           30.0591024578       27.8465096468        7.9493343711  CLST         337          1.0000000000
      1012       338  TIP3  OH2          31.4277840492        2.7101724239       10.7147639336  CLST         338          1.0000000000
      1013       338  TIP3  H1           31.3204778872        2.7776597998        9.7706103080  CLST         338          1.0000000000
      1014       338  TIP3  H2           31.7452872842        1.8308573839       10.8249098150  CLST         338          1.0000000000
      1015       339  TIP3  OH2           7.9272225577        7.9379466568        2.8417018876  CLST         339          1.0000000000
      1016       339  TIP3  H1            7.6612154103        8.6749984681        3.4306721096  CLST         339          1.0000000000
      1017       339  TIP3  H2            7.2646175717        7.9376195955        2.1298292671  CLST         339          1.0000000000
      1018       340  TIP3  OH2          27.2392447650       20.1325094374       20.7072494110  CLST         340          1.0000000000
      1019       340  TIP3  H1           27.5237616590       20.9403281139       21.2115953637  CLST         340          1.0000000000
      1020       340  TIP3  H2           27.6519831684       19.3696816780       21.1656721690  CLST         340          1.0000000000
      1021       341  TIP3  OH2          25.1319839531        4.6020284863        9.3241475492  CLST         341          1.0000000000
      1022       341  TIP3  H1           26.1061562530        4.4122976898        9.4531731018  CLST         341          1.0000000000
      1023       341  TIP3  H2           24.6297732617        3.9131052552        9.7965148355  CLST         341          1.0000000000
      1024       342  TIP3  OH2          27.4071553907       20.8583152643       13.9652835426  CLST         342          1.0000000000
      1025       342  TIP3  H1           26.6819678704       20.8704408195       13.3486417925  CLST         342          1.0000000000
      1026       342  TIP3  H2           26.9111214667       21.1561066835       14.7622703797  CLST         342          1.0000000000
      1027       343  TIP3  OH2           1.3713219175       22.9571190628       21.9181216074  CLST         343          1.0000000000
      1028       343  TIP3  H1            1.1635144438       23.8459653852       21.5584276651  CLST         343          1.0000000000
      1029       343  TIP3  H2            1.9336947144       22.5368084451       21.2835151488  CLST         343          1.0000000000
      1030       344  TIP3  OH2           5.4975339374       27.8693671850        6.3898357484  CLST         344          1.0000000000
      1031       344  TIP3  H1            4.8224021440       27.3858494534        6.8405181510  CLST         344          1.0000000000
      1032       344  TIP3  H2            6.1234707857       27.1987826933        6.1260659914  CLST         344          1.0000000000
      1033       345  TIP3  OH2          13.1600970627        7.2558814349        8.8080681871  CLST         345          1.0000000000
      1034       345  TIP3  H1           12.5741277935        6.7820352950        8.2763402418  CLST         345          1.0000000000
      1035       345  TIP3  H2           12.5716620545        7.3506559051        9.6380210295  CLST         345          1.0000000000
      1036       346  TIP3  OH2           9.4441129401        9.1940520811        0.9166816805  CLST         346          1.0000000000
      1037       346  TIP3  H1            9.7827430686        9.9859579426        1.3973144150  CLST         346          1.0000000000
      1038       346  TIP3  H2            9.0915735233        8.6445718028        1.6716687255  CLST         346          1.0000000000
      1039       347  TIP3  OH2          26.9886313349        2.8556793034       22.2618956099  CLST         347          1.0000000000
      1040       347  TIP3  H1           26.2053566006        3.3411468342       22.6465288158  CLST         347          1.0000000000
      1041       347  TIP3  H2           27.5830072711        2.9083291449       23.0005754356  CLST         347          1.0000000000
      1042       348  TIP3  OH2          30.6003336226        6.1394883211        5.8284189219  CLST         348          1.0000000000
      1043       348  TIP3  H1           30.4837682420        5.2482072141        5.3793378463  CLST         348          1.0000000000
      1044       348  TIP3  H2           30.9674914401        6.5882257137        5.0348662889  CLST         348          1.0000000000
      1045       349  TIP3  OH2          27.8396385868        4.9805957464       29.2613247327  CLST         349          1.0000000000
      1046       349  TIP3  H1           28.0147078002        4.9241645585       28.3384471795  CLST         349          1.0000000000
      1047       349  TIP3  H2           28.4097047752        5.7665926165       29.4913906141  CLST         349          1.0000000000
      1048       350  TIP3  OH2          29.2790389181        8.8437351694        5.2953783166  CLST         350          1.0000000000
      1049       350  TIP3  H1           28.7409255635        8.6273307122        4.5336170453  CLST         350          1.0000000000
      1050       350  TIP3  H2           29.3349871558        8.0334805203        5.8114143906  CLST         350          1.0000000000
      1051       351  TIP3  OH2           4.8512133411       24.2885633567       24.1686505346  CLST         351          1.0000000000
      1052       351  TIP3  H1            4.1180316946       23.6840983770       24.2906939463  CLST         351          1.0000000000
      1053       351  TIP3  H2            4.8529957000       24.5300288374       23.2086324420  CLST         351          1.0000000000
      1054       352  TIP3  OH2          21.4808024456       20.8857088114        1.6350494632  CLST         352          1.0000000000
      1055       352  TIP3  H1           22.4826464124       20.7894849421        1.6143408491  CLST         352          1.0000000000
      1056       352  TIP3  H2           21.3203308797       21.5909642064        0.9838603089  CLST         352          1.0000000000
      1057       353  TIP3  OH2          10.8609900223       23.7613509545       23.2471050221  CLST         353          1.0000000000
      1058       353  TIP3  H1            9.9209343936       23.6440348618       23.1229065200  CLST         353          1.0000000000
      1059       353  TIP3  H2           11.1229022425       23.2717550994       24.0686073629  CLST         353          1.0000000000
      1060       354  TIP3  OH2           6.8803078722       21.2898070896        4.1068910865  CLST         354          1.0000000000
      1061       354  TIP3  H1            7.4800445826       20.9646116592        4.7619604256  CLST         354          1.0000000000
      1062       354  TIP3  H2            6.4640526347       22.1187155987        4.5059079942  CLST         354          1.0000000000
      1063       355  TIP3  OH2          24.6431299179        9.1145383980       23.0930764979  CLST         355          1.0000000000
      1064       355  TIP3  H1           25.4800304593        9.5779133319       22.8774519124  CLST         355          1.0000000000
      1065       355  TIP3  H2           23.9760955618        9.6388093169       22.6644070919  CLST         355          1.0000000000
      1066       356  TIP3  OH2          12.4970636061        0.9849076497       29.9046772539  CLST         356          1.0000000000
      1067       356  TIP3  H1           11.5639631444        0.7139892610       29.6759520641  CLST         356          1.0000000000
      1068       356  TIP3  H2           12.6730781877        0.4347844908       30.6222173352  CLST         356          1.0000000000
      1069       357  TIP3  OH2          31.2087736925       31.3177416068       30.0472594041  CLST         357          1.0000000000
      1070       357  TIP3  H1           31.9999143364       30.8055986669       29.7208186006  CLST         357          1.0000000000
      1071       357  TIP3  H2           31.0184581596       31.6777766500       29.1956338081  CLST         357          1.0000000000
      1072       358  TIP3  OH2          26.2883407768        6.9771059322       24.2348326838  CLST         358          1.0000000000
      1073       358  TIP3  H1           25.5733735530        7.4431133857       23.7656199488  CLST         358          1.0000000000
      1074       358  TIP3  H2           25.7526065144        6.6374394953       24.9651470236  CLST         358          1.0000000000
      1075       359  TIP3  OH2          26.7583910795       12.1503218289        6.0789649084  CLST         359          1.0000000000
      1076       359  TIP3  H1           26.4069074809       11.8845728870        5.2269851157  CLST         359          1.0000000000
      1077       359  TIP3  H2           27.6525924444       12.3724570061        5.8696099507  CLST         359          1.0000000000
      1078       360  TIP3  OH2          24.9815898597        5.8432957220       28.5876679346  CLST         360          1.0000000000
      1079       360  TIP3  H1           24.7036791500        6.7273725254       28.9708035892  CLST         360          1.0000000000
      1080       360  TIP3  H2           25.8441485836        5.7142557383       28.9359990587  CLST         360          1.0000000000
      1081       361  TIP3  OH2          30.2370618177       30.9194701559        9.9042370059  CLST         361          1.0000000000
      1082       361  TIP3  H1           30.2888274386       31.3688174971       10.7719133146  CLST         361          1.0000000000
      1083       361  TIP3  H2           30.1711891645       30.0706489637       10.3278047629  CLST         361          1.0000000000
      1084       362  TIP3  OH2          21.3005554376        2.7802426337        0.4977585116  CLST         362          1.0000000000
      1085       362  TIP3  H1           21.1951329999        3.2884546135       -0.3829049299  CLST         362          1.0000000000
      1086       362  TIP3  H2           20.5466049466        2.1525893576        0.3659505068  CLST         362          1.0000000000
      1087       363  TIP3  OH2          10.5912273741        2.6505001323       10.1464179137  CLST         363          1.0000000000
      1088       363  TIP3  H1           10.5515583020        1.7986671071        9.7313307098  CLST         363          1.0000000000
      1089       363  TIP3  H2           11.3774220681        2.6931563124       10.7237250080  CLST         363          1.0000000000
      1090       364  TIP3  OH2           7.6231671963       26.2602144605       25.5975230885  CLST         364          1.0000000000
      1091       364  TIP3  H1            6.8596898397       26.6844225852       25.1255634455  CLST         364          1.0000000000
      1092       364  TIP3  H2            8.2274685596       26.2587923120       24.8734731848  CLST         364          1.0000000000
      1093       365  TIP3  OH2          25.6907221019       25.1010692131        2.6621268522  CLST         365          1.0000000000
      1094       365  TIP3  H1           25.3838351320       25.8188589263        2.1121509134  CLST         365          1.0000000000
      1095       365  TIP3  H2           24.8885307876       24.5300289720        2.7447467558  CLST         365          1.0000000000
      1096       366  TIP3  OH2           1.9699219503       30.4659886926       28.8865916720  CLST         366          1.0000000000
      1097       366  TIP3  H1            2.8618622506       30.4028523315       29.2978282724  CLST         366          1.0000000000
      1098       366  TIP3  H2            2.0170979199       30.9051409388       28.0320060141  CLST         366          1.0000000000
      1099       367  TIP3  OH2          26.6389156465       11.7289830695       12.3916798467  CLST         367          1.0000000000
      1100       367  TIP3  H1           25.6749126778       11.6507007412       12.3318198081  CLST         367          1.0000000000
      1101       367  TIP3  H2           26.8675059245       12.5551119420       12.8129358878  CLST         367          1.0000000000
      1102       368  TIP3  OH2          29.3094549265        6.5823703792        1.0482765620  CLST         368          1.0000000000
      1103       368  TIP3  H1           29.0742313688        7.2257197999        0.4202280360  CLST         368          1.0000000000
      1104       368  TIP3  H2           29.1686965381        7.1613972780        1.8459216153  CLST         368          1.0000000000
      1105       369  TIP3  OH2          20.3150058239       30.0989356925       25.3613167055  CLST         369          1.0000000000
      1106       369  TIP3  H1           21.2698876316       29.8263991098       25.4899021487  CLST         369          1.0000000000
      1107       369  TIP3  H2           20.0880777298       29.6519024413       24.5248502960  CLST         369          1.0000000000
      1108       370  TIP3  OH2          19.7913778543        5.5835559503       20.2320925127  CLST         370          1.0000000000
      1109       370  TIP3  H1           19.4057636651        5.0109023429       19.5761831459  CLST         370          1.0000000000
      1110       370  TIP3  H2           19.1511813805        5.6725409155       20.9432020046  CLST         370          1.0000000000
      1111       371  TIP3  OH2           2.1992917417        7.9901441882        5.8805448115  CLST         371          1.0000000000
      1112       371  TIP3  H1            2.0038129472        7.5987880227        6.7238788736  CLST         371          1.0000000000
      1113       371  TIP3  H2            3.1630453985        7.9099412451        5.7736883596  CLST         371          1.0000000000
      1114       372  TIP3  OH2           8.1176323458       24.4650407859        9.0093613027  CLST         372          1.0000000000
      1115       372  TIP3  H1            8.6302435074       24.5245932705        8.1891936010  CLST         372          1.0000000000
      1116       372  TIP3  H2            8.8703031828       24.1955864910        9.6766318019  CLST         372          1.0000000000
      1117       373  TIP3  OH2          11.0370398873       31.4281378847        6.4506263097  CLST         373          1.0000000000
      1118       373  TIP3  H1           11.2243228257       32.2172351020        5.9158524192  CLST         373          1.0000000000
      1119       373  TIP3  H2           10.2523287444       30.9889470647        6.0629245236  CLST         373          1.0000000000
      1120       374  TIP3  OH2          22.4759199189        4.7701822031       19.6869670281  CLST         374          1.0000000000
      1121       374  TIP3  H1           22.2079035734        5.2870798257       18.8970610473  CLST         374          1.0000000000
      1122       374  TIP3  H2           21.6807729064        4.7906351655       20.1845496755  CLST         374          1.0000000000
      1123       375  TIP3  OH2           9.8570018643       26.4320687819       29.0835396250  CLST         375          1.0000000000
      1124       375  TIP3  H1           10.3400783594       26.7397336961       28.3425432641  CLST         375          1.0000000000
      1125       375  TIP3  H2            9.8854678011       25.5003160149       28.8897806471  CLST         375          1.0000000000
      1126       376  TIP3  OH2          29.6168208947       20.6893120697       12.0648727146  CLST         376          1.0000000000
      1127       376  TIP3  H1           29.0494512680       20.2879225235       12.7371845415  CLST         376          1.0000000000
      1128       376  TIP3  H2           28.9592248581       20.9744420718       11.4456606079  CLST         376          1.0000000000
      1129       377  TIP3  OH2          21.8784846679       12.9741407853       10.4294717070  CLST         377          1.0000000000
      1130       377  TIP3  H1           22.6741383568       12.4656345586       10.5363521782  CLST         377          1.0000000000
      1131       377  TIP3  H2           22.0015502071       13.4082655069        9.5277796687  CLST         377          1.0000000000
      1132       378  TIP3  OH2           2.0428552287       23.9509843324        7.2534443880  CLST         378          1.0000000000
      1133       378  TIP3  H1            2.1269557343       24.7889097629        7.6491675562  CLST         378          1.0000000000
      1134       378  TIP3  H2            1.4682310295       23.4268884603        7.8387062946  CLST         378          1.0000000000
      1135       379  TIP3  OH2          22.4581146375        9.3444072697       30.7240527443  CLST         379          1.0000000000
      1136       379  TIP3  H1           22.8697957653        9.3440580115       31.5803550201  CLST         379          1.0000000000
      1137       379  TIP3  H2           22.3418071063       10.2705755513       30.5108456604  CLST         379          1.0000000000
      1138       380  TIP3  OH2           2.9807765920       27.6894464116       20.6353213012  CLST         380          1.0000000000
      1139       380  TIP3  H1            2.5161807710       28.4725749914       20.2625194996  CLST         380          1.0000000000
      1140       380  TIP3  H2            3.4680264053       27.3261837375       19.8434788552  CLST         380          1.0000000000
      1141       381  TIP3  OH2          10.0677198266        4.2090122706        3.3219124374  CLST         381          1.0000000000
      1142       381  TIP3  H1            9.4423191057        4.8291085665        3.7620200388  CLST         381          1.0000000000
      1143       381  TIP3  H2           10.7230594470        4.8313203674        3.1036970051  CLST         381          1.0000000000
      1144       382  TIP3  OH2           1.9853874111       26.5299505672        5.6502958826  CLST         382          1.0000000000
      1145       382  TIP3  H1            2.5732876441       26.5108430322        6.4244114012  CLST         382          1.0000000000
      1146       382  TIP3  H2            2.4797970803       25.8188714017        5.0808045613  CLST         382          1.0000000000
      1147       383  TIP3  OH2          10.1577936345        8.9260331890        4.7123603591  CLST         383          1.0000000000
      1148       383  TIP3  H1            9.3727327277        9.0311838175        4.2300157897  CLST         383          1.0000000000
      1149       383  TIP3  H2           10.1668976130        9.8788442375        4.9653222296  CLST         383          1.0000000000
      1150       384  TIP3  OH2          28.6396461574       30.1567484766       23.5937382265  CLST         384          1.0000000000
      1151       384  TIP3  H1           28.9878449251       29.2469094050       23.5622773829  CLST         384          1.0000000000
      1152       384  TIP3  H2           29.1017569472       30.6208332692       24.3059841820  CLST         384          1.0000000000
      1153       385  TIP3  OH2           3.7265840657       20.1240499635       31.2314844482  CLST         385          1.0000000000
      1154       385  TIP3  H1            4.6539266121       19.7539871763       31.2757902955  CLST         385          1.0000000000
      1155       385  TIP3  H2            3.8496493599       20.9724807731       31.6456275612  CLST         385          1.0000000000
      1156       386  TIP3  OH2          27.5909214402        9.3260938771       25.6879674901  CLST         386          1.0000000000
      1157       386  TIP3  H1           27.1565284044        8.4877845786       25.4888935105  CLST         386          1.0000000000
      1158       386  TIP3  H2           27.5710487359        9.8151765665       24.8817507852  CLST         386          1.0000000000
      1159       387  TIP3  OH2          22.0861471137       10.6108723773        2.7255772778  CLST         387          1.0000000000
      1160       387  TIP3  H1           21.2441169923       10.3601309613        2.2736362868  CLST         387          1.0000000000
      1161       387  TIP3  H2           22.6752327693       10.3114027880        2.0973408194  CLST         387          1.0000000000
      1162       388  TIP3  OH2          30.1196398846       19.5871796702        5.9817458611  CLST         388          1.0000000000
      1163       388  TIP3  H1           29.4955766318       20.2976843411        5.6876830917  CLST         388          1.0000000000
      1164       388  TIP3  H2           30.1355968666       19.6850556189        6.9565191943  CLST         388          1.0000000000
      1165       389  TIP3  OH2          23.6915344477        3.3870297820       28.2209206031  CLST         389          1.0000000000
      1166       389  TIP3  H1           24.2738029847        4.1302415840       28.3088767337  CLST         389          1.0000000000
      1167       389  TIP3  H2           22.9327860619        3.7959474049       28.6247349019  CLST         389          1.0000000000
      1168       390  TIP3  OH2          25.9944937607       27.8888941001        4.5395342984  CLST         390          1.0000000000
      1169       390  TIP3  H1           26.3744683084       28.7634114581        4.4546521433  CLST         390          1.0000000000
      1170       390  TIP3  H2           26.8175039966       27.4469493210        4.3574858889  CLST         390          1.0000000000
      1171       391  TIP3  OH2          23.0595490528       22.9780633997       25.6778641783  CLST         391          1.0000000000
      1172       391  TIP3  H1           22.6920885180       22.2732398842       25.1012929036  CLST         391          1.0000000000
      1173       391  TIP3  H2           23.7725131959       22.5207448484       26.1704464836  CLST         391          1.0000000000
      1174       392  TIP3  OH2           0.9132992745       29.9406583720       10.0712625657  CLST         392          1.0000000000
      1175       392  TIP3  H1            0.5903983505       29.0617436386        9.9680590668  CLST         392          1.0000000000
      1176       392  TIP3  H2            0.1142763919       30.4237013342        9.8472974890  CLST         392          1.0000000000
      1177       393  TIP3  OH2          10.8744505590       19.5669665750       31.0002560940  CLST         393          1.0000000000
      1178       393  TIP3  H1           11.1751452521       20.4939168113       31.1898591543  CLST         393          1.0000000000
      1179       393  TIP3  H2           11.7345845043       19.2441794306       30.6533081420  CLST         393          1.0000000000
      1180       394  TIP3  OH2           0.5245730233       11.9245844537       23.3390262403  CLST         394          1.0000000000
      1181       394  TIP3  H1            0.8625748020       12.1757386776       24.2087001682  CLST         394          1.0000000000
      1182       394  TIP3  H2            0.7222680834       10.9775863262       23.3604868561  CLST         394          1.0000000000
      1183       395  TIP3  OH2           6.8876608203        7.4752599562       27.4317498900  CLST         395          1.0000000000
      1184       395  TIP3  H1            6.0993118959        8.0061402699       27.2034618164  CLST         395          1.0000000000
      1185       395  TIP3  H2            6.8064208096        6.8948099969       26.6967614062  CLST         395          1.0000000000
      1186       396  TIP3  OH2          30.8422088821       21.8865706940       22.8779464816  CLST         396          1.0000000000
      1187       396  TIP3  H1           30.8096995154       21.9267988884       23.8580928203  CLST         396          1.0000000000
      1188       396  TIP3  H2           31.6899809379       22.2956369017       22.7190825111  CLST         396          1.0000000000
      1189       397  TIP3  OH2          11.3572492593        7.1279219506       22.9689802119  CLST         397          1.0000000000
      1190       397  TIP3  H1           11.3241076546        6.2836684422       23.5059875545  CLST         397          1.0000000000
      1191       397  TIP3  H2           10.5616244429        7.6243016526       23.2771769583  CLST         397          1.0000000000
      1192       398  TIP3  OH2          10.6152487643        7.7815178287       26.9915866050  CLST         398          1.0000000000
      1193       398  TIP3  H1           10.3731118593        8.4416428471       27.6676210469  CLST         398          1.0000000000
      1194       398  TIP3  H2           11.2964554507        7.2620028030       27.4241536637  CLST         398          1.0000000000
      1195       399  TIP3  OH2           1.7363735117       11.0532563766        4.9414387256  CLST         399          1.0000000000
      1196       399  TIP3  H1            1.1918763785       10.2633979878        5.1286135267  CLST         399          1.0000000000
      1197       399  TIP3  H2            2.3889547788       11.1995298664        5.6634303597  CLST         399          1.0000000000
      1198       400  TIP3  OH2           3.9651679611       28.9431884562       26.8881347805  CLST         400          1.0000000000
      1199       400  TIP3  H1            4.7565149218       28.9550764897       27.4649706204  CLST         400          1.0000000000
      1200       400  TIP3  H2            4.4073736850       28.5005862644       26.1435094216  CLST         400          1.0000000000
      1201       401  TIP3  OH2          16.4795785119       10.0290357927        5.5142124306  CLST         401          1.0000000000
      1202       401  TIP3  H1           17.0986182397       10.5482943893        6.0845719026  CLST         401          1.0000000000
      1203       401  TIP3  H2           16.3427874909        9.4154891575        6.2095439020  CLST         401          1.0000000000
      1204       402  TIP3  OH2           1.9388048996       30.2150107600       12.8763975765  CLST         402          1.0000000000
      1205       402  TIP3  H1            1.8524607812       29.3167315489       13.0772070617  CLST         402          1.0000000000
      1206       402  TIP3  H2            1.7500899163       30.2089837710       11.9208539643  CLST         402          1.0000000000
      1207       403  TIP3  OH2          29.8709733619       24.8364082466       31.0365501683  CLST         403          1.0000000000
      1208       403  TIP3  H1           29.6953382227       25.3919072241       30.3113095402  CLST         403          1.0000000000
      1209       403  TIP3  H2           30.2072419023       23.9862438336       30.6733500448  CLST         403          1.0000000000
      1210       404  TIP3  OH2          27.0089661002       29.5322206793        9.3344857098  CLST         404          1.0000000000
      1211       404  TIP3  H1           26.7504563142       29.2379428285       10.2275538193  CLST         404          1.0000000000
      1212       404  TIP3  H2           26.6905894604       28.7768326237        8.7934567029  CLST         404          1.0000000000
      1213       405  TIP3  OH2          19.9212915624        7.2068094364       11.2685980070  CLST         405          1.0000000000
      1214       405  TIP3  H1           19.9239624605        6.2595707090       11.1157420828  CLST         405          1.0000000000
      1215       405  TIP3  H2           19.0332630567        7.3866687672       11.5904900324  CLST         405          1.0000000000
      1216       406  TIP3  OH2           1.0755566678        7.9147746320       19.6962555311  CLST         406          1.0000000000
      1217       406  TIP3  H1            0.8797847169        8.8381778180       19.5694106676  CLST         406          1.0000000000
      1218       406  TIP3  H2            1.3585638875        7.8390303262       20.6615331166  CLST         406          1.0000000000
      1219       407  TIP3  OH2          10.4030665794       18.4905562042        5.1449721927  CLST         407          1.0000000000
      1220       407  TIP3  H1           10.2233891804       18.3218473693        4.1781028702  CLST         407          1.0000000000
      1221       407  TIP3  H2           11.2923102104       18.8300031763        5.1548842565  CLST         407          1.0000000000
      1222       408  TIP3  OH2          28.8926191022       20.2386074128        1.9167258011  CLST         408          1.0000000000
      1223       408  TIP3  H1           29.6968500040       20.8324647705        1.7878824702  CLST         408          1.0000000000
      1224       408  TIP3  H2           29.2764991177       19.4342607774        2.3166376776  CLST         408          1.0000000000
      1225       409  TIP3  OH2           1.1700729444       22.2355879051        9.6804599239  CLST         409          1.0000000000
      1226       409  TIP3  H1            0.7989288951       22.7647764956       10.4038691393  CLST         409          1.0000000000
      1227       409  TIP3  H2            1.6321045992       21.5021491381       10.1990198446  CLST         409          1.0000000000
      1228       410  TIP3  OH2           9.7472206403       24.7918649914       26.6195124460  CLST         410          1.0000000000
      1229       410  TIP3  H1            8.8222988946       25.0097686732       26.3988952636  CLST         410          1.0000000000
      1230       410  TIP3  H2           10.2194422531       25.5944031445       26.2549681296  CLST         410          1.0000000000
      1231       411  TIP3  OH2          21.9385361651       29.6601095881       30.5922169926  CLST         411          1.0000000000
      1232       411  TIP3  H1           22.7053056218       29.4932807262       31.1998415492  CLST         411          1.0000000000
      1233       411  TIP3  H2           21.9736915813       28.8900667320       29.9700564499  CLST         411          1.0000000000
      1234       412  TIP3  OH2           6.7744405996       21.3119427193       19.8816341882  CLST         412          1.0000000000
      1235       412  TIP3  H1            5.9690471317       21.0161411468       20.2951088563  CLST         412          1.0000000000
      1236       412  TIP3  H2            7.4386508156       20.6594550374       20.1115812314  CLST         412          1.0000000000
      1237       413  TIP3  OH2           6.9606699098       13.0637546945        0.2501209684  CLST         413          1.0000000000
      1238       413  TIP3  H1            7.4719521372       12.3782761108       -0.1896633853  CLST         413          1.0000000000
      1239       413  TIP3  H2            7.7251842567       13.5621186969        0.6010584047  CLST         413          1.0000000000
      1240       414  TIP3  OH2           1.4478851495       29.4957358822       19.4698140303  CLST         414          1.0000000000
      1241       414  TIP3  H1            0.4983672342       29.7625678557       19.7154327432  CLST         414          1.0000000000
      1242       414  TIP3  H2            1.4353932258       29.3213123269       18.5351158396  CLST         414          1.0000000000
      1243       415  TIP3  OH2           4.1089707533        5.3582850089       23.4963360335  CLST         415          1.0000000000
      1244       415  TIP3  H1            3.4199760886        4.7253423525       23.8983729308  CLST         415          1.0000000000
      1245       415  TIP3  H2            4.7023634074        4.6561037336       23.0912940562  CLST         415          1.0000000000
      1246       416  TIP3  OH2           5.5471134510       12.3387529904       24.0769412523  CLST         416          1.0000000000
      1247       416  TIP3  H1            5.1102809661       13.0302983724       23.6575480372  CLST         416          1.0000000000
      1248       416  TIP3  H2            6.4052157772       12.3545153014       23.6251969274  CLST         416          1.0000000000
      1249       417  TIP3  OH2          12.6627388701       20.6760732194        2.6660447606  CLST         417          1.0000000000
      1250       417  TIP3  H1           11.8206132457       20.3246080031        2.3318007745  CLST         417          1.0000000000
      1251       417  TIP3  H2           12.9246824091       21.4525101191        2.0853231693  CLST         417          1.0000000000
      1252       418  TIP3  OH2          22.7084928494       30.2296409268        8.3057040730  CLST         418          1.0000000000
      1253       418  TIP3  H1           23.0721525985       30.5353870247        7.4205201539  CLST         418          1.0000000000
      1254       418  TIP3  H2           23.0354618124       30.8286760161        8.9718952813  CLST         418          1.0000000000
      1255       419  TIP3  OH2          15.4982335012        0.3983809523       25.7721601214  CLST         419          1.0000000000
      1256       419  TIP3  H1           14.8936995266        0.7892813507       26.4628763614  CLST         419          1.0000000000
      1257       419  TIP3  H2           16.2533447840        0.9201847254       25.9813664076  CLST         419          1.0000000000
      1258       420  TIP3  OH2          23.6517632207       23.6092247315        3.5287980149  CLST         420          1.0000000000
      1259       420  TIP3  H1           22.8819286245       24.1870867286        3.3105815749  CLST         420          1.0000000000
      1260       420  TIP3  H2           23.2557491865       22.7460534870        3.4412286749  CLST         420          1.0000000000
      1261       421  TIP3  OH2           3.5215284672       25.5548854684       18.5299598587  CLST         421          1.0000000000
      1262       421  TIP3  H1            4.4125055998       25.3052627979       18.6118720906  CLST         421          1.0000000000
      1263       421  TIP3  H2            3.0480115141       24.7029010019       18.4886468445  CLST         421          1.0000000000
      1264       422  TIP3  OH2          29.9989504252       22.3738026088       30.0920317345  CLST         422          1.0000000000
      1265       422  TIP3  H1           30.6382997814       21.6692700605       29.8824466376  CLST         422          1.0000000000
      1266       422  TIP3  H2           29.1301918477       21.8619775144       30.0779337682  CLST         422          1.0000000000
      1267       423  TIP3  OH2           1.7843098395        4.8725688444       28.0302655125  CLST         423          1.0000000000
      1268       423  TIP3  H1            2.5552342501        5.1977221763       27.5521588695  CLST         423          1.0000000000
      1269       423  TIP3  H2            2.2287998847        4.3061737734       28.7074756126  CLST         423          1.0000000000
      1270       424  TIP3  OH2          22.8043963995        4.4127202851        4.3592226949  CLST         424          1.0000000000
      1271       424  TIP3  H1           22.8662490835        3.7197579713        3.6773511845  CLST         424          1.0000000000
      1272       424  TIP3  H2           23.6213765649        4.8870142926        4.2497795333  CLST         424          1.0000000000
      1273       425  TIP3  OH2           8.1594821331       19.2677233161        8.3473447110  CLST         425          1.0000000000
      1274       425  TIP3  H1            8.3249974926       19.1717732353        7.3739919527  CLST         425          1.0000000000
      1275       425  TIP3  H2            7.8501806435       20.1586891453        8.4365941214  CLST         425          1.0000000000
      1276       426  TIP3  OH2           8.2961789110        2.2017529690        8.3921836081  CLST         426          1.0000000000
      1277       426  TIP3  H1            9.1616000856        1.9168937213        8.5923856536  CLST         426          1.0000000000
      1278       426  TIP3  H2            8.4553012833        3.0807499215        8.1279836602  CLST         426          1.0000000000
      1279       427  TIP3  OH2          11.5057175905        7.6140416456       10.9923002795  CLST         427          1.0000000000
      1280       427  TIP3  H1           11.2398515679        8.0143672132       11.8573867293  CLST         427          1.0000000000
      1281       427  TIP3  H2           10.6979881518        7.0909257223       10.6969305894  CLST         427          1.0000000000
      1282       428  TIP3  OH2          12.4740500079        7.7150189658        1.1611150816  CLST         428          1.0000000000
      1283       428  TIP3  H1           12.2946593318        8.3847888169        0.4621320720  CLST         428          1.0000000000
      1284       428  TIP3  H2           13.3958272021        7.5504156996        0.8976837189  CLST         428          1.0000000000
      1285       429  TIP3  OH2          11.8630602410       22.0993183956       31.1505507349  CLST         429          1.0000000000
      1286       429  TIP3  H1           12.4323998343       22.4991658472       31.7941877731  CLST         429          1.0000000000
      1287       429  TIP3  H2           11.6718299981       22.8019287530       30.5243891988  CLST         429          1.0000000000
      1288       430  TIP3  OH2           9.7196003023       25.2294087979        3.4770886293  CLST         430          1.0000000000
      1289       430  TIP3  H1            9.7657240015       24.5343238660        2.7495885326  CLST         430          1.0000000000
      1290       430  TIP3  H2           10.6547876937       25.5922831530        3.4015599533  CLST         430          1.0000000000
      1291       431  TIP3  OH2          19.1351113397        9.3840762528       29.3120001309  CLST         431          1.0000000000
      1292       431  TIP3  H1           18.3310837714        9.7559474722       29.0574854059  CLST         431          1.0000000000
      1293       431  TIP3  H2           18.9164050647        8.9362903156       30.1146073437  CLST         431          1.0000000000
      1294       432  TIP3  OH2           5.4089813771        8.4676307604       21.8508912959  CLST         432          1.0000000000
      1295       432  TIP3  H1            5.5602423802        8.8247809876       22.7135121574  CLST         432          1.0000000000
      1296       432  TIP3  H2            4.7085491188        9.0510383938       21.5531447332  CLST         432          1.0000000000
      1297       433  TIP3  OH2          31.0948017131        8.1119962693        7.7876686784  CLST         433          1.0000000000
      1298       433  TIP3  H1           30.2761387214        8.6032818009        7.9850970642  CLST         433          1.0000000000
      1299       433  TIP3  H2           30.7195239886        7.5598920363        7.0736169442  CLST         433          1.0000000000
      1300       434  TIP3  OH2          24.5188926666        0.6650433205        3.8793954820  CLST         434          1.0000000000
      1301       434  TIP3  H1           24.1273113945        1.3361219053        3.2764647656  CLST         434          1.0000000000
      1302       434  TIP3  H2           23.8499243941       -0.0616025207        3.7324626883  CLST         434          1.0000000000
      1303       435  TIP3  OH2           9.8749769878       31.5116954631       24.6537860501  CLST         435          1.0000000000
      1304       435  TIP3  H1            9.4423080021       31.7007227934       25.5223910879  CLST         435          1.0000000000
      1305       435  TIP3  H2           10.6497125650       32.0338299968       24.6814967136  CLST         435          1.0000000000
      1306       436  TIP3  OH2           3.6813519802       10.5938478177       22.8477154017  CLST         436          1.0000000000
      1307       436  TIP3  H1            3.9200417003       11.0832160662       23.6262113854  CLST         436          1.0000000000
      1308       436  TIP3  H2            2.9003958771       10.0972193073       23.1608374098  CLST         436          1.0000000000
      1309       437  TIP3  OH2          23.4107089568       31.0288062119       23.8915740950  CLST         437          1.0000000000
      1310       437  TIP3  H1           23.1853256258       31.3555788320       23.0106721223  CLST         437          1.0000000000
      1311       437  TIP3  H2           24.3201809015       31.3002841014       24.0820933614  CLST         437          1.0000000000
      1312       438  TIP3  OH2          28.5896332608        5.4586292972       23.8367777733  CLST         438          1.0000000000
      1313       438  TIP3  H1           27.7246967488        5.9609313407       23.8502212230  CLST         438          1.0000000000
      1314       438  TIP3  H2           28.7476805719        5.7741030553       22.9389027991  CLST         438          1.0000000000
      1315       439  TIP3  OH2          14.4172021988        1.5688973444       27.8405648625  CLST         439          1.0000000000
      1316       439  TIP3  H1           13.8144595567        2.2783224429       27.5199730519  CLST         439          1.0000000000
      1317       439  TIP3  H2           13.9493001204        1.2854835020       28.6494420423  CLST         439          1.0000000000
      1318       440  TIP3  OH2           1.2242359410       18.9153937102       20.6435361112  CLST         440          1.0000000000
      1319       440  TIP3  H1            0.2891255259       19.2901235537       20.6193393989  CLST         440          1.0000000000
      1320       440  TIP3  H2            1.1553450353       17.9904996446       20.8208325363  CLST         440          1.0000000000
      1321       441  TIP3  OH2          30.3201479348       27.6518494888        3.1769833929  CLST         441          1.0000000000
      1322       441  TIP3  H1           30.1094622211       28.5327415393        3.3601322712  CLST         441          1.0000000000
      1323       441  TIP3  H2           30.4935946863       27.1749046040        4.0706704740  CLST         441          1.0000000000
      1324       442  TIP3  OH2           3.2141999639       21.9657016102       23.8425605860  CLST         442          1.0000000000
      1325       442  TIP3  H1            3.9437591214       21.6587867061       23.2477453079  CLST         442          1.0000000000
      1326       442  TIP3  H2            2.5414615003       22.2849182500       23.2523135658  CLST         442          1.0000000000
      1327       443  TIP3  OH2           1.2305393310       10.3526039705       18.9673208753  CLST         443          1.0000000000
      1328       443  TIP3  H1            1.6445505680       11.2123302940       19.2639793823  CLST         443          1.0000000000
      1329       443  TIP3  H2            2.0853664506        9.8513504622       18.8962501746  CLST         443          1.0000000000
      1330       444  TIP3  OH2          23.9095662607        1.2901022900       30.1319264586  CLST         444          1.0000000000
      1331       444  TIP3  H1           23.8894881932        2.0386869558       29.4775904405  CLST         444          1.0000000000
      1332       444  TIP3  H2           24.4367628838        1.7693043376       30.8126333412  CLST         444          1.0000000000
      1333       445  TIP3  OH2          20.4250915599       26.6003114300        6.1798201457  CLST         445          1.0000000000
      1334       445  TIP3  H1           20.4083619271       27.5085736471        5.9392964423  CLST         445          1.0000000000
      1335       445  TIP3  H2           20.4823605937       26.6780277387        7.1446951042  CLST         445          1.0000000000
      1336       446  TIP3  OH2          28.9431442162        4.7043979639       26.5039590519  CLST         446          1.0000000000
      1337       446  TIP3  H1           28.9216962283        4.9466924234       25.5325946514  CLST         446          1.0000000000
      1338       446  TIP3  H2           29.8516410263        5.1030800371       26.6363959588  CLST         446          1.0000000000
      1339       447  TIP3  OH2          26.7958582715       19.2253688016       28.0578362040  CLST         447          1.0000000000
      1340       447  TIP3  H1           26.6767391185       18.3046507745       28.2923637049  CLST         447          1.0000000000
      1341       447  TIP3  H2           27.2468144118       19.5125246502       28.8841816491  CLST         447          1.0000000000
      1342       448  TIP3  OH2           7.2881884514        9.6992551449        4.8018790545  CLST         448          1.0000000000
      1343       448  TIP3  H1            7.5476123193        9.5935097225        5.7279517977  CLST         448          1.0000000000
      1344       448  TIP3  H2            6.5401133891       10.3587795837        4.9011320599  CLST         448          1.0000000000
      1345       449  TIP3  OH2           4.2326918323        5.1134101548        8.4172273266  CLST         449          1.0000000000
      1346       449  TIP3  H1            4.8253892196        4.5783500767        8.9124560724  CLST         449          1.0000000000
      1347       449  TIP3  H2            4.0269471141        4.6390605038        7.5617424534  CLST         449          1.0000000000
      1348       450  TIP3  OH2          27.7850137918        0.4422793022       29.9356405902  CLST         450          1.0000000000
      1349       450  TIP3  H1           27.8867562176        1.2680780644       29.4620683283  CLST         450          1.0000000000
      1350       450  TIP3  H2           28.6439276112        0.3387547566       30.3644778264  CLST         450          1.0000000000
      1351       451  TIP3  OH2          13.7795009652       30.0826953545       26.0015250121  CLST         451          1.0000000000
      1352       451  TIP3  H1           14.3351349650       29.4281839108       26.4688252052  CLST         451          1.0000000000
      1353       451  TIP3  H2           14.4126130696       30.7882561580       25.9284744311  CLST         451          1.0000000000
      1354       452  TIP3  OH2           8.3744605733        4.9865193936        8.0162155583  CLST         452          1.0000000000
      1355       452  TIP3  H1            7.6555086340        5.6482535147        8.0360157057  CLST         452          1.0000000000
      1356       452  TIP3  H2            9.0952310112        5.4986610721        7.5510541636  CLST         452          1.0000000000
      1357       453  TIP3  OH2           6.9272015279        2.8388956403       25.8578351386  CLST         453          1.0000000000
      1358       453  TIP3  H1            6.2748846533        2.5271133757       26.5020638381  CLST         453          1.0000000000
      1359       453  TIP3  H2            6.4935035029        2.6826336325       25.0388363833  CLST         453          1.0000000000
      1360       454  TIP3  OH2           1.1339014153        5.4367459098        1.8822136201  CLST         454          1.0000000000
      1361       454  TIP3  H1            0.2032729629        5.1939452510        1.6577957612  CLST         454          1.0000000000
      1362       454  TIP3  H2            0.9676275799        6.0578201093        2.6313828495  CLST         454          1.0000000000
      1363       455  TIP3  OH2          30.7170315618        0.8192074158       21.4935013728  CLST         455          1.0000000000
      1364       455  TIP3  H1           29.9604751964        1.1800258155       21.9624445108  CLST         455          1.0000000000
      1365       455  TIP3  H2           31.2646201177        1.5830721522       21.5932230387  CLST         455          1.0000000000
      1366       456  TIP3  OH2           5.2558716355       11.3736175175        5.1794800672  CLST         456          1.0000000000
      1367       456  TIP3  H1            4.6036489607       11.4902141630        4.4478379985  CLST         456          1.0000000000
      1368       456  TIP3  H2            4.6633163941       11.2803874616        6.0148783576  CLST         456          1.0000000000
      1369       457  TIP3  OH2          26.9686532086       24.2063645253        4.8343185675  CLST         457          1.0000000000
      1370       457  TIP3  H1           26.3061932512       23.8169114294        5.3919289300  CLST         457          1.0000000000
      1371       457  TIP3  H2           26.4937295738       24.7323411307        4.1057491588  CLST         457          1.0000000000
      1372       458  TIP3  OH2           7.9380621706       25.4770199698       20.5482715168  CLST         458          1.0000000000
      1373       458  TIP3  H1            8.8666845644       25.5261627469       20.2489743415  CLST         458          1.0000000000
      1374       458  TIP3  H2            7.8303613787       26.3337614164       21.0412161723  CLST         458          1.0000000000
      1375       459  TIP3  OH2           6.5523630427       21.9713286908       24.0420731817  CLST         459          1.0000000000
      1376       459  TIP3  H1            6.0942593176       22.7587280125       24.4283314886  CLST         459          1.0000000000
      1377       459  TIP3  H2            7.2552486788       22.4158355391       23.4647351925  CLST         459          1.0000000000
      1378       460  TIP3  OH2           9.2969483900       29.7700322172       29.0288302664  CLST         460          1.0000000000
      1379       460  TIP3  H1            9.8896118681       29.1952879180       29.6157338880  CLST         460          1.0000000000
      1380       460  TIP3  H2            9.8959067124       30.3330086775       28.5250126153  CLST         460          1.0000000000
      1381       461  TIP3  OH2          30.6317457712       19.0367287209       26.4644356652  CLST         461          1.0000000000
      1382       461  TIP3  H1           31.4419051459       19.0666112575       25.9554659269  CLST         461          1.0000000000
      1383       461  TIP3  H2           30.9085427328       18.6723190267       27.3250943624  CLST         461          1.0000000000
      1384       462  TIP3  OH2          -0.0066163925        5.5073020466       19.2231821674  CLST         462          1.0000000000
      1385       462  TIP3  H1            0.3878082256        6.3873264373       19.2420771577  CLST         462          1.0000000000
      1386       462  TIP3  H2            0.7307344762        5.0006117596       18.8242981851  CLST         462          1.0000000000
      1387       463  TIP3  OH2          30.1024097030        1.7842228771       24.0497491289  CLST         463          1.0000000000
      1388       463  TIP3  H1           30.3203613407        0.8832923652       24.2712567633  CLST         463          1.0000000000
      1389       463  TIP3  H2           29.1944574667        1.8670791668       24.3753192446  CLST         463          1.0000000000
      1390       464  TIP3  OH2          25.3250829573        6.1933402394        4.2818769420  CLST         464          1.0000000000
      1391       464  TIP3  H1           25.6426559839        5.5686738011        4.8759218073  CLST         464          1.0000000000
      1392       464  TIP3  H2           24.8258492455        6.7841877174        4.8035343861  CLST         464          1.0000000000
      1393       465  TIP3  OH2          27.2775017559       19.3446757846        6.3326693872  CLST         465          1.0000000000
      1394       465  TIP3  H1           28.0800851597       18.8291792311        6.3068777336  CLST         465          1.0000000000
      1395       465  TIP3  H2           27.5539380431       20.2533032903        6.3443933158  CLST         465          1.0000000000
      1396       466  TIP3  OH2          29.4023536960        9.1560390958       27.5762298810  CLST         466          1.0000000000
      1397       466  TIP3  H1           28.8086338522        9.3331618545       26.7906234980  CLST         466          1.0000000000
      1398       466  TIP3  H2           29.3169236340        9.9924590033       28.0947927619  CLST         466          1.0000000000
      1399       467  TIP3  OH2           8.2369225609        6.0047873137        4.6204749440  CLST         467          1.0000000000
      1400       467  TIP3  H1            8.6535114859        6.5570766465        5.3662142141  CLST         467          1.0000000000
      1401       467  TIP3  H2            8.0335294217        6.7084064412        4.0304518285  CLST         467          1.0000000000
      1402       468  TIP3  OH2          31.3693415369       19.4594438913       10.4465797262  CLST         468          1.0000000000
      1403       468  TIP3  H1           30.8701714159       19.9411693073       11.1276270471  CLST         468          1.0000000000
      1404       468  TIP3  H2           32.3218230528       19.6639481630       10.6073559046  CLST         468          1.0000000000
      1405       469  TIP3  OH2           5.4487363809        8.3913773433       14.2205303073  CLST         469          1.0000000000
      1406       469  TIP3  H1            6.3342368339        8.6169708877       13.9016133827  CLST         469          1.0000000000
      1407       469  TIP3  H2            5.0828488635        9.0669893347       13.7137144320  CLST         469          1.0000000000
      1408       470  TIP3  OH2          20.6717956538       12.7456756933        0.6044597808  CLST         470          1.0000000000
      1409       470  TIP3  H1           20.5187301812       13.0391452328       -0.3091267465  CLST         470          1.0000000000
      1410       470  TIP3  H2           20.4466128693       11.7727740753        0.6694851113  CLST         470          1.0000000000
      1411       471  TIP3  OH2          27.5386475487        9.6009322378       22.8886045189  CLST         471          1.0000000000
      1412       471  TIP3  H1           27.1454260955        8.7091023672       22.8929941014  CLST         471          1.0000000000
      1413       471  TIP3  H2           27.3222855847        9.8357872519       22.0108137060  CLST         471          1.0000000000
      1414       472  TIP3  OH2          20.0811996782        3.8410688093        2.9033640988  CLST         472          1.0000000000
      1415       472  TIP3  H1           19.7144542856        3.0548382838        3.3537994193  CLST         472          1.0000000000
      1416       472  TIP3  H2           19.9724363731        3.4560352947        2.0429058083  CLST         472          1.0000000000
      1417       473  TIP3  OH2           5.3386420402        0.8075425727       10.1564822164  CLST         473          1.0000000000
      1418       473  TIP3  H1            5.8555428150        1.6652506678       10.0329885963  CLST         473          1.0000000000
      1419       473  TIP3  H2            4.6544600469        1.0467617691       10.7668633994  CLST         473          1.0000000000
      1420       474  TIP3  OH2           1.3200868896        1.7280846753        1.3521850997  CLST         474          1.0000000000
      1421       474  TIP3  H1            0.4106370550        1.5104547788        1.5465809149  CLST         474          1.0000000000
      1422       474  TIP3  H2            1.6344530974        0.8943711129        1.1048711230  CLST         474          1.0000000000
      1423       475  TIP3  OH2           6.0862261890       23.2572431228       12.0380996478  CLST         475          1.0000000000
      1424       475  TIP3  H1            6.9318268991       23.6932672270       11.7471447640  CLST         475          1.0000000000
      1425       475  TIP3  H2            6.2019057044       22.4989079302       11.4637649000  CLST         475          1.0000000000
      1426       476  TIP3  OH2          20.2568417236       22.8259779184       31.7262918255  CLST         476          1.0000000000
      1427       476  TIP3  H1           19.7459158508       23.5559709765       31.3587158896  CLST         476          1.0000000000
      1428       476  TIP3  H2           21.0255554991       22.9247673066       31.1854344511  CLST         476          1.0000000000
      1429       477  TIP3  OH2          19.3140882130        3.6277226443       18.3378241193  CLST         477          1.0000000000
      1430       477  TIP3  H1           19.0686539325        2.7022889764       18.5672544218  CLST         477          1.0000000000
      1431       477  TIP3  H2           19.9399011600        3.4701248292       17.6473454678  CLST         477          1.0000000000
      1432       478  TIP3  OH2          27.8843203970        6.5209708126       21.1589202760  CLST         478          1.0000000000
      1433       478  TIP3  H1           27.2431481195        6.5555207020       20.4568432484  CLST         478          1.0000000000
      1434       478  TIP3  H2           28.5226258757        7.1896600859       20.8048913250  CLST         478          1.0000000000
      1435       479  TIP3  OH2           7.8694357978       30.4004971121       23.2941244425  CLST         479          1.0000000000
      1436       479  TIP3  H1            8.6235666955       30.6430006309       23.8597485872  CLST         479          1.0000000000
      1437       479  TIP3  H2            7.0856004099       30.7003536020       23.8291894574  CLST         479          1.0000000000
      1438       480  TIP3  OH2          25.7704991601        7.5754587989       31.8128742668  CLST         480          1.0000000000
      1439       480  TIP3  H1           26.6349973020        7.8766392646       31.4903964943  CLST         480          1.0000000000
      1440       480  TIP3  H2           25.9969618759        6.6355383044       31.9584965897  CLST         480          1.0000000000
      1441       481  TIP3  OH2          28.8952535623        2.3626220027       11.9715453160  CLST         481          1.0000000000
      1442       481  TIP3  H1           29.8155253318        2.1994410037       11.7832069104  CLST         481          1.0000000000
      1443       481  TIP3  H2           28.6595137398        1.5161005753       12.3380292111  CLST         481          1.0000000000
      1444       482  TIP3  OH2          23.9364199667       11.5059137210       24.3309738890  CLST         482          1.0000000000
      1445       482  TIP3  H1           23.2069090474       11.5083930400       23.7213285254  CLST         482          1.0000000000
      1446       482  TIP3  H2           24.6707482954       11.8160703719       23.7390519164  CLST         482          1.0000000000
      1447       483  TIP3  OH2           6.2729385085       26.0526973612       12.6038143391  CLST         483          1.0000000000
      1448       483  TIP3  H1            5.8988769976       25.1968362940       12.9234601509  CLST         483          1.0000000000
      1449       483  TIP3  H2            6.0598675913       26.1509329427       11.6705364882  CLST         483          1.0000000000
      1450       484  TIP3  OH2           6.7720872852       28.8962319726        3.0161475135  CLST         484          1.0000000000
      1451       484  TIP3  H1            5.8800815703       28.5644457411        3.0738336887  CLST         484          1.0000000000
      1452       484  TIP3  H2            6.7015332021       29.6797279966        3.5814264634  CLST         484          1.0000000000
      1453       485  TIP3  OH2          20.1478791002        4.4193329009       10.0509389750  CLST         485          1.0000000000
      1454       485  TIP3  H1           20.5534581431        3.5921759550        9.8248709685  CLST         485          1.0000000000
      1455       485  TIP3  H2           19.3070343941        4.3226478719        9.5518439291  CLST         485          1.0000000000
      1456       486  TIP3  OH2           8.4376494222       24.6133362823       13.7117091054  CLST         486          1.0000000000
      1457       486  TIP3  H1            8.7733895358       24.9508861706       14.4958095717  CLST         486          1.0000000000
      1458       486  TIP3  H2            7.9222882159       25.4072142592       13.4420106453  CLST         486          1.0000000000
      1459       487  TIP3  OH2          12.2860409846       23.4287284326        6.0821620469  CLST         487          1.0000000000
      1460       487  TIP3  H1           11.3540235955       23.4381235836        5.8456820251  CLST         487          1.0000000000
      1461       487  TIP3  H2           12.2514020111       23.3443825588        7.0437712904  CLST         487          1.0000000000
      1462       488  TIP3  OH2          15.7736389025        8.3882234098        7.7322967818  CLST         488          1.0000000000
      1463       488  TIP3  H1           16.4072125318        7.7490035464        7.3059285816  CLST         488          1.0000000000
      1464       488  TIP3  H2           15.2147000918        7.8038629553        8.2808085636  CLST         488          1.0000000000
      1465       489  TIP3  OH2          25.6412434785       21.1394892193       11.7020046720  CLST         489          1.0000000000
      1466       489  TIP3  H1           25.5544892306       21.9762118375       11.3478281762  CLST         489          1.0000000000
      1467       489  TIP3  H2           24.8652799127       20.6760041016       11.2780321041  CLST         489          1.0000000000
      1468       490  TIP3  OH2           6.8313447108       18.8571741915        2.3386769631  CLST         490          1.0000000000
      1469       490  TIP3  H1            6.4639875551       19.6889557912        2.6973779638  CLST         490          1.0000000000
      1470       490  TIP3  H2            7.2125273052       18.3164724322        3.1219485498  CLST         490          1.0000000000
      1471       491  TIP3  OH2           3.1024905678       22.6352618321        5.0217885352  CLST         491          1.0000000000
      1472       491  TIP3  H1            2.2408515811       22.6793667166        5.4854249685  CLST         491          1.0000000000
      1473       491  TIP3  H2            2.6843493723       22.3942983861        4.1804317780  CLST         491          1.0000000000
      1474       492  TIP3  OH2          31.2633398919       25.3241417179       12.2422722814  CLST         492          1.0000000000
      1475       492  TIP3  H1           31.4626062349       24.3997855132       12.2635348291  CLST         492          1.0000000000
      1476       492  TIP3  H2           30.3007541921       25.3505822273       12.3948761628  CLST         492          1.0000000000
      1477       493  TIP3  OH2           3.3973953516       10.6308740057        7.0979786327  CLST         493          1.0000000000
      1478       493  TIP3  H1            4.1167552154       10.5646437881        7.7549808657  CLST         493          1.0000000000
      1479       493  TIP3  H2            2.6627542815       10.3811819367        7.6963898498  CLST         493          1.0000000000
      1480       494  TIP3  OH2          22.6130532385        5.4735892281       31.0676085744  CLST         494          1.0000000000
      1481       494  TIP3  H1           22.2457964520        5.9007131165       30.2736849674  CLST         494          1.0000000000
      1482       494  TIP3  H2           22.2901397576        5.9141908653       31.8821350771  CLST         494          1.0000000000
      1483       495  TIP3  OH2           5.0898881069       25.0787851881       29.8761096873  CLST         495          1.0000000000
      1484       495  TIP3  H1            5.7879070629       25.5637048953       29.3668047740  CLST         495          1.0000000000
      1485       495  TIP3  H2            5.7008136681       24.4111866226       30.3988981445  CLST         495          1.0000000000
      1486       496  TIP3  OH2          18.9809459739       21.1773677324        7.5537784137  CLST         496          1.0000000000
      1487       496  TIP3  H1           18.3554625176       20.4795898390        7.7300497098  CLST         496          1.0000000000
      1488       496  TIP3  H2           19.3275099271       20.6737538271        6.7647033804  CLST         496          1.0000000000
      1489       497  TIP3  OH2          22.2052567638       18.3932503704       24.5720088976  CLST         497          1.0000000000
      1490       497  TIP3  H1           21.6642693818       17.5621744724       24.4532451288  CLST         497          1.0000000000
      1491       497  TIP3  H2           21.9123869137       19.1171873416       23.9690287508  CLST         497          1.0000000000
      1492       498  TIP3  OH2          26.2103683121        0.5121702868       20.6229402713  CLST         498          1.0000000000
      1493       498  TIP3  H1           26.0209090129        0.7182284863       19.6913986703  CLST         498          1.0000000000
      1494       498  TIP3  H2           26.4015996064        1.3795469340       21.0747757556  CLST         498          1.0000000000
      1495       499  TIP3  OH2          11.6035123161        6.6259331993        3.6655905778  CLST         499          1.0000000000
      1496       499  TIP3  H1           11.8926951382        7.0859791261        2.8576429978  CLST         499          1.0000000000
      1497       499  TIP3  H2           11.3337362456        7.3407821526        4.2730964649  CLST         499          1.0000000000
      1498       500  TIP3  OH2           2.3330232892       23.1024761844       18.5663405442  CLST         500          1.0000000000
      1499       500  TIP3  H1            1.6190675856       22.5234013408       18.2661765665  CLST         500          1.0000000000
      1500       500  TIP3  H2            2.9071892073       22.4887530815       19.0758368948  CLST         500          1.0000000000
      1501       501  TIP3  OH2           1.3256201552       20.8091075117       14.0273305588  CLST         501          1.0000000000
      1502       501  TIP3  H1            1.2529913570       19.8447601562       14.0868016407  CLST         501          1.0000000000
      1503       501  TIP3  H2            2.2519316412       21.0239735961       14.0097577832  CLST         501          1.0000000000
      1504       502  TIP3  OH2           6.2259192893        3.7738186916        9.7439871326  CLST         502          1.0000000000
      1505       502  TIP3  H1            6.6391650958        4.1367356341       10.5338392868  CLST         502          1.0000000000
      1506       502  TIP3  H2            6.9555512727        3.2447171563        9.3661128391  CLST         502          1.0000000000
      1507       503  TIP3  OH2          10.3689135406       31.1222265396        0.2397259566  CLST         503          1.0000000000
      1508       503  TIP3  H1           11.0819113996       31.3890210902        0.8317741068  CLST         503          1.0000000000
      1509       503  TIP3  H2           10.0109180104       31.9448441351       -0.1539809323  CLST         503          1.0000000000
      1510       504  TIP3  OH2           8.2976135518       18.0103487739       10.8282503513  CLST         504          1.0000000000
      1511       504  TIP3  H1            8.7282316432       18.2320040089        9.9443386087  CLST         504          1.0000000000
      1512       504  TIP3  H2            7.9235267440       17.1783833638       10.4970675378  CLST         504          1.0000000000
      1513       505  TIP3  OH2           3.5111868861       21.0672339314       26.3133425412  CLST         505          1.0000000000
      1514       505  TIP3  H1            3.5024138086       21.6287783515       25.5557641461  CLST         505          1.0000000000
      1515       505  TIP3  H2            2.6893162269       21.2983351601       26.7413358847  CLST         505          1.0000000000
      1516       506  TIP3  OH2          22.6844928366       28.4576074832       23.7782156592  CLST         506          1.0000000000
      1517       506  TIP3  H1           22.9491239030       29.4147564572       23.7897604333  CLST         506          1.0000000000
      1518       506  TIP3  H2           22.0822403705       28.4720222087       23.0678453240  CLST         506          1.0000000000
      1519       507  TIP3  OH2          11.1832164955        9.8167014834       19.0136892779  CLST         507          1.0000000000
      1520       507  TIP3  H1           11.6502391619        9.6791421988       18.2265727799  CLST         507          1.0000000000
      1521       507  TIP3  H2           11.0550290580        8.8772292243       19.2853077355  CLST         507          1.0000000000
      1522       508  TIP3  OH2           9.1883300788       12.2405563155        8.7510472918  CLST         508          1.0000000000
      1523       508  TIP3  H1            9.0749017627       12.0332730680        7.7713383043  CLST         508          1.0000000000
      1524       508  TIP3  H2           10.0517996609       12.6671569723        8.7482921962  CLST         508          1.0000000000
      1525       509  TIP3  OH2          30.9714730600       30.3476773164       20.5128129375  CLST         509          1.0000000000
      1526       509  TIP3  H1           30.0179290283       30.1238746741       20.3113543319  CLST         509          1.0000000000
      1527       509  TIP3  H2           30.8515571726       31.1603530383       20.9557360527  CLST         509          1.0000000000
      1528       510  TIP3  OH2           8.1152785573        2.2391352905       11.5133085309  CLST         510          1.0000000000
      1529       510  TIP3  H1            8.0699621817        1.2821105089       11.6096137437  CLST         510          1.0000000000
      1530       510  TIP3  H2            9.0204415113        2.2807139607       11.1081866463  CLST         510          1.0000000000
      1531       511  TIP3  OH2          23.1208864215       25.9718326434       31.1524926119  CLST         511          1.0000000000
      1532       511  TIP3  H1           22.2443460002       25.7760939934       30.7346070505  CLST         511          1.0000000000
      1533       511  TIP3  H2           23.3593550275       26.7676447440       30.7551177892  CLST         511          1.0000000000
      1534       512  TIP3  OH2          10.1348159593        7.0051624730        6.8857576692  CLST         512          1.0000000000
      1535       512  TIP3  H1           10.0786767493        7.5681562234        7.6532829186  CLST         512          1.0000000000
      1536       512  TIP3  H2           10.4094133637        7.6789457790        6.2103238691  CLST         512          1.0000000000
      1537       513  TIP3  OH2          20.1107486992       10.4665517677        9.3699757035  CLST         513          1.0000000000
      1538       513  TIP3  H1           20.4780112531       11.2713845094        9.6995394810  CLST         513          1.0000000000
      1539       513  TIP3  H2           20.0249877208        9.9465851278       10.2503030691  CLST         513          1.0000000000
      1540       514  TIP3  OH2          27.0613707976        4.9173527082        0.3425511815  CLST         514          1.0000000000
      1541       514  TIP3  H1           27.8197658496        5.5084700796        0.6557995996  CLST         514          1.0000000000
      1542       514  TIP3  H2           27.2511390484        4.8824160680       -0.5873405406  CLST         514          1.0000000000
      1543       515  TIP3  OH2          31.1596855451        1.0335427097       27.6118871393  CLST         515          1.0000000000
      1544       515  TIP3  H1           30.3916691160        1.5530305962       27.3167924897  CLST         515          1.0000000000
      1545       515  TIP3  H2           31.8227723769        1.5584755047       27.1789230623  CLST         515          1.0000000000
      1546       516  TIP3  OH2          24.6562131170       23.3273006540        6.4351525604  CLST         516          1.0000000000
      1547       516  TIP3  H1           24.4588978919       23.1245031636        5.5439327222  CLST         516          1.0000000000
      1548       516  TIP3  H2           24.1297049292       24.1372701624        6.4901404576  CLST         516          1.0000000000
      1549       517  TIP3  OH2           0.6115410087       11.0611789075       11.4789540706  CLST         517          1.0000000000
      1550       517  TIP3  H1            0.4363819834       10.6872474951       10.6542923807  CLST         517          1.0000000000
      1551       517  TIP3  H2           -0.3015152182       11.4382470144       11.6178613343  CLST         517          1.0000000000
      1552       518  TIP3  OH2          20.2352323059       28.4279150568       20.3871010544  CLST         518          1.0000000000
      1553       518  TIP3  H1           19.6574244880       28.6574390331       19.6545794940  CLST         518          1.0000000000
      1554       518  TIP3  H2           21.0949944306       28.3533745572       19.9295877227  CLST         518          1.0000000000
      1555       519  TIP3  OH2           1.9727749832        3.3770294325        3.3094505895  CLST         519          1.0000000000
      1556       519  TIP3  H1            2.0277350162        4.2568510854        2.8709536148  CLST         519          1.0000000000
      1557       519  TIP3  H2            1.6750759021        2.7598738245        2.5924569268  CLST         519          1.0000000000
      1558       520  TIP3  OH2          21.5827165089        6.2145925677        8.1511917416  CLST         520          1.0000000000
      1559       520  TIP3  H1           21.4334717597        5.6093767661        7.4266957042  CLST         520          1.0000000000
      1560       520  TIP3  H2           20.9838605065        5.7774080463        8.8332625266  CLST         520          1.0000000000
      1561       521  TIP3  OH2           8.3472458247       22.9995210670       22.2762986775  CLST         521          1.0000000000
      1562       521  TIP3  H1            8.5819698800       22.3711215272       21.5772820735  CLST         521          1.0000000000
      1563       521  TIP3  H2            8.2393629495       23.8308750155       21.7496891128  CLST         521          1.0000000000
      1564       522  TIP3  OH2          26.2674568808       24.7292567407        8.1150073408  CLST         522          1.0000000000
      1565       522  TIP3  H1           25.6536960561       24.0388757581        7.8038209551  CLST         522          1.0000000000
      1566       522  TIP3  H2           27.0516676437       24.2513205947        8.1872404315  CLST         522          1.0000000000
      1567       523  TIP3  OH2          27.7584292195       12.1200021788       18.1009954018  CLST         523          1.0000000000
      1568       523  TIP3  H1           28.6379355258       11.8618363466       18.4648056979  CLST         523          1.0000000000
      1569       523  TIP3  H2           27.9555087673       12.8542598649       17.4888665469  CLST         523          1.0000000000
      1570       524  TIP3  OH2           6.9834997019        3.8406620709       29.9852426466  CLST         524          1.0000000000
      1571       524  TIP3  H1            7.0662740926        2.9670721002       29.6729031247  CLST         524          1.0000000000
      1572       524  TIP3  H2            6.0910680361        3.9908370705       29.8201909730  CLST         524          1.0000000000
      1573       525  TIP3  OH2           0.4443822616        6.9254048728       29.2990869918  CLST         525          1.0000000000
      1574       525  TIP3  H1            0.9679419868        6.6155474053       28.5933322098  CLST         525          1.0000000000
      1575       525  TIP3  H2            0.2575864511        6.0720610105       29.7546209065  CLST         525          1.0000000000
      1576       526  TIP3  OH2           7.0337851235       26.2791667994       28.2391559561  CLST         526          1.0000000000
      1577       526  TIP3  H1            7.1480466257       26.0171473688       27.2686200181  CLST         526          1.0000000000
      1578       526  TIP3  H2            7.9483886004       26.4154892561       28.5382573521  CLST         526          1.0000000000
      1579       527  TIP3  OH2           0.3513653625        7.2536742504        3.9229879344  CLST         527          1.0000000000
      1580       527  TIP3  H1            0.9735149253        6.9120167541        4.6109742869  CLST         527          1.0000000000
      1581       527  TIP3  H2            0.3229951186        8.2323517548        3.9723668900  CLST         527          1.0000000000
      1582       528  TIP3  OH2          28.9806052571        9.8531700925        8.8240607116  CLST         528          1.0000000000
      1583       528  TIP3  H1           28.4341219121        9.3695098910        9.5006375802  CLST         528          1.0000000000
      1584       528  TIP3  H2           28.2348902163       10.4199813100        8.4598382262  CLST         528          1.0000000000
      1585       529  TIP3  OH2          25.9312943792       12.2890026714       22.3835012818  CLST         529          1.0000000000
      1586       529  TIP3  H1           26.7716082492       12.1267150376       22.8590197372  CLST         529          1.0000000000
      1587       529  TIP3  H2           26.2041262331       12.3664028414       21.4775927464  CLST         529          1.0000000000
      1588       530  TIP3  OH2          27.4737614432       26.2439674884       18.7357223989  CLST         530          1.0000000000
      1589       530  TIP3  H1           27.5435567071       25.2205644848       18.7501798307  CLST         530          1.0000000000
      1590       530  TIP3  H2           28.3895458965       26.4731632666       18.4763141983  CLST         530          1.0000000000
      1591       531  TIP3  OH2          20.3340740294       31.5514562946       10.4714856429  CLST         531          1.0000000000
      1592       531  TIP3  H1           19.5062289132       31.7160473772       10.9566281333  CLST         531          1.0000000000
      1593       531  TIP3  H2           20.1219605328       30.9579415394        9.7699178537  CLST         531          1.0000000000
      1594       532  TIP3  OH2          19.7909545057       28.7445364386       23.1125587569  CLST         532          1.0000000000
      1595       532  TIP3  H1           18.8920214335       28.4572528562       23.4313300241  CLST         532          1.0000000000
      1596       532  TIP3  H2           19.7657791794       28.5363678960       22.1609991892  CLST         532          1.0000000000
      1597       533  TIP3  OH2          29.0206606504       24.5982023079        8.7226989371  CLST         533          1.0000000000
      1598       533  TIP3  H1           29.7440001597       23.9693868392        8.7059218009  CLST         533          1.0000000000
      1599       533  TIP3  H2           29.5303645908       25.3984155712        8.3938422349  CLST         533          1.0000000000
      1600       534  TIP3  OH2           0.3652988895       18.7463938450       24.1645610934  CLST         534          1.0000000000
      1601       534  TIP3  H1            0.8131864046       18.5903123233       23.3169169958  CLST         534          1.0000000000
      1602       534  TIP3  H2            1.1716300450       18.6553322531       24.7538683852  CLST         534          1.0000000000
      1603       535  TIP3  OH2           2.6800332901        3.2142755070       24.3483341327  CLST         535          1.0000000000
      1604       535  TIP3  H1            3.2347629390        2.6936390062       24.9452096034  CLST         535          1.0000000000
      1605       535  TIP3  H2            1.7564086474        2.7957057753       24.4490412514  CLST         535          1.0000000000
      1606       536  TIP3  OH2           8.0159304027       19.1970004832       28.4274946239  CLST         536          1.0000000000
      1607       536  TIP3  H1            7.2121447039       19.2964615709       27.8762115115  CLST         536          1.0000000000
      1608       536  TIP3  H2            8.3332806467       18.2877123150       28.2526791959  CLST         536          1.0000000000
      1609       537  TIP3  OH2          11.6538070858       29.2438501674       24.3484370371  CLST         537          1.0000000000
      1610       537  TIP3  H1           11.3599306710       30.1094427240       24.6637679455  CLST         537          1.0000000000
      1611       537  TIP3  H2           12.6138696382       29.4768285216       24.3286086028  CLST         537          1.0000000000
      1612       538  TIP3  OH2          26.6169270019       20.9137390884        0.8268949620  CLST         538          1.0000000000
      1613       538  TIP3  H1           27.4788788664       20.7637769792        1.3379628755  CLST         538          1.0000000000
      1614       538  TIP3  H2           26.7739855989       21.8393312389        0.6896868190  CLST         538          1.0000000000
      1615       539  TIP3  OH2           2.5088541118       26.8096851742        0.8425639801  CLST         539          1.0000000000
      1616       539  TIP3  H1            1.6020069955       26.4641040293        1.0905222993  CLST         539          1.0000000000
      1617       539  TIP3  H2            2.3970145197       26.8775354323       -0.1263175987  CLST         539          1.0000000000
      1618       540  TIP3  OH2           3.9880544251       25.0992135362        4.8005268694  CLST         540          1.0000000000
      1619       540  TIP3  H1            3.7331910851       24.2497825169        5.2108232459  CLST         540          1.0000000000
      1620       540  TIP3  H2            4.2073485128       24.8140045520        3.9017316622  CLST         540          1.0000000000
      1621       541  TIP3  OH2          26.3477801081       10.4961890334        2.0610855243  CLST         541          1.0000000000
      1622       541  TIP3  H1           25.8486943525       10.4794832447        2.8996261839  CLST         541          1.0000000000
      1623       541  TIP3  H2           26.9982784891       11.1908306009        2.2082495277  CLST         541          1.0000000000
      1624       542  TIP3  OH2          20.8765002801       14.4493665545        5.5332229074  CLST         542          1.0000000000
      1625       542  TIP3  H1           21.6130433357       15.0583969304        5.2856198151  CLST         542          1.0000000000
      1626       542  TIP3  H2           20.8952930985       13.9054861483        4.7313346427  CLST         542          1.0000000000
      1627       543  TIP3  OH2          21.2189204596       11.4132274590       29.4333801631  CLST         543          1.0000000000
      1628       543  TIP3  H1           20.3344452210       11.2232851166       29.2118363207  CLST         543          1.0000000000
      1629       543  TIP3  H2           21.5421745689       11.5408444909       28.5413759625  CLST         543          1.0000000000
      1630       544  TIP3  OH2          31.4848230994        5.5352235009       26.3623603432  CLST         544          1.0000000000
      1631       544  TIP3  H1           31.4958626510        5.2451551991       25.4202212721  CLST         544          1.0000000000
      1632       544  TIP3  H2           32.2536978398        5.1749366231       26.8308082939  CLST         544          1.0000000000
      1633       545  TIP3  OH2          23.8787124888        2.3865009747       19.1098425154  CLST         545          1.0000000000
      1634       545  TIP3  H1           23.8373439357        2.1619970752       18.1284939599  CLST         545          1.0000000000
      1635       545  TIP3  H2           23.3194307305        3.1369090919       19.1340570846  CLST         545          1.0000000000
      1636       546  TIP3  OH2           3.8614132405       11.0901159367       29.6611504123  CLST         546          1.0000000000
      1637       546  TIP3  H1            3.3937134181       10.2599409795       29.4740442114  CLST         546          1.0000000000
      1638       546  TIP3  H2            4.2592205551       10.9626295574       30.5324913749  CLST         546          1.0000000000
      1639       547  TIP3  OH2          28.4287846121       29.6432252356       20.7871641595  CLST         547          1.0000000000
      1640       547  TIP3  H1           28.4599189670       29.4690227089       21.8258421345  CLST         547          1.0000000000
      1641       547  TIP3  H2           27.8930677740       30.4676161599       20.7134375687  CLST         547          1.0000000000
      1642       548  TIP3  OH2          10.5366583983        2.3332153470        1.3980969146  CLST         548          1.0000000000
      1643       548  TIP3  H1            9.5966033670        2.3008622828        1.3948029841  CLST         548          1.0000000000
      1644       548  TIP3  H2           10.5917914723        2.9379271245        2.2061964318  CLST         548          1.0000000000
