* COORD
*
        66  EXT
         1         1  TRIA  CAY          13.6394086950       11.7037773078       13.1183763512  PEPT           1          1.0000000000
         2         1  TRIA  HY1          13.8748338776       12.0478595485       12.0894028343  PEPT           1          1.0000000000
         3         1  TRIA  HY2          14.2241543313       10.7867364133       13.3425730352  PEPT           1          1.0000000000
         4         1  TRIA  HY3          13.9288082819       12.4981743873       13.8401779619  PEPT           1          1.0000000000
         5         1  TRIA  CY           12.1909676258       11.4252926969       13.2493392540  PEPT           1          1.0000000000
         6         1  TRIA  OY           11.5561862762       11.8856757488       14.1867971069  PEPT           1          1.0000000000
         7         1  TRIA  N1           11.7109881757       10.4852104388       12.4254544957  PEPT           1          1.0000000000
         8         1  TRIA  HN1          12.2936242803       10.1278613246       11.6971759055  PEPT           1          1.0000000000
         9         1  TRIA  CA1          10.3251552168       10.0995824505       12.2823263221  PEPT           1          1.0000000000
        10         1  TRIA  HA1          10.0743144770        9.4050748720       13.1130323722  PEPT           1          1.0000000000
        11         1  TRIA  CB1           9.3228358242       11.2789501416       12.2543240499  PEPT           1          1.0000000000
        12         1  TRIA  HB11          9.6276490279       12.0224008925       11.4886622700  PEPT           1          1.0000000000
        13         1  TRIA  HB21          9.3083701696       11.7913476558       13.2400513010  PEPT           1          1.0000000000
        14         1  TRIA  HB31          8.2902899228       10.9361772903       12.0387485982  PEPT           1          1.0000000000
        15         1  TRIA  C1           10.2399602186        9.3351981239       10.9737168927  PEPT           1          1.0000000000
        16         1  TRIA  O1           11.2528210950        9.1908265547       10.2961610631  PEPT           1          1.0000000000
        17         1  TRIA  N2            9.1730290418        8.5251241266       10.8115361997  PEPT           1          1.0000000000
        18         1  TRIA  HN2           8.4373186359        8.5581314822       11.4759822710  PEPT           1          1.0000000000
        19         1  TRIA  CA2           9.0508859587        7.5039391722        9.7821319058  PEPT           1          1.0000000000
        20         1  TRIA  HA2           8.0191306775        7.1005430631        9.8885284023  PEPT           1          1.0000000000
        21         1  TRIA  CB2          10.0113223032        6.3232998574       10.0667515243  PEPT           1          1.0000000000
        22         1  TRIA  HB12          9.8091489922        5.4735384436        9.3802221492  PEPT           1          1.0000000000
        23         1  TRIA  HB22         11.0680480100        6.6392162366        9.9324823328  PEPT           1          1.0000000000
        24         1  TRIA  HB32          9.8825292845        5.9706393841       11.1110296348  PEPT           1          1.0000000000
        25         1  TRIA  C2            9.1311046591        7.9515162136        8.3153401217  PEPT           1          1.0000000000
        26         1  TRIA  O2            8.8972359644        7.0690256835        7.4949602658  PEPT           1          1.0000000000
        27         1  TRIA  N3            8.4726400348        9.0894661352        8.0421198573  PEPT           1          1.0000000000
        28         1  TRIA  HN3           7.6650708303        8.7908466937        7.5455388846  PEPT           1          1.0000000000
        29         1  TRIA  CA3           9.0469904848       10.1578779368        7.2350694701  PEPT           1          1.0000000000
        30         1  TRIA  HA3           8.1878271996       10.7630024822        6.8702925905  PEPT           1          1.0000000000
        31         1  TRIA  CB3           9.7471121168        9.6282597110        5.9567564858  PEPT           1          1.0000000000
        32         1  TRIA  HB13          9.0602423143        8.9701269520        5.3846383766  PEPT           1          1.0000000000
        33         1  TRIA  HB23         10.0617175937       10.4680417002        5.3016477431  PEPT           1          1.0000000000
        34         1  TRIA  HB33         10.6513156390        9.0379597082        6.2205356319  PEPT           1          1.0000000000
        35         1  TRIA  C3            9.9721143710       11.1097459048        8.0039849409  PEPT           1          1.0000000000
        36         1  TRIA  O3           11.1767112442       11.1404813031        7.7796770706  PEPT           1          1.0000000000
        37         1  TRIA  NT            9.4411171451       12.1725788358        8.6390791632  PEPT           1          1.0000000000
        38         1  TRIA  HNT          10.1147930603       12.8279975272        8.9701670694  PEPT           1          1.0000000000
        39         1  TRIA  CAT           8.0478958476       12.3802699877        8.9687033152  PEPT           1          1.0000000000
        40         1  TRIA  HT1           7.6049952519       11.4679816000        9.4290641953  PEPT           1          1.0000000000
        41         1  TRIA  HT2           7.4621098332       12.6448963713        8.0599134578  PEPT           1          1.0000000000
        42         1  TRIA  HT3           7.9472260104       13.2153476406        9.6975271263  PEPT           1          1.0000000000
        43         1  TIP3  OH2          10.1070000000        6.4940000000        4.6690000000  SOLV           1          1.0000000000
        44         1  TIP3  H1           10.6680000000        6.9010000000        4.0090000000  SOLV           1          1.0000000000
        45         1  TIP3  H2           10.1270000000        7.1020000000        5.4080000000  SOLV           1          1.0000000000
        46         2  TIP3  OH2          14.2210000000        6.0750000000       10.2910000000  SOLV           2          1.0000000000
        47         2  TIP3  H1           13.8490000000        6.9420000000       10.1290000000  SOLV           2          1.0000000000
        48         2  TIP3  H2           14.5700000000        6.1250000000       11.1800000000  SOLV           2          1.0000000000
        49         3  TIP3  OH2          15.6300000000       -7.2700000000       10.8640000000  SOLV           3          1.0000000000
        50         3  TIP3  H1           16.3240000000       -6.8690000000       10.3410000000  SOLV           3          1.0000000000
        51         3  TIP3  H2           15.1650000000       -6.5300000000       11.2540000000  SOLV           3          1.0000000000
        52         4  TIP3  OH2           4.7850000000       -2.0970000000        4.1110000000  SOLV           4          1.0000000000
        53         4  TIP3  H1            4.0240000000       -1.8000000000        4.6100000000  SOLV           4          1.0000000000
        54         4  TIP3  H2            5.3220000000       -2.5660000000        4.7490000000  SOLV           4          1.0000000000
        55         5  TIP3  OH2           3.6240000000        7.0610000000       13.9260000000  SOLV           5          1.0000000000
        56         5  TIP3  H1            3.9110000000        6.1600000000       14.0650000000  SOLV           5          1.0000000000
        57         5  TIP3  H2            4.0700000000        7.3350000000       13.1250000000  SOLV           5          1.0000000000
        58         6  TIP3  OH2          10.8210000000       -6.3890000000        9.1200000000  SOLV           6          1.0000000000
        59         6  TIP3  H1           10.8230000000       -5.4480000000        8.9500000000  SOLV           6          1.0000000000
        60         6  TIP3  H2            9.9130000000       -6.6570000000        8.9800000000  SOLV           6          1.0000000000
        61         7  TIP3  OH2          12.3070000000       -9.3580000000        6.0640000000  SOLV           7          1.0000000000
        62         7  TIP3  H1           11.8180000000       -9.9630000000        5.5070000000  SOLV           7          1.0000000000
        63         7  TIP3  H2           12.0490000000       -8.4890000000        5.7600000000  SOLV           7          1.0000000000
        64         8  TIP3  OH2           3.7620000000        5.0030000000        9.8890000000  SOLV           8          1.0000000000
        65         8  TIP3  H1            4.6080000000        4.6830000000       10.2020000000  SOLV           8          1.0000000000
        66         8  TIP3  H2            3.6970000000        5.8920000000       10.2360000000  SOLV           8          1.0000000000
