* Geometry rescue: heat segment 1/2 at step 1000
*
        2709  EXT
         1         1  TIP3  OH2           5.5437244244        0.8252434843       -3.5667263137  CLST           1          1.0000000000
         2         1  TIP3  H1            5.1579208426        0.6083756045       -2.6818407013  CLST           1          1.0000000000
         3         1  TIP3  H2            4.6645149002        0.8431073027       -4.0508385444  CLST           1          1.0000000000
         4         2  TIP3  OH2          15.0075019195       -2.1734621488       -1.4626174549  CLST           2          1.0000000000
         5         2  TIP3  H1           14.0340571104       -2.0496196978       -1.5172550007  CLST           2          1.0000000000
         6         2  TIP3  H2           15.0609496781       -3.1176998948       -1.1891593276  CLST           2          1.0000000000
         7         3  TIP3  OH2          -8.4808475577       -6.5243833345       -7.6197861739  CLST           3          1.0000000000
         8         3  TIP3  H1           -9.4227128129       -6.2113062078       -7.5588538832  CLST           3          1.0000000000
         9         3  TIP3  H2           -8.3956392734       -6.7419868249       -8.5793484949  CLST           3          1.0000000000
        10         4  TIP3  OH2          -9.4470639650       -3.9709395297       13.0288298000  CLST           4          1.0000000000
        11         4  TIP3  H1          -10.2286865441       -4.5205188241       13.2823163688  CLST           4          1.0000000000
        12         4  TIP3  H2           -9.2711979136       -4.3524887183       12.1301448469  CLST           4          1.0000000000
        13         5  TIP3  OH2          -3.3108682525      -10.2868494287       14.3940818501  CLST           5          1.0000000000
        14         5  TIP3  H1           -3.7638858396      -11.0413809963       14.8863280491  CLST           5          1.0000000000
        15         5  TIP3  H2           -3.4685196745      -10.5807231732       13.4626125363  CLST           5          1.0000000000
        16         6  TIP3  OH2          -3.4736884925        9.6360763353       14.1485200332  CLST           6          1.0000000000
        17         6  TIP3  H1           -2.5421360444        9.8692421009       13.8982590834  CLST           6          1.0000000000
        18         6  TIP3  H2           -3.3694043626        9.5949220291       15.1037045819  CLST           6          1.0000000000
        19         7  TIP3  OH2          -5.2280449943       -1.3688870631        8.8735360573  CLST           7          1.0000000000
        20         7  TIP3  H1           -4.7262630169       -0.9990176338        8.1131067905  CLST           7          1.0000000000
        21         7  TIP3  H2           -5.5905752049       -2.1514303541        8.3767854453  CLST           7          1.0000000000
        22         8  TIP3  OH2          -7.2304769598       -4.5639460091       -1.1751117283  CLST           8          1.0000000000
        23         8  TIP3  H1           -7.4564477176       -5.0784668320       -0.3772129481  CLST           8          1.0000000000
        24         8  TIP3  H2           -6.3213777977       -4.8117755765       -1.4326447124  CLST           8          1.0000000000
        25         9  TIP3  OH2         -13.1931834471       -5.2995512254        0.2603954607  CLST           9          1.0000000000
        26         9  TIP3  H1          -14.1369085054       -5.1734929334       -0.0177699066  CLST           9          1.0000000000
        27         9  TIP3  H2          -12.9565322247       -4.3360306897        0.2188897021  CLST           9          1.0000000000
        28        10  TIP3  OH2          -4.3614586358        8.0661162230       -8.6712675086  CLST          10          1.0000000000
        29        10  TIP3  H1           -4.6781654108        8.9789071744       -8.7454216325  CLST          10          1.0000000000
        30        10  TIP3  H2           -3.4180131880        7.9308866929       -8.8491611632  CLST          10          1.0000000000
        31        11  TIP3  OH2           5.9348806698       12.6033356436       10.7339301460  CLST          11          1.0000000000
        32        11  TIP3  H1            5.2042303570       13.2232233625       10.9480507138  CLST          11          1.0000000000
        33        11  TIP3  H2            5.5029199761       11.7497152282       10.9618137740  CLST          11          1.0000000000
        34        12  TIP3  OH2         -11.7137917471      -13.2517879453       -3.3189141474  CLST          12          1.0000000000
        35        12  TIP3  H1          -12.4386859767      -12.7048580605       -2.9417172516  CLST          12          1.0000000000
        36        12  TIP3  H2          -12.0837324160      -13.5493968335       -4.1643361626  CLST          12          1.0000000000
        37        13  TIP3  OH2          -0.6114068804      -10.8847910976        3.0090670881  CLST          13          1.0000000000
        38        13  TIP3  H1            0.3213240000      -11.2186533632        2.9317668395  CLST          13          1.0000000000
        39        13  TIP3  H2           -0.4419410550      -10.2480794671        3.7360618298  CLST          13          1.0000000000
        40        14  TIP3  OH2          -1.7497474340        5.0983598464        8.0165929195  CLST          14          1.0000000000
        41        14  TIP3  H1           -1.8171638474        5.0436234754        8.9953024505  CLST          14          1.0000000000
        42        14  TIP3  H2           -0.7999648665        4.9371196762        7.8520032336  CLST          14          1.0000000000
        43        15  TIP3  OH2           1.1163409484       -1.3826599722       -4.7682904365  CLST          15          1.0000000000
        44        15  TIP3  H1            0.4105493335       -0.8972747286       -4.2521789537  CLST          15          1.0000000000
        45        15  TIP3  H2            1.2482086921       -2.1654946242       -4.1554487231  CLST          15          1.0000000000
        46        16  TIP3  OH2          -4.5425664929       -6.2383969985       13.5432343730  CLST          16          1.0000000000
        47        16  TIP3  H1           -3.8857439595       -6.9520922223       13.7346126450  CLST          16          1.0000000000
        48        16  TIP3  H2           -5.1018603451       -6.2929222386       14.3513148650  CLST          16          1.0000000000
        49        17  TIP3  OH2           8.5167138846       -0.6600446111        2.6591482618  CLST          17          1.0000000000
        50        17  TIP3  H1            7.7121335041       -1.2006945821        2.7979701182  CLST          17          1.0000000000
        51        17  TIP3  H2            9.1119900092       -1.3549835714        2.2747680652  CLST          17          1.0000000000
        52        18  TIP3  OH2           2.7607345291       -8.3845754487       -8.6934818727  CLST          18          1.0000000000
        53        18  TIP3  H1            3.0826753451       -7.5311620733       -8.2954166570  CLST          18          1.0000000000
        54        18  TIP3  H2            2.8452080374       -8.9482120900       -7.8838515917  CLST          18          1.0000000000
        55        19  TIP3  OH2           6.7943774885        7.6087067121       14.4068444860  CLST          19          1.0000000000
        56        19  TIP3  H1            7.3775219045        6.9820632993       14.9272253372  CLST          19          1.0000000000
        57        19  TIP3  H2            6.7832662148        8.3334574260       15.1037045819  CLST          19          1.0000000000
        58        20  TIP3  OH2           4.2168560153        9.4083295728        8.8593612621  CLST          20          1.0000000000
        59        20  TIP3  H1            3.3874350205        9.9623981920        8.7021112107  CLST          20          1.0000000000
        60        20  TIP3  H2            3.8535231316        8.6399300068        8.3401148815  CLST          20          1.0000000000
        61        21  TIP3  OH2           0.6446724536       -8.3502802953        1.0629169170  CLST          21          1.0000000000
        62        21  TIP3  H1            0.6729692777       -8.2086341156        2.0482378316  CLST          21          1.0000000000
        63        21  TIP3  H2           -0.3173915997       -8.6052909377        1.0427662753  CLST          21          1.0000000000
        64        22  TIP3  OH2          11.5089970087       -9.5736353686       10.3295848499  CLST          22          1.0000000000
        65        22  TIP3  H1           10.9354742689       -9.1501952081        9.6537704509  CLST          22          1.0000000000
        66        22  TIP3  H2           11.3908533881      -10.5012582111       10.0300774356  CLST          22          1.0000000000
        67        23  TIP3  OH2          12.2300019122      -14.5763440390      -10.7672205140  CLST          23          1.0000000000
        68        23  TIP3  H1           11.6619093723      -15.1037045819      -10.1789696794  CLST          23          1.0000000000
        69        23  TIP3  H2           12.9351584601      -14.4709533051      -10.0871944503  CLST          23          1.0000000000
        70        24  TIP3  OH2          12.9727264024       -7.5122872871       14.2935606414  CLST          24          1.0000000000
        71        24  TIP3  H1           12.3417734235       -7.5890805489       13.5214835493  CLST          24          1.0000000000
        72        24  TIP3  H2           12.3090541015       -7.6490492072       14.9984239442  CLST          24          1.0000000000
        73        25  TIP3  OH2           0.1995961614       -5.7195646774        5.6751152660  CLST          25          1.0000000000
        74        25  TIP3  H1           -0.4456601201       -5.4509544531        4.9712741065  CLST          25          1.0000000000
        75        25  TIP3  H2           -0.1499877181       -6.5551475104        6.0320053909  CLST          25          1.0000000000
        76        26  TIP3  OH2          -5.4150924403       -5.6543424745       -7.9214997489  CLST          26          1.0000000000
        77        26  TIP3  H1           -6.2242705438       -6.2031415253       -7.9899906322  CLST          26          1.0000000000
        78        26  TIP3  H2           -5.0044697692       -5.8572931039       -8.7871753114  CLST          26          1.0000000000
        79        27  TIP3  OH2           4.0013151785       12.3886119938       -0.8207442046  CLST          27          1.0000000000
        80        27  TIP3  H1            4.9185293733       12.2002018891       -0.4878650669  CLST          27          1.0000000000
        81        27  TIP3  H2            4.0337240658       13.3689026899       -0.9475086894  CLST          27          1.0000000000
        82        28  TIP3  OH2          -5.2189742140       -6.2482207105        6.5108550831  CLST          28          1.0000000000
        83        28  TIP3  H1           -4.2225962124       -6.3193565396        6.5222559588  CLST          28          1.0000000000
        84        28  TIP3  H2           -5.3288538961       -6.6296850893        5.5969576171  CLST          28          1.0000000000
        85        29  TIP3  OH2           4.1075281501      -10.0834100834       13.3279855896  CLST          29          1.0000000000
        86        29  TIP3  H1            4.9372224722       -9.6427158251       13.0353921173  CLST          29          1.0000000000
        87        29  TIP3  H2            3.4737307580       -9.3358015746       13.1794965727  CLST          29          1.0000000000
        88        30  TIP3  OH2          -0.8713053468       -3.4796379872       11.9000622567  CLST          30          1.0000000000
        89        30  TIP3  H1           -1.3028189522       -4.1472661205       12.4813950761  CLST          30          1.0000000000
        90        30  TIP3  H2           -0.5162760948       -2.8455875515       12.5713061483  CLST          30          1.0000000000
        91        31  TIP3  OH2          -5.5293727994      -10.1905864359       -9.8022402219  CLST          31          1.0000000000
        92        31  TIP3  H1           -6.4787226398      -10.0337387930       -9.5504154295  CLST          31          1.0000000000
        93        31  TIP3  H2           -5.1331307160       -9.4203579489       -9.3361536072  CLST          31          1.0000000000
        94        32  TIP3  OH2           4.3203945519        6.5579782843       15.1034519589  CLST          32          1.0000000000
        95        32  TIP3  H1            5.1510717743        6.8900241934       14.6880045367  CLST          32          1.0000000000
        96        32  TIP3  H2            3.6720369442        6.6289297731       14.3592400998  CLST          32          1.0000000000
        97        33  TIP3  OH2           1.9136198284       -5.4410347440       11.8379282258  CLST          33          1.0000000000
        98        33  TIP3  H1            1.8229424445       -4.7692161781       12.5495972316  CLST          33          1.0000000000
        99        33  TIP3  H2            1.9494178538       -4.8547854914       11.0454999469  CLST          33          1.0000000000
       100        34  TIP3  OH2         -12.4498384051       -6.5822290283        5.6455483102  CLST          34          1.0000000000
       101        34  TIP3  H1          -12.4066477937       -6.3117366798        4.6867127596  CLST          34          1.0000000000
       102        34  TIP3  H2          -13.4441735024       -6.6581090088        5.6895649974  CLST          34          1.0000000000
       103        35  TIP3  OH2         -12.5887493614        9.2987701242       14.1908186363  CLST          35          1.0000000000
       104        35  TIP3  H1          -13.2581062183        9.7777685795       13.6399298981  CLST          35          1.0000000000
       105        35  TIP3  H2          -12.8465748740        9.4019758803       15.1037045819  CLST          35          1.0000000000
       106        36  TIP3  OH2           6.5817244058       -8.6295839141      -11.7555540466  CLST          36          1.0000000000
       107        36  TIP3  H1            7.3077528034       -8.8458170849      -11.1163169023  CLST          36          1.0000000000
       108        36  TIP3  H2            6.8305742498       -9.2248307064      -12.4946141114  CLST          36          1.0000000000
       109        37  TIP3  OH2          10.5302694626      -11.9490298619        6.6155499902  CLST          37          1.0000000000
       110        37  TIP3  H1            9.6962763094      -11.7767888833        7.1221630644  CLST          37          1.0000000000
       111        37  TIP3  H2           11.0005598641      -12.4142097307        7.3585460748  CLST          37          1.0000000000
       112        38  TIP3  OH2           5.8566024454      -12.2216487105       -0.5495161949  CLST          38          1.0000000000
       113        38  TIP3  H1            6.6739440972      -12.6797960201       -0.2684299414  CLST          38          1.0000000000
       114        38  TIP3  H2            5.6802606686      -12.5050325630       -1.4764262558  CLST          38          1.0000000000
       115        39  TIP3  OH2          13.4362016225        6.4206897534       -6.8106644225  CLST          39          1.0000000000
       116        39  TIP3  H1           13.5133815936        5.5119183631       -7.2120589838  CLST          39          1.0000000000
       117        39  TIP3  H2           12.6208073099        6.2299417627       -6.2908280483  CLST          39          1.0000000000
       118        40  TIP3  OH2          -4.7856961071       14.3981591831       -5.8310783002  CLST          40          1.0000000000
       119        40  TIP3  H1           -5.5154526158       14.7091216602       -5.2728027673  CLST          40          1.0000000000
       120        40  TIP3  H2           -4.3321615324       13.8384688019       -5.1593902370  CLST          40          1.0000000000
       121        41  TIP3  OH2          11.1796127346        5.6387196052      -11.1865286173  CLST          41          1.0000000000
       122        41  TIP3  H1           11.0558121177        5.0912609391      -12.0068437228  CLST          41          1.0000000000
       123        41  TIP3  H2           10.5294289670        6.3567627925      -11.4224684731  CLST          41          1.0000000000
       124        42  TIP3  OH2          -1.1609144307       -6.9124328662       -2.2071869133  CLST          42          1.0000000000
       125        42  TIP3  H1           -1.4646455123       -6.0282420439       -2.5204464285  CLST          42          1.0000000000
       126        42  TIP3  H2           -1.2826437998       -7.4063471118       -3.0474941466  CLST          42          1.0000000000
       127        43  TIP3  OH2           9.8702316134      -11.0795386929       -1.8209901788  CLST          43          1.0000000000
       128        43  TIP3  H1            9.5948506598      -11.2698916610       -0.8846832487  CLST          43          1.0000000000
       129        43  TIP3  H2            9.5164379460      -11.9365710935       -2.1895128305  CLST          43          1.0000000000
       130        44  TIP3  OH2           0.3505152529       -3.0911092058        6.5556595476  CLST          44          1.0000000000
       131        44  TIP3  H1           -0.4304575417       -3.1004435288        7.1503626707  CLST          44          1.0000000000
       132        44  TIP3  H2            0.3394474488       -4.0420011954        6.3003924394  CLST          44          1.0000000000
       133        45  TIP3  OH2           4.8396175587       -6.2715014675        9.1718422871  CLST          45          1.0000000000
       134        45  TIP3  H1            4.7522047576       -5.3046364312        9.0041242736  CLST          45          1.0000000000
       135        45  TIP3  H2            4.9329396592       -6.2653186025       10.1598903652  CLST          45          1.0000000000
       136        46  TIP3  OH2           7.7404507806        4.8291251764       -8.1367108423  CLST          46          1.0000000000
       137        46  TIP3  H1            7.1863992999        5.3850046704       -7.5294909252  CLST          46          1.0000000000
       138        46  TIP3  H2            7.2607570695        5.0389136983       -8.9716476664  CLST          46          1.0000000000
       139        47  TIP3  OH2         -10.9648362909      -11.0823161086        3.2369184348  CLST          47          1.0000000000
       140        47  TIP3  H1          -11.2830817053      -10.4157645845        3.9132675115  CLST          47          1.0000000000
       141        47  TIP3  H2          -10.6857616695      -11.7317560271        3.9549877912  CLST          47          1.0000000000
       142        48  TIP3  OH2         -14.3644985591        9.2609822549        8.6105294303  CLST          48          1.0000000000
       143        48  TIP3  H1          -14.3548242326        9.6897008013        7.7250250551  CLST          48          1.0000000000
       144        48  TIP3  H2          -13.5719026113        9.7475344056        8.9241751173  CLST          48          1.0000000000
       145        49  TIP3  OH2           8.5760505881       -4.3492475889        4.1125135853  CLST          49          1.0000000000
       146        49  TIP3  H1            7.6287883466       -4.5265045679        3.9045627097  CLST          49          1.0000000000
       147        49  TIP3  H2            8.9463345091       -4.2598898459        3.2075687969  CLST          49          1.0000000000
       148        50  TIP3  OH2          11.2554167887        5.6971044072       -5.2367037701  CLST          50          1.0000000000
       149        50  TIP3  H1           11.4602529902        4.9345238168       -4.6281105761  CLST          50          1.0000000000
       150        50  TIP3  H2           10.2808589260        5.5159020348       -5.2017534227  CLST          50          1.0000000000
       151        51  TIP3  OH2          12.8497257951       -1.2388025294      -10.6670066679  CLST          51          1.0000000000
       152        51  TIP3  H1           13.1720108953       -1.9765228396      -11.2525926589  CLST          51          1.0000000000
       153        51  TIP3  H2           12.5669154421       -0.5912665497      -11.3732124906  CLST          51          1.0000000000
       154        52  TIP3  OH2          -1.6974355407       -1.5464845120       10.1731304163  CLST          52          1.0000000000
       155        52  TIP3  H1           -2.4524100587       -1.0664863407       10.5966819240  CLST          52          1.0000000000
       156        52  TIP3  H2           -1.4137672760       -2.1081759565       10.9257534069  CLST          52          1.0000000000
       157        53  TIP3  OH2         -11.0836433350       14.2820338579       -6.9074557387  CLST          53          1.0000000000
       158        53  TIP3  H1          -11.6551576182       15.0304647298       -6.5650036569  CLST          53          1.0000000000
       159        53  TIP3  H2          -10.2176724859       14.7641619940       -6.8993380045  CLST          53          1.0000000000
       160        54  TIP3  OH2         -13.8683276131       -5.2901873961       -8.2070456873  CLST          54          1.0000000000
       161        54  TIP3  H1          -12.8786384143       -5.2338966080       -8.1715837424  CLST          54          1.0000000000
       162        54  TIP3  H2          -14.0349234081       -4.8685781635       -9.0825155951  CLST          54          1.0000000000
       163        55  TIP3  OH2           0.2815231567        9.5017754761      -10.6339900737  CLST          55          1.0000000000
       164        55  TIP3  H1           -0.5655523307        9.8400879571      -11.0004209289  CLST          55          1.0000000000
       165        55  TIP3  H2            0.5903880034       10.2778791848      -10.1000167971  CLST          55          1.0000000000
       166        56  TIP3  OH2          -1.5877831946       -5.0784379596       14.0509123051  CLST          56          1.0000000000
       167        56  TIP3  H1           -2.2347438311       -4.5831953456       14.6026598861  CLST          56          1.0000000000
       168        56  TIP3  H2           -1.8616742326       -6.0141070930       14.1632644675  CLST          56          1.0000000000
       169        57  TIP3  OH2         -10.6309715829       11.5134904517       -1.7077115252  CLST          57          1.0000000000
       170        57  TIP3  H1          -11.1677242606       11.9181211859       -0.8623077695  CLST          57          1.0000000000
       171        57  TIP3  H2          -11.4238350896       11.4979452642       -2.2311264656  CLST          57          1.0000000000
       172        58  TIP3  OH2           9.7534600498        1.4463349046        0.3102262846  CLST          58          1.0000000000
       173        58  TIP3  H1            8.8243954385        1.0819819240        0.3694795467  CLST          58          1.0000000000
       174        58  TIP3  H2            9.5367777276        2.3620447556        0.6403511238  CLST          58          1.0000000000
       175        59  TIP3  OH2         -13.1755142793       13.0472681307        5.2911177549  CLST          59          1.0000000000
       176        59  TIP3  H1          -13.1724724558       13.3838607335        4.3844750237  CLST          59          1.0000000000
       177        59  TIP3  H2          -12.3104750491       12.5902864907        5.2247892330  CLST          59          1.0000000000
       178        60  TIP3  OH2          -3.9801651127        3.2268085681        7.0900123412  CLST          60          1.0000000000
       179        60  TIP3  H1           -3.4307775844        2.4401153053        7.3030258469  CLST          60          1.0000000000
       180        60  TIP3  H2           -3.3555734974        3.9299348325        7.3952389551  CLST          60          1.0000000000
       181        61  TIP3  OH2           0.5456130314       -2.0227158592        0.4225749293  CLST          61          1.0000000000
       182        61  TIP3  H1           -0.0257229857       -1.5163414857        1.0493015832  CLST          61          1.0000000000
       183        61  TIP3  H2            0.1365437161       -2.9203223410        0.5067847275  CLST          61          1.0000000000
       184        62  TIP3  OH2          -3.8488517184        8.9241186790        4.3966801731  CLST          62          1.0000000000
       185        62  TIP3  H1           -3.3342835906        8.2526046690        4.9087663649  CLST          62          1.0000000000
       186        62  TIP3  H2           -3.1323969698        9.4707149016        4.0200560449  CLST          62          1.0000000000
       187        63  TIP3  OH2          -0.2855164267        7.6720166604       -3.0255967858  CLST          63          1.0000000000
       188        63  TIP3  H1           -0.6275149136        8.3415089059       -3.6812983082  CLST          63          1.0000000000
       189        63  TIP3  H2           -0.9004737369        7.8743413443       -2.2715456346  CLST          63          1.0000000000
       190        64  TIP3  OH2         -13.6921431745        3.4701117625       -3.4170047460  CLST          64          1.0000000000
       191        64  TIP3  H1          -13.0207431366        4.1639746627       -3.2079858555  CLST          64          1.0000000000
       192        64  TIP3  H2          -14.4903595157        4.0740665559       -3.3897410086  CLST          64          1.0000000000
       193        65  TIP3  OH2          -9.4307380676      -12.1566030885      -11.7448280338  CLST          65          1.0000000000
       194        65  TIP3  H1           -9.5033283668      -12.4710113310      -10.8076350517  CLST          65          1.0000000000
       195        65  TIP3  H2          -10.3930068231      -11.9205103295      -11.8362405816  CLST          65          1.0000000000
       196        66  TIP3  OH2          13.0794006633       -7.9385018064        3.7550383134  CLST          66          1.0000000000
       197        66  TIP3  H1           13.2798255918       -8.7031022072        3.1532839939  CLST          66          1.0000000000
       198        66  TIP3  H2           12.8314134124       -8.4561615347        4.5654844853  CLST          66          1.0000000000
       199        67  TIP3  OH2           7.4358367842       -0.5475588023       -6.3920044482  CLST          67          1.0000000000
       200        67  TIP3  H1            7.9680208839       -1.1739177364       -5.8394458946  CLST          67          1.0000000000
       201        67  TIP3  H2            8.1580914865       -0.2237577092       -6.9675911107  CLST          67          1.0000000000
       202        68  TIP3  OH2          -7.0119721945        1.1761389103        0.8724822094  CLST          68          1.0000000000
       203        68  TIP3  H1           -7.5782008044        0.5442689057        1.3858950879  CLST          68          1.0000000000
       204        68  TIP3  H2           -6.8538305071        1.8703309060        1.5587606944  CLST          68          1.0000000000
       205        69  TIP3  OH2         -11.7551081329       -0.6433405267        7.1303433356  CLST          69          1.0000000000
       206        69  TIP3  H1          -10.8619253840       -0.9697169042        7.4286954979  CLST          69          1.0000000000
       207        69  TIP3  H2          -11.6639327795        0.3273932516        7.2908781480  CLST          69          1.0000000000
       208        70  TIP3  OH2          -1.7983549297        7.3649760363       -8.2737004594  CLST          70          1.0000000000
       209        70  TIP3  H1           -0.8515908619        7.1788747291       -8.4622115570  CLST          70          1.0000000000
       210        70  TIP3  H2           -1.5954495955        8.2231429442       -7.7923435958  CLST          70          1.0000000000
       211        71  TIP3  OH2         -13.3116918314       -1.7833740571       -5.6738811799  CLST          71          1.0000000000
       212        71  TIP3  H1          -12.9453003882       -1.6384060839       -4.7537138301  CLST          71          1.0000000000
       213        71  TIP3  H2          -13.4295513560       -0.8312348528       -5.8842214781  CLST          71          1.0000000000
       214        72  TIP3  OH2          10.9316243207       -2.6367457594        4.8855026026  CLST          72          1.0000000000
       215        72  TIP3  H1           10.5315183555       -2.6738285302        3.9767696948  CLST          72          1.0000000000
       216        72  TIP3  H2           11.4200436839       -1.7877871710        4.7453185625  CLST          72          1.0000000000
       217        73  TIP3  OH2          -3.5897140718      -13.4991474439       -6.7905211580  CLST          73          1.0000000000
       218        73  TIP3  H1           -3.8706817740      -13.2998244906       -7.7036872785  CLST          73          1.0000000000
       219        73  TIP3  H2           -3.9222731256      -14.3864290413       -6.5521422583  CLST          73          1.0000000000
       220        74  TIP3  OH2          -4.6882285235       12.3135854985       -1.4940475200  CLST          74          1.0000000000
       221        74  TIP3  H1           -5.2657265667       11.6373574863       -1.9497073162  CLST          74          1.0000000000
       222        74  TIP3  H2           -5.3696318678       13.0354156607       -1.4263956603  CLST          74          1.0000000000
       223        75  TIP3  OH2          -9.6603387942        4.8723550615        5.4517317599  CLST          75          1.0000000000
       224        75  TIP3  H1           -8.8791129291        5.3879490128        5.7318061614  CLST          75          1.0000000000
       225        75  TIP3  H2          -10.2543451887        5.1232812597        6.2112442338  CLST          75          1.0000000000
       226        76  TIP3  OH2           8.5171554414       13.4413275346       -9.1529752097  CLST          76          1.0000000000
       227        76  TIP3  H1            8.7156220977       13.6270460329      -10.1191027721  CLST          76          1.0000000000
       228        76  TIP3  H2            9.4810418360       13.1558205053       -9.0160331997  CLST          76          1.0000000000
       229        77  TIP3  OH2           0.3337809673       -5.1512627535       -5.3962809048  CLST          77          1.0000000000
       230        77  TIP3  H1            0.7198212678       -4.9198183369       -6.2665324157  CLST          77          1.0000000000
       231        77  TIP3  H2           -0.4853911836       -5.5727573478       -5.7692669868  CLST          77          1.0000000000
       232        78  TIP3  OH2          -5.4962248201       -8.1716059743        1.5035713612  CLST          78          1.0000000000
       233        78  TIP3  H1           -5.1117578632       -7.6990408173        0.7295052587  CLST          78          1.0000000000
       234        78  TIP3  H2           -6.0314816972       -8.8573360323        1.0342813851  CLST          78          1.0000000000
       235        79  TIP3  OH2           6.8529764914      -14.3233223063       10.2053045593  CLST          79          1.0000000000
       236        79  TIP3  H1            6.5376001167      -14.4505877864       11.1364214240  CLST          79          1.0000000000
       237        79  TIP3  H2            6.0767613414      -13.9019683377        9.7727935262  CLST          79          1.0000000000
       238        80  TIP3  OH2           6.5384953525       -0.2096574974      -13.0338761210  CLST          80          1.0000000000
       239        80  TIP3  H1            6.5797019779        0.2317050309      -13.9180926310  CLST          80          1.0000000000
       240        80  TIP3  H2            7.4898317844       -0.1483285075      -12.7852322602  CLST          80          1.0000000000
       241        81  TIP3  OH2          -7.3034080328        1.0150062454        5.8720345099  CLST          81          1.0000000000
       242        81  TIP3  H1           -8.2174752206        1.3987292018        5.7767639519  CLST          81          1.0000000000
       243        81  TIP3  H2           -6.8675831156        1.8969241871        5.6671050200  CLST          81          1.0000000000
       244        82  TIP3  OH2           2.2615019419       -1.8241380947       10.7863430896  CLST          82          1.0000000000
       245        82  TIP3  H1            2.6010310400       -0.9948784075       10.3691717977  CLST          82          1.0000000000
       246        82  TIP3  H2            3.1109501740       -2.3448703710       10.7363491128  CLST          82          1.0000000000
       247        83  TIP3  OH2          10.3671609670        8.3534174713       -5.0981485408  CLST          83          1.0000000000
       248        83  TIP3  H1           10.7506021769        7.5063385472       -5.4448834277  CLST          83          1.0000000000
       249        83  TIP3  H2           10.6731802677        8.1774708530       -4.1635231106  CLST          83          1.0000000000
       250        84  TIP3  OH2         -13.5339553585        7.9205185177       -1.2663590358  CLST          84          1.0000000000
       251        84  TIP3  H1          -14.2168645687        7.3004480942       -0.8576342109  CLST          84          1.0000000000
       252        84  TIP3  H2          -12.7772155441        7.3155831654       -1.0289473093  CLST          84          1.0000000000
       253        85  TIP3  OH2           2.3869098552       -1.5823639952        7.7600787610  CLST          85          1.0000000000
       254        85  TIP3  H1            1.8625889730       -2.1602807400        7.1386867747  CLST          85          1.0000000000
       255        85  TIP3  H2            3.0422638910       -2.2659413365        8.0625101243  CLST          85          1.0000000000
       256        86  TIP3  OH2           8.0261393502       -9.3714744415        9.7936513331  CLST          86          1.0000000000
       257        86  TIP3  H1            8.3186461796       -8.6087342933       10.3466271298  CLST          86          1.0000000000
       258        86  TIP3  H2            7.4464389298       -9.8425967921       10.4395357753  CLST          86          1.0000000000
       259        87  TIP3  OH2           0.4982270383       -1.2895109629       13.0084241673  CLST          87          1.0000000000
       260        87  TIP3  H1            1.1326026339       -1.3553568723       12.2268641681  CLST          87          1.0000000000
       261        87  TIP3  H2            0.3304884693       -0.3187556187       12.9801990075  CLST          87          1.0000000000
       262        88  TIP3  OH2          14.3985196909      -11.2270150126        8.2229256642  CLST          88          1.0000000000
       263        88  TIP3  H1           13.4750604720      -11.5054352634        8.4033432522  CLST          88          1.0000000000
       264        88  TIP3  H2           14.7533910442      -11.9247499425        8.7877375715  CLST          88          1.0000000000
       265        89  TIP3  OH2           6.7857541689       11.7627515763       -4.1186477402  CLST          89          1.0000000000
       266        89  TIP3  H1            5.9038672881       12.0564599079       -3.8335874029  CLST          89          1.0000000000
       267        89  TIP3  H2            6.8969860654       10.9619407074       -3.5441530745  CLST          89          1.0000000000
       268        90  TIP3  OH2          14.4467421550       -4.6963323526       -0.3212175489  CLST          90          1.0000000000
       269        90  TIP3  H1           14.0202229185       -5.1142955755       -1.1246169863  CLST          90          1.0000000000
       270        90  TIP3  H2           14.1472919676       -5.3626217381        0.3660690469  CLST          90          1.0000000000
       271        91  TIP3  OH2          11.4652977998       10.8323062347       -5.7126949989  CLST          91          1.0000000000
       272        91  TIP3  H1           11.1690989503        9.8978679794       -5.5125899904  CLST          91          1.0000000000
       273        91  TIP3  H2           10.6432159888       11.2889098314       -5.4524837046  CLST          91          1.0000000000
       274        92  TIP3  OH2          -6.1703500614        3.6017995102        8.7722258915  CLST          92          1.0000000000
       275        92  TIP3  H1           -5.5652655601        3.4007373032        8.0213872994  CLST          92          1.0000000000
       276        92  TIP3  H2           -6.3835229629        2.6686148950        9.0421103859  CLST          92          1.0000000000
       277        93  TIP3  OH2           5.1683518723       -6.4785568844       11.9756101366  CLST          93          1.0000000000
       278        93  TIP3  H1            5.1209398149       -5.7042776355       12.5890414564  CLST          93          1.0000000000
       279        93  TIP3  H2            5.8188761629       -7.1068289179       12.3137761674  CLST          93          1.0000000000
       280        94  TIP3  OH2          -6.0545419322       12.1462833292        4.4849895383  CLST          94          1.0000000000
       281        94  TIP3  H1           -6.1110507745       11.9471952507        3.5108729124  CLST          94          1.0000000000
       282        94  TIP3  H2           -6.3291869495       11.2235225514        4.7491237916  CLST          94          1.0000000000
       283        95  TIP3  OH2           6.5027046910       11.2217280438       -0.3565581613  CLST          95          1.0000000000
       284        95  TIP3  H1            6.8500217198       10.6665046143       -1.0986380011  CLST          95          1.0000000000
       285        95  TIP3  H2            6.1803272246       10.4930087704        0.2279227782  CLST          95          1.0000000000
       286        96  TIP3  OH2          14.6052552201       -0.6189698725       12.0645113124  CLST          96          1.0000000000
       287        96  TIP3  H1           15.1037045819       -1.4527288720       12.2098799425  CLST          96          1.0000000000
       288        96  TIP3  H2           13.8167986271       -0.9636913994       11.5967801504  CLST          96          1.0000000000
       289        97  TIP3  OH2          -8.5996892586        9.4880194043       12.9125778106  CLST          97          1.0000000000
       290        97  TIP3  H1           -8.5289080044        9.0668720293       12.0259485970  CLST          97          1.0000000000
       291        97  TIP3  H2           -7.6293901641        9.3356104613       13.1514404370  CLST          97          1.0000000000
       292        98  TIP3  OH2           1.5565343674        4.2791398003       14.0105769712  CLST          98          1.0000000000
       293        98  TIP3  H1            2.0815091717        4.7022954504       13.2974903075  CLST          98          1.0000000000
       294        98  TIP3  H2            2.1010215902        3.4798424722       14.2136249147  CLST          98          1.0000000000
       295        99  TIP3  OH2         -12.5384857375       12.3210205433       -5.4548596561  CLST          99          1.0000000000
       296        99  TIP3  H1          -13.0567028144       12.2619251382       -6.3352841226  CLST          99          1.0000000000
       297        99  TIP3  H2          -11.8372106566       12.9041417206       -5.9035278056  CLST          99          1.0000000000
       298       100  TIP3  OH2           9.2561136110       -3.7951418896       -6.7586006474  CLST         100          1.0000000000
       299       100  TIP3  H1            8.4403757478       -3.9330062078       -6.1973265966  CLST         100          1.0000000000
       300       100  TIP3  H2            9.1817689307       -4.7614678607       -6.7330443242  CLST         100          1.0000000000
       301       101  TIP3  OH2          11.4849533064        2.1573162112      -10.2613320620  CLST         101          1.0000000000
       302       101  TIP3  H1           10.9894723078        2.8218044691       -9.7961247157  CLST         101          1.0000000000
       303       101  TIP3  H2           11.7281628043        1.8359619665       -9.3876688808  CLST         101          1.0000000000
       304       102  TIP3  OH2          -6.9902409137        2.5147117856      -12.9560004455  CLST         102          1.0000000000
       305       102  TIP3  H1           -7.7271360861        2.0734658696      -13.3820125197  CLST         102          1.0000000000
       306       102  TIP3  H2           -7.5878853186        3.2191226914      -12.7756744732  CLST         102          1.0000000000
       307       103  TIP3  OH2          -4.3847308363      -14.0224450370      -11.3931516955  CLST         103          1.0000000000
       308       103  TIP3  H1           -4.5302029288      -14.9399826732      -11.7436948068  CLST         103          1.0000000000
       309       103  TIP3  H2           -5.3665148711      -14.0243475884      -11.6270925560  CLST         103          1.0000000000
       310       104  TIP3  OH2         -10.8642763549      -11.8013987590        7.6949140865  CLST         104          1.0000000000
       311       104  TIP3  H1           -9.9102394117      -11.2116905096        7.7300056256  CLST         104          1.0000000000
       312       104  TIP3  H2          -10.4925215724      -11.2157575645        8.6059351478  CLST         104          1.0000000000
       313       105  TIP3  OH2           4.5688798835       -0.3130414723       14.2705835873  CLST         105          1.0000000000
       314       105  TIP3  H1            4.1063854580       -1.1862464725       14.2614107242  CLST         105          1.0000000000
       315       105  TIP3  H2            4.9578413181       -0.7185145974       13.4866274817  CLST         105          1.0000000000
       316       106  TIP3  OH2          14.3998068384       -1.3050988034        4.8849533489  CLST         106          1.0000000000
       317       106  TIP3  H1           14.7105874998       -0.4321453089        5.1378773817  CLST         106          1.0000000000
       318       106  TIP3  H2           13.5283216431       -0.8362462364        4.9117221132  CLST         106          1.0000000000
       319       107  TIP3  OH2           1.7332928916      -12.4797909026       -7.1897624969  CLST         107          1.0000000000
       320       107  TIP3  H1            0.9037056023      -12.0843565458       -6.8408545856  CLST         107          1.0000000000
       321       107  TIP3  H2            1.8253543474      -12.6702833004       -6.2396226545  CLST         107          1.0000000000
       322       108  TIP3  OH2          -7.0898633768       -3.8542192005       14.4566909298  CLST         108          1.0000000000
       323       108  TIP3  H1           -7.0388054158       -4.6805559486       13.9426544247  CLST         108          1.0000000000
       324       108  TIP3  H2           -8.0393521168       -3.7782187974       14.1638757025  CLST         108          1.0000000000
       325       109  TIP3  OH2          -4.1624892878       -1.1061769675       11.4302610416  CLST         109          1.0000000000
       326       109  TIP3  H1           -4.3132700156       -2.0451092738       11.6852807041  CLST         109          1.0000000000
       327       109  TIP3  H2           -4.6117538489       -1.2298289062       10.5463938029  CLST         109          1.0000000000
       328       110  TIP3  OH2           1.2611245716       -3.7397823109       -3.2041906954  CLST         110          1.0000000000
       329       110  TIP3  H1            0.8773390112       -4.3294887820       -3.9166439646  CLST         110          1.0000000000
       330       110  TIP3  H2            0.4011412515       -3.7394142342       -2.7367146394  CLST         110          1.0000000000
       331       111  TIP3  OH2          -5.0129647571       -0.6927045874       -6.2181565226  CLST         111          1.0000000000
       332       111  TIP3  H1           -4.5336716625       -0.4433785056       -7.2339423086  CLST         111          1.0000000000
       333       111  TIP3  H2           -4.3993135864       -1.2856596041       -6.6387736107  CLST         111          1.0000000000
       334       112  TIP3  OH2           2.1112417561      -12.2696740050       -4.5597193297  CLST         112          1.0000000000
       335       112  TIP3  H1            1.9204358454      -12.5615302149       -3.6953828777  CLST         112          1.0000000000
       336       112  TIP3  H2            1.7328721959      -11.4651159437       -4.2192378402  CLST         112          1.0000000000
       337       113  TIP3  OH2          14.0829059760        5.7946395427       12.3574822544  CLST         113          1.0000000000
       338       113  TIP3  H1           14.0073868515        6.7180456940       12.0461843333  CLST         113          1.0000000000
       339       113  TIP3  H2           14.5075412520        5.7696239352       11.4934815045  CLST         113          1.0000000000
       340       114  TIP3  OH2          -5.0915412525      -11.3297582791       -4.7343022188  CLST         114          1.0000000000
       341       114  TIP3  H1           -4.8301608503      -10.4969922614       -5.1500748225  CLST         114          1.0000000000
       342       114  TIP3  H2           -4.4464303680      -11.7587600786       -5.3004477954  CLST         114          1.0000000000
       343       115  TIP3  OH2           4.8079565441      -13.9260550971       -9.0763585407  CLST         115          1.0000000000
       344       115  TIP3  H1            4.5179566310      -14.4089244973       -9.8873140683  CLST         115          1.0000000000
       345       115  TIP3  H2            4.1539254796      -13.4082126822       -9.8972544815  CLST         115          1.0000000000
       346       116  TIP3  OH2           8.4222265018        5.7577552597      -14.0340676447  CLST         116          1.0000000000
       347       116  TIP3  H1            9.2209019967        5.2142028982      -14.0255767836  CLST         116          1.0000000000
       348       116  TIP3  H2            7.9397015653        5.0277753315      -13.6543881147  CLST         116          1.0000000000
       349       117  TIP3  OH2          -0.1700602817        1.4495103643       13.1278425439  CLST         117          1.0000000000
       350       117  TIP3  H1           -0.6455130348        1.6959820340       13.9103491270  CLST         117          1.0000000000
       351       117  TIP3  H2            0.4032774555        2.2183616026       13.0795601068  CLST         117          1.0000000000
       352       118  TIP3  OH2          12.7212072737       -9.8673342090       -6.8019653413  CLST         118          1.0000000000
       353       118  TIP3  H1           12.0396575504       -9.4697728924       -6.1960822555  CLST         118          1.0000000000
       354       118  TIP3  H2           13.2370413618       -9.1872340117       -6.3265804380  CLST         118          1.0000000000
       355       119  TIP3  OH2         -12.0422415983       -1.3245441809        4.4408557217  CLST         119          1.0000000000
       356       119  TIP3  H1          -11.2092315936       -1.7406660982        4.5640843326  CLST         119          1.0000000000
       357       119  TIP3  H2          -12.0103317567       -1.0497157894        5.3928296302  CLST         119          1.0000000000
       358       120  TIP3  OH2         -11.6512780559        4.0734173910       -7.9335011349  CLST         120          1.0000000000
       359       120  TIP3  H1          -12.2518148215        4.5662697019       -8.5199434842  CLST         120          1.0000000000
       360       120  TIP3  H2          -12.5225850487        4.0368316170       -7.4473169480  CLST         120          1.0000000000
       361       121  TIP3  OH2          -5.9803659317       -7.1309609786        4.0243551987  CLST         121          1.0000000000
       362       121  TIP3  H1           -5.7175952444       -7.2701897360        3.0701500535  CLST         121          1.0000000000
       363       121  TIP3  H2           -6.8061856477       -6.7137012023        3.7634265522  CLST         121          1.0000000000
       364       122  TIP3  OH2           9.4027586085       -7.0912500632       -6.5677414239  CLST         122          1.0000000000
       365       122  TIP3  H1            9.1224088604       -8.0178817195       -6.7652947796  CLST         122          1.0000000000
       366       122  TIP3  H2            9.9137704066       -7.2719513667       -7.3642299943  CLST         122          1.0000000000
       367       123  TIP3  OH2          -6.8934128170      -10.3462775577        0.3906738102  CLST         123          1.0000000000
       368       123  TIP3  H1           -7.1978524345      -10.4975832837       -0.5038517308  CLST         123          1.0000000000
       369       123  TIP3  H2           -7.8273367725      -10.1635709296        0.5897695377  CLST         123          1.0000000000
       370       124  TIP3  OH2         -13.0277396839       -2.1645995889       -9.8700027459  CLST         124          1.0000000000
       371       124  TIP3  H1          -13.9630698682       -2.2742549508       -9.6658490531  CLST         124          1.0000000000
       372       124  TIP3  H2          -13.0666193287       -2.9651455472      -10.4241197538  CLST         124          1.0000000000
       373       125  TIP3  OH2           6.6771103258        2.7506360250       -5.3893628759  CLST         125          1.0000000000
       374       125  TIP3  H1            6.3297668144        1.9907731136       -4.8663238889  CLST         125          1.0000000000
       375       125  TIP3  H2            6.0544548702        2.5764313308       -6.1157418360  CLST         125          1.0000000000
       376       126  TIP3  OH2          12.3169050195       -9.9254699076        5.4863383235  CLST         126          1.0000000000
       377       126  TIP3  H1           12.7214166411      -10.7793466987        5.2548629769  CLST         126          1.0000000000
       378       126  TIP3  H2           11.5273069451      -10.4090448835        5.8499894455  CLST         126          1.0000000000
       379       127  TIP3  OH2         -10.3906262460       -5.7899336142       -5.1171363608  CLST         127          1.0000000000
       380       127  TIP3  H1          -10.1764693132       -5.2969634355       -4.2887086859  CLST         127          1.0000000000
       381       127  TIP3  H2           -9.5536559993       -6.2384048597       -4.8988712140  CLST         127          1.0000000000
       382       128  TIP3  OH2          -6.2936132568       -3.3775980454        7.1831636770  CLST         128          1.0000000000
       383       128  TIP3  H1           -5.8917937817       -4.2496208657        7.1625753369  CLST         128          1.0000000000
       384       128  TIP3  H2           -6.2211775064       -3.1509729445        6.2718543750  CLST         128          1.0000000000
       385       129  TIP3  OH2         -11.8163809307      -14.1745475477      -10.6105992370  CLST         129          1.0000000000
       386       129  TIP3  H1          -11.0699387707      -14.1174490979       -9.9720264337  CLST         129          1.0000000000
       387       129  TIP3  H2          -12.2618829869      -14.6670425368       -9.9439128703  CLST         129          1.0000000000
       388       130  TIP3  OH2           8.9314831486       -0.9266333098       14.1414793230  CLST         130          1.0000000000
       389       130  TIP3  H1            8.5443978769       -1.5788311984       14.7090194236  CLST         130          1.0000000000
       390       130  TIP3  H2            8.0752239447       -0.4958045859       14.2557409432  CLST         130          1.0000000000
       391       131  TIP3  OH2          -9.8741900144      -11.3107301639       -1.2246361121  CLST         131          1.0000000000
       392       131  TIP3  H1           -9.4733338607      -12.1800609168       -1.1438498593  CLST         131          1.0000000000
       393       131  TIP3  H2          -10.2449131137      -11.5158107764       -0.3583688182  CLST         131          1.0000000000
       394       132  TIP3  OH2           9.3980434614       -2.5608329221        9.7197241461  CLST         132          1.0000000000
       395       132  TIP3  H1           10.1460054682       -2.2750633995        9.1588306266  CLST         132          1.0000000000
       396       132  TIP3  H2            9.4641175263       -1.6224674115        9.9781264138  CLST         132          1.0000000000
       397       133  TIP3  OH2          -9.6127185934       -7.7689568147        7.8344977827  CLST         133          1.0000000000
       398       133  TIP3  H1           -8.7275081038       -8.1979099068        7.9316708076  CLST         133          1.0000000000
       399       133  TIP3  H2           -9.1238479614       -7.4501335950        7.0274545678  CLST         133          1.0000000000
       400       134  TIP3  OH2          -9.0055649822      -12.3134060613       14.7625813742  CLST         134          1.0000000000
       401       134  TIP3  H1           -9.4802390087      -12.4578757401       13.7448600569  CLST         134          1.0000000000
       402       134  TIP3  H2           -9.1974281748      -11.5484826212       13.9249792091  CLST         134          1.0000000000
       403       135  TIP3  OH2          -9.1526458026       10.8406858632        3.4505761961  CLST         135          1.0000000000
       404       135  TIP3  H1           -9.1098344059       10.4335513451        2.5698864411  CLST         135          1.0000000000
       405       135  TIP3  H2           -8.2590074540       10.5411410865        3.5975050005  CLST         135          1.0000000000
       406       136  TIP3  OH2          -5.1416663584       13.3144100935      -11.3632425893  CLST         136          1.0000000000
       407       136  TIP3  H1           -5.1276203239       13.3201210835      -10.4071519385  CLST         136          1.0000000000
       408       136  TIP3  H2           -5.8849250635       13.9053399879      -11.2216983785  CLST         136          1.0000000000
       409       137  TIP3  OH2          -5.6732192175      -11.0782191736        7.7649618259  CLST         137          1.0000000000
       410       137  TIP3  H1           -5.1062660953      -11.1711579438        6.9564428506  CLST         137          1.0000000000
       411       137  TIP3  H2           -5.3347927449      -11.9744290057        7.8662791747  CLST         137          1.0000000000
       412       138  TIP3  OH2           9.8942976971        8.4724285546       11.0002733870  CLST         138          1.0000000000
       413       138  TIP3  H1            9.9552563274        7.8023547507       11.7038916733  CLST         138          1.0000000000
       414       138  TIP3  H2           10.5195620915        8.8603187176       11.6222771448  CLST         138          1.0000000000
       415       139  TIP3  OH2           2.2863549729        9.8116228157       12.3983928320  CLST         139          1.0000000000
       416       139  TIP3  H1            3.2772995212        9.8071010131       12.2496064040  CLST         139          1.0000000000
       417       139  TIP3  H2            2.5143410638        9.0088984093       12.9259668348  CLST         139          1.0000000000
       418       140  TIP3  OH2          -3.0889979172       -1.1585696599       -7.9326409370  CLST         140          1.0000000000
       419       140  TIP3  H1           -2.3055124225       -0.5743925991       -7.9576687653  CLST         140          1.0000000000
       420       140  TIP3  H2           -2.3617837798       -1.8183093197       -7.9147964539  CLST         140          1.0000000000
       421       141  TIP3  OH2         -12.8773808872        5.3501349666       12.5579716432  CLST         141          1.0000000000
       422       141  TIP3  H1          -12.2894195688        6.1508795851       12.3384216555  CLST         141          1.0000000000
       423       141  TIP3  H2          -12.5439081518        5.6987199012       13.4306541709  CLST         141          1.0000000000
       424       142  TIP3  OH2          15.0449508385       -6.6632418915        5.3728680617  CLST         142          1.0000000000
       425       142  TIP3  H1           14.3494855455       -6.9016635378        4.6948177217  CLST         142          1.0000000000
       426       142  TIP3  H2           14.8173381190       -7.4972613414        5.8665414751  CLST         142          1.0000000000
       427       143  TIP3  OH2           6.5285109230       -6.9195377264        1.8975175302  CLST         143          1.0000000000
       428       143  TIP3  H1            6.8696119846       -7.0053712632        0.9399774500  CLST         143          1.0000000000
       429       143  TIP3  H2            5.6977548808       -6.9508569004        1.3738510918  CLST         143          1.0000000000
       430       144  TIP3  OH2          -1.4588429325      -13.9673332805        7.8549566946  CLST         144          1.0000000000
       431       144  TIP3  H1           -1.2667668345      -14.2743216209        6.9699231049  CLST         144          1.0000000000
       432       144  TIP3  H2           -1.0143351784      -14.7464866831        8.1022239948  CLST         144          1.0000000000
       433       145  TIP3  OH2           2.0256985119        7.3967172022       13.6126471318  CLST         145          1.0000000000
       434       145  TIP3  H1            1.1044841099        7.4362694779       13.8948835068  CLST         145          1.0000000000
       435       145  TIP3  H2            1.7804938959        6.9611954734       12.7927574283  CLST         145          1.0000000000
       436       146  TIP3  OH2          -5.9959879199       10.4491893660       -8.4435732713  CLST         146          1.0000000000
       437       146  TIP3  H1           -5.5687758365       11.3323037740       -8.4748551520  CLST         146          1.0000000000
       438       146  TIP3  H2           -6.7384130892       10.9670755208       -8.0681842011  CLST         146          1.0000000000
       439       147  TIP3  OH2           1.0853487103        2.8733859804       -4.2987913031  CLST         147          1.0000000000
       440       147  TIP3  H1            0.2692370084        3.0412122816       -4.1143435731  CLST         147          1.0000000000
       441       147  TIP3  H2            0.3294321067        3.0636092696       -5.1023831004  CLST         147          1.0000000000
       442       148  TIP3  OH2           7.4489729282        6.6974882319       -3.3417388386  CLST         148          1.0000000000
       443       148  TIP3  H1            7.9926863225        5.8772852543       -3.3784389688  CLST         148          1.0000000000
       444       148  TIP3  H2            7.0234543705        6.1763364658       -2.6114295400  CLST         148          1.0000000000
       445       149  TIP3  OH2          -4.2718525015      -13.2346379224       11.0682412285  CLST         149          1.0000000000
       446       149  TIP3  H1           -4.3089453032      -12.2637924522       11.1509865571  CLST         149          1.0000000000
       447       149  TIP3  H2           -3.8244445848      -13.1494927562       11.9231818859  CLST         149          1.0000000000
       448       150  TIP3  OH2          10.8664772148        1.1907981639       -2.3244341283  CLST         150          1.0000000000
       449       150  TIP3  H1           10.5085710829        1.1871574411       -1.3540517999  CLST         150          1.0000000000
       450       150  TIP3  H2            9.9376512182        0.9516004075       -2.5468164280  CLST         150          1.0000000000
       451       151  TIP3  OH2           3.6340759222      -12.1674937593        4.0714984634  CLST         151          1.0000000000
       452       151  TIP3  H1            4.0908542281      -12.7845750586        3.4082224730  CLST         151          1.0000000000
       453       151  TIP3  H2            3.2335339274      -11.8182248301        3.2754408928  CLST         151          1.0000000000
       454       152  TIP3  OH2           0.5543382853        6.1361470772       -5.9128593374  CLST         152          1.0000000000
       455       152  TIP3  H1            0.7816509147        7.0456179695       -6.1864137141  CLST         152          1.0000000000
       456       152  TIP3  H2            1.3444435693        5.8838700187       -6.4000531257  CLST         152          1.0000000000
       457       153  TIP3  OH2          -1.3674342967       10.1242615950       -7.6090230331  CLST         153          1.0000000000
       458       153  TIP3  H1           -1.3931763444       10.7923112716       -6.8933532252  CLST         153          1.0000000000
       459       153  TIP3  H2           -0.7714799376       10.7324105916       -8.0369639648  CLST         153          1.0000000000
       460       154  TIP3  OH2         -11.9693521593       -7.7757307813       -0.5739212499  CLST         154          1.0000000000
       461       154  TIP3  H1          -12.4556918073       -6.9266232778       -0.2769556654  CLST         154          1.0000000000
       462       154  TIP3  H2          -11.2427461654       -7.1617065002       -0.7516997952  CLST         154          1.0000000000
       463       155  TIP3  OH2          10.2753005694       -5.0210162446       14.3314279928  CLST         155          1.0000000000
       464       155  TIP3  H1           10.9457174623       -4.3949393470       14.1235384940  CLST         155          1.0000000000
       465       155  TIP3  H2           10.5614144561       -4.7673471888       13.2340366205  CLST         155          1.0000000000
       466       156  TIP3  OH2          13.9452514202        1.8143005946        0.0258711739  CLST         156          1.0000000000
       467       156  TIP3  H1           14.5670368665        1.0473083061        0.0277025040  CLST         156          1.0000000000
       468       156  TIP3  H2           14.0274371165        1.7006865494       -0.9589475735  CLST         156          1.0000000000
       469       157  TIP3  OH2           0.2052388687       -5.0888646137       -8.4767000042  CLST         157          1.0000000000
       470       157  TIP3  H1            0.9287389068       -4.8221842934       -9.0465770866  CLST         157          1.0000000000
       471       157  TIP3  H2            0.2868162517       -5.9762117671       -8.7852263984  CLST         157          1.0000000000
       472       158  TIP3  OH2          -6.7495278660       -1.4598433336       -2.3204675499  CLST         158          1.0000000000
       473       158  TIP3  H1           -7.5991920345       -1.7794421007       -2.6721140403  CLST         158          1.0000000000
       474       158  TIP3  H2           -6.3799794360       -2.2572915577       -2.7219770141  CLST         158          1.0000000000
       475       159  TIP3  OH2           8.2098886720      -11.4643872294        8.0540079125  CLST         159          1.0000000000
       476       159  TIP3  H1            7.2868427906      -11.5158848183        7.7944387552  CLST         159          1.0000000000
       477       159  TIP3  H2            8.1906151680      -10.6458853789        8.5645064545  CLST         159          1.0000000000
       478       160  TIP3  OH2           4.6160303308       -9.1782450967        2.0007470215  CLST         160          1.0000000000
       479       160  TIP3  H1            4.3198450141       -8.6861421724        2.7473832373  CLST         160          1.0000000000
       480       160  TIP3  H2            5.1010191772       -9.6839320358        2.6676874894  CLST         160          1.0000000000
       481       161  TIP3  OH2           3.9793817904       -6.8269427224       -3.0050852251  CLST         161          1.0000000000
       482       161  TIP3  H1            4.6518771117       -7.2790822554       -2.4927062020  CLST         161          1.0000000000
       483       161  TIP3  H2            3.3454416738       -7.1487352349       -2.3615943925  CLST         161          1.0000000000
       484       162  TIP3  OH2           6.6573305506      -10.4448687495        3.0235440504  CLST         162          1.0000000000
       485       162  TIP3  H1            7.4202828403      -10.9906149218        3.1708678277  CLST         162          1.0000000000
       486       162  TIP3  H2            7.1186988333       -9.7755170444        3.4874303720  CLST         162          1.0000000000
       487       163  TIP3  OH2         -13.4987952543        0.1459966500        2.6847590320  CLST         163          1.0000000000
       488       163  TIP3  H1          -13.7976744570        0.3769864742        3.5899206139  CLST         163          1.0000000000
       489       163  TIP3  H2          -12.7275241556       -0.1769230315        3.2586958544  CLST         163          1.0000000000
       490       164  TIP3  OH2           8.5011208957        2.9141066841       10.1445742027  CLST         164          1.0000000000
       491       164  TIP3  H1            8.5866144923        3.4956657150        9.5631727313  CLST         164          1.0000000000
       492       164  TIP3  H2            9.5132463431        3.1947012577        9.6838210549  CLST         164          1.0000000000
       493       165  TIP3  OH2          14.2645496505        3.8993058495        5.1256780250  CLST         165          1.0000000000
       494       165  TIP3  H1           13.3490445592        4.2723271130        4.9496435801  CLST         165          1.0000000000
       495       165  TIP3  H2           13.9460729575        3.3289675593        4.3768201256  CLST         165          1.0000000000
       496       166  TIP3  OH2          -6.2350601572      -12.7749941720        5.1286696889  CLST         166          1.0000000000
       497       166  TIP3  H1           -6.2841123274      -12.3647892314        4.2640887598  CLST         166          1.0000000000
       498       166  TIP3  H2           -7.0943255757      -12.3248677550        5.1900428052  CLST         166          1.0000000000
       499       167  TIP3  OH2           0.1512662808       -7.7113667766       -9.3796597889  CLST         167          1.0000000000
       500       167  TIP3  H1           -0.0112678684       -8.1592053052      -10.1695620966  CLST         167          1.0000000000
       501       167  TIP3  H2            1.0776547379       -8.0314679712       -9.2385834327  CLST         167          1.0000000000
       502       168  TIP3  OH2          -2.7446695841       -2.4007953382        1.7330585754  CLST         168          1.0000000000
       503       168  TIP3  H1           -2.7357496173       -3.2134327851        2.2602626733  CLST         168          1.0000000000
       504       168  TIP3  H2           -2.9662856508       -3.0658056799        1.0533034704  CLST         168          1.0000000000
       505       169  TIP3  OH2           0.8070958535       12.0936772776       12.6592942185  CLST         169          1.0000000000
       506       169  TIP3  H1            1.5352524168       11.4120887418       12.6621138275  CLST         169          1.0000000000
       507       169  TIP3  H2            1.5880102247       12.6002822358       13.0265919585  CLST         169          1.0000000000
       508       170  TIP3  OH2         -14.6261388005      -12.3181433265        4.8984546117  CLST         170          1.0000000000
       509       170  TIP3  H1          -13.9228132677      -12.9386077317        5.2073501995  CLST         170          1.0000000000
       510       170  TIP3  H2          -14.5424237435      -11.9943171503        5.8255653584  CLST         170          1.0000000000
       511       171  TIP3  OH2          -9.9329197897        2.5849210893        2.5850221863  CLST         171          1.0000000000
       512       171  TIP3  H1           -8.9984937984        2.8666083334        2.6262386730  CLST         171          1.0000000000
       513       171  TIP3  H2           -9.7988006239        2.2450978561        3.4686333217  CLST         171          1.0000000000
       514       172  TIP3  OH2          13.9675982363       -7.1365338869      -11.7820653616  CLST         172          1.0000000000
       515       172  TIP3  H1           13.9412888292       -7.1497863619      -10.7908240459  CLST         172          1.0000000000
       516       172  TIP3  H2           13.3549953550       -7.8917838101      -11.6298936586  CLST         172          1.0000000000
       517       173  TIP3  OH2         -12.7819172544       -5.5754629535        3.0183645366  CLST         173          1.0000000000
       518       173  TIP3  H1          -13.3584051613       -4.7904694795        3.1733213821  CLST         173          1.0000000000
       519       173  TIP3  H2          -13.0028982195       -5.5606721722        2.0430009430  CLST         173          1.0000000000
       520       174  TIP3  OH2           5.6348960662      -14.1254780247        5.6954882517  CLST         174          1.0000000000
       521       174  TIP3  H1            5.3259866830      -14.6074677948        6.4606334488  CLST         174          1.0000000000
       522       174  TIP3  H2            4.8102883041      -13.6922693461        5.6925349495  CLST         174          1.0000000000
       523       175  TIP3  OH2           4.3349130208       -3.7260848909        7.6624020740  CLST         175          1.0000000000
       524       175  TIP3  H1            3.8461828965       -4.2572194188        7.0199037098  CLST         175          1.0000000000
       525       175  TIP3  H2            5.1641421641       -3.8829184995        7.2380333126  CLST         175          1.0000000000
       526       176  TIP3  OH2           8.4298574772        2.6822212754      -10.9744478904  CLST         176          1.0000000000
       527       176  TIP3  H1            9.0156082326        2.0124623119      -10.6284113972  CLST         176          1.0000000000
       528       176  TIP3  H2            8.6092649639        2.2621505312      -11.8176903269  CLST         176          1.0000000000
       529       177  TIP3  OH2          -4.2031677621       10.8664579863        7.3282891904  CLST         177          1.0000000000
       530       177  TIP3  H1           -3.3006042911       10.8095279489        6.8836598090  CLST         177          1.0000000000
       531       177  TIP3  H2           -4.2808502344        9.9330182721        7.0077081596  CLST         177          1.0000000000
       532       178  TIP3  OH2           4.1342874654       -6.4375612887        0.6657442505  CLST         178          1.0000000000
       533       178  TIP3  H1            3.5086394294       -5.8158798774        0.2418983530  CLST         178          1.0000000000
       534       178  TIP3  H2            3.3282271268       -6.9564802212        0.7187524080  CLST         178          1.0000000000
       535       179  TIP3  OH2           2.7592278604       -9.9061429054        0.1588359448  CLST         179          1.0000000000
       536       179  TIP3  H1            2.0357795163       -9.3130699489        0.4794749541  CLST         179          1.0000000000
       537       179  TIP3  H2            3.3847253480       -9.5532966740        0.7692779564  CLST         179          1.0000000000
       538       180  TIP3  OH2          -1.8407980692       -3.4558234346        8.2008780329  CLST         180          1.0000000000
       539       180  TIP3  H1           -1.7850574120       -2.7337504749        8.8675708902  CLST         180          1.0000000000
       540       180  TIP3  H2           -2.5896354837       -3.1131952019        7.6594176317  CLST         180          1.0000000000
       541       181  TIP3  OH2         -12.2653898897        0.0807046335      -11.2077177540  CLST         181          1.0000000000
       542       181  TIP3  H1          -11.3556646071       -0.0535742950      -10.8499304177  CLST         181          1.0000000000
       543       181  TIP3  H2          -12.4217030248       -0.6870832594      -10.6596651991  CLST         181          1.0000000000
       544       182  TIP3  OH2         -10.3484894880      -12.7561673090        5.4333106456  CLST         182          1.0000000000
       545       182  TIP3  H1          -10.9328550417      -12.6725604364        6.1770492449  CLST         182          1.0000000000
       546       182  TIP3  H2           -9.6686318319      -12.3672839535        5.9812732940  CLST         182          1.0000000000
       547       183  TIP3  OH2          11.5479409093        5.4683018678        4.3341455134  CLST         183          1.0000000000
       548       183  TIP3  H1           11.5913740649        5.3178093131        3.3861426443  CLST         183          1.0000000000
       549       183  TIP3  H2           11.3653699675        6.3425485828        4.0635352333  CLST         183          1.0000000000
       550       184  TIP3  OH2          -0.2317592050       -0.6101744014        8.0432273053  CLST         184          1.0000000000
       551       184  TIP3  H1            0.6667752852       -0.9447443091        8.0364745217  CLST         184          1.0000000000
       552       184  TIP3  H2           -0.6804676599       -0.9972911840        8.8024646552  CLST         184          1.0000000000
       553       185  TIP3  OH2           9.4042739132       12.8880180737       -3.9230522645  CLST         185          1.0000000000
       554       185  TIP3  H1            8.4922521597       12.4944888923       -4.0118050573  CLST         185          1.0000000000
       555       185  TIP3  H2            9.0376102893       13.7082757349       -4.2650670205  CLST         185          1.0000000000
       556       186  TIP3  OH2          11.9303169758       -0.1539926000        4.3019122591  CLST         186          1.0000000000
       557       186  TIP3  H1           12.1292017784       -0.0446517852        3.3497220928  CLST         186          1.0000000000
       558       186  TIP3  H2           11.1711037662        0.4564534031        4.1434909458  CLST         186          1.0000000000
       559       187  TIP3  OH2         -10.0694188989       -7.7521855589      -11.3956480019  CLST         187          1.0000000000
       560       187  TIP3  H1          -10.4677855723       -7.5758602777      -10.5008681598  CLST         187          1.0000000000
       561       187  TIP3  H2           -9.9433582649       -6.7709389081      -11.3320509095  CLST         187          1.0000000000
       562       188  TIP3  OH2         -15.0976490062       -0.5506331561        0.6979657968  CLST         188          1.0000000000
       563       188  TIP3  H1          -14.7147852909       -0.5506991529        1.5026912897  CLST         188          1.0000000000
       564       188  TIP3  H2          -15.0589818888       -1.2001361183       -0.0156958342  CLST         188          1.0000000000
       565       189  TIP3  OH2          14.0601845039        0.5593103573       14.6183467671  CLST         189          1.0000000000
       566       189  TIP3  H1           14.7050428791        0.8012783982       15.0885961955  CLST         189          1.0000000000
       567       189  TIP3  H2           14.3328524151        0.2084774204       13.7259924886  CLST         189          1.0000000000
       568       190  TIP3  OH2           0.4636887566       -7.8754624117        3.8340487448  CLST         190          1.0000000000
       569       190  TIP3  H1            0.8425916687       -8.0657676457        4.7075994513  CLST         190          1.0000000000
       570       190  TIP3  H2            0.8494577724       -6.9523833401        3.8514148293  CLST         190          1.0000000000
       571       191  TIP3  OH2          -0.8755188918       14.2032029643       -4.0150835446  CLST         191          1.0000000000
       572       191  TIP3  H1           -1.7535961254       13.8932277042       -3.8490974966  CLST         191          1.0000000000
       573       191  TIP3  H2           -1.3404416732       15.0491930337       -4.0924679047  CLST         191          1.0000000000
       574       192  TIP3  OH2          -5.1449401706       -0.2081291115       -0.7433053811  CLST         192          1.0000000000
       575       192  TIP3  H1           -5.8194780375       -0.3140397341       -1.3999524257  CLST         192          1.0000000000
       576       192  TIP3  H2           -5.7997900082        0.3542816568       -0.2121932949  CLST         192          1.0000000000
       577       193  TIP3  OH2         -12.9653696474      -13.1471361085        6.9915335979  CLST         193          1.0000000000
       578       193  TIP3  H1          -12.2641327202      -13.6499601620        7.4095884209  CLST         193          1.0000000000
       579       193  TIP3  H2          -12.4710181829      -12.4285953430        7.4119542275  CLST         193          1.0000000000
       580       194  TIP3  OH2          12.5600229517       12.4797472560      -11.2340503719  CLST         194          1.0000000000
       581       194  TIP3  H1           12.5541638845       13.3262765922      -11.6664494172  CLST         194          1.0000000000
       582       194  TIP3  H2           13.4843313139       12.3912819195      -11.2758481077  CLST         194          1.0000000000
       583       195  TIP3  OH2           5.0978727212        2.6270045221        3.5364731890  CLST         195          1.0000000000
       584       195  TIP3  H1            4.2036604564        2.9123539997        3.2096929571  CLST         195          1.0000000000
       585       195  TIP3  H2            4.6856254335        1.7693475723        3.1904606470  CLST         195          1.0000000000
       586       196  TIP3  OH2           7.2037564994        6.2476185028       11.7323967632  CLST         196          1.0000000000
       587       196  TIP3  H1            7.9612595102        5.7813544463       11.9352132164  CLST         196          1.0000000000
       588       196  TIP3  H2            7.0392038477        6.7995877637       12.5261450918  CLST         196          1.0000000000
       589       197  TIP3  OH2          -4.4228314527       -9.4240219053        3.7970418360  CLST         197          1.0000000000
       590       197  TIP3  H1           -4.7987453824       -8.9354960488        3.0015931970  CLST         197          1.0000000000
       591       197  TIP3  H2           -3.6885627506       -8.7611610886        3.7326518644  CLST         197          1.0000000000
       592       198  TIP3  OH2          -4.5167141465       -8.9612799350       -6.0158125275  CLST         198          1.0000000000
       593       198  TIP3  H1           -4.0966703449       -8.7993511628       -6.8928998297  CLST         198          1.0000000000
       594       198  TIP3  H2           -5.3279696138       -9.0019631907       -6.5932281173  CLST         198          1.0000000000
       595       199  TIP3  OH2          11.3907376927        7.6501638626       -2.3775026211  CLST         199          1.0000000000
       596       199  TIP3  H1           11.2862174544        8.4833343895       -1.9092812258  CLST         199          1.0000000000
       597       199  TIP3  H2           12.2159796826        7.6173064496       -1.8527673260  CLST         199          1.0000000000
       598       200  TIP3  OH2          -4.6918202722       -7.5440694455       -1.0786821969  CLST         200          1.0000000000
       599       200  TIP3  H1           -3.8048900141       -7.7872422330       -1.3358620341  CLST         200          1.0000000000
       600       200  TIP3  H2           -4.6179593192       -6.7457894290       -1.6230041271  CLST         200          1.0000000000
       601       201  TIP3  OH2          13.8714733189      -10.6055105327       12.0085797080  CLST         201          1.0000000000
       602       201  TIP3  H1           14.4012836622       -9.8063557678       11.9832296257  CLST         201          1.0000000000
       603       201  TIP3  H2           13.1746470618      -10.1229905688       11.5190103770  CLST         201          1.0000000000
       604       202  TIP3  OH2          -2.7368347965       -9.6196413737        8.0252843190  CLST         202          1.0000000000
       605       202  TIP3  H1           -2.0173780452       -9.9801361555        8.5861887522  CLST         202          1.0000000000
       606       202  TIP3  H2           -2.4696345314      -10.3906477094        7.4686062668  CLST         202          1.0000000000
       607       203  TIP3  OH2          10.4038412861        4.3134076932       13.8590116439  CLST         203          1.0000000000
       608       203  TIP3  H1            9.4508409922        3.8326956796       13.4956039749  CLST         203          1.0000000000
       609       203  TIP3  H2           10.0566107910        3.3233377515       14.1292462410  CLST         203          1.0000000000
       610       204  TIP3  OH2          -5.0930615657        6.1114087570        5.9714090016  CLST         204          1.0000000000
       611       204  TIP3  H1           -5.8436758363        6.7320101414        6.0557354608  CLST         204          1.0000000000
       612       204  TIP3  H2           -4.7079536094        6.6144498387        6.7282192861  CLST         204          1.0000000000
       613       205  TIP3  OH2          -2.3113942816        1.4253739630       -4.9179205148  CLST         205          1.0000000000
       614       205  TIP3  H1           -1.6612151966        1.4964817428       -5.6464079912  CLST         205          1.0000000000
       615       205  TIP3  H2           -2.6749845149        2.1884352544       -5.3744689437  CLST         205          1.0000000000
       616       206  TIP3  OH2          -8.5717460367       -1.2575444271        4.6104841675  CLST         206          1.0000000000
       617       206  TIP3  H1           -8.8122528098       -1.4426895663        5.5385396720  CLST         206          1.0000000000
       618       206  TIP3  H2           -8.0054385340       -0.5339863099        5.0142021285  CLST         206          1.0000000000
       619       207  TIP3  OH2          -7.6708611228        9.5928608032        0.4565559832  CLST         207          1.0000000000
       620       207  TIP3  H1           -7.2619829384        8.8435515530        0.5088025257  CLST         207          1.0000000000
       621       207  TIP3  H2           -8.1262485456        8.8258931318        1.1583035730  CLST         207          1.0000000000
       622       208  TIP3  OH2           9.3520046590       14.2290654690      -11.7090007311  CLST         208          1.0000000000
       623       208  TIP3  H1            9.2235019247       13.9484390358      -12.5859586444  CLST         208          1.0000000000
       624       208  TIP3  H2           10.0852833590       14.8212381106      -11.8713270054  CLST         208          1.0000000000
       625       209  TIP3  OH2          -6.4645946337       -6.2266405890      -14.3794692633  CLST         209          1.0000000000
       626       209  TIP3  H1           -7.4329160451       -6.2155719519      -14.5221848883  CLST         209          1.0000000000
       627       209  TIP3  H2           -6.6456267201       -6.7697365676      -13.6444406541  CLST         209          1.0000000000
       628       210  TIP3  OH2          -2.2414380968        1.2949170912        7.9645145384  CLST         210          1.0000000000
       629       210  TIP3  H1           -1.6997916453        0.4863432774        8.0331111538  CLST         210          1.0000000000
       630       210  TIP3  H2           -2.0470568064        1.5491018061        8.8638710217  CLST         210          1.0000000000
       631       211  TIP3  OH2          -0.6813202992        0.0224115492       -3.0518828943  CLST         211          1.0000000000
       632       211  TIP3  H1           -1.4599162855       -0.5089660278       -2.8352963883  CLST         211          1.0000000000
       633       211  TIP3  H2           -1.2680187507        0.5839373978       -3.5843623652  CLST         211          1.0000000000
       634       212  TIP3  OH2           7.0728140939        3.0425083069        5.5814794943  CLST         212          1.0000000000
       635       212  TIP3  H1            6.2845362745        2.2982685147        5.6222050296  CLST         212          1.0000000000
       636       212  TIP3  H2            6.0640494379        3.0208683148        5.0502769491  CLST         212          1.0000000000
       637       213  TIP3  OH2           2.0785618452       -5.0275804036       -0.3665192985  CLST         213          1.0000000000
       638       213  TIP3  H1            2.0056139779       -4.2043865376       -0.8587166440  CLST         213          1.0000000000
       639       213  TIP3  H2            1.9432743325       -5.4746124790       -1.1968136730  CLST         213          1.0000000000
       640       214  TIP3  OH2           2.2602113019       -7.0141898902      -11.6335767968  CLST         214          1.0000000000
       641       214  TIP3  H1            2.6120340626       -7.8921972760      -11.4117890720  CLST         214          1.0000000000
       642       214  TIP3  H2            2.9843385560       -6.6808303677      -11.0664178069  CLST         214          1.0000000000
       643       215  TIP3  OH2         -12.5599987446        2.6725425452      -11.0874218266  CLST         215          1.0000000000
       644       215  TIP3  H1          -12.4476154060        1.7071367016      -10.7267039775  CLST         215          1.0000000000
       645       215  TIP3  H2          -12.9695502548        1.7729618573      -11.6371794139  CLST         215          1.0000000000
       646       216  TIP3  OH2          11.6043862016       -6.5024718637       -4.5469372979  CLST         216          1.0000000000
       647       216  TIP3  H1           11.0746765847       -7.3142314598       -4.5205638999  CLST         216          1.0000000000
       648       216  TIP3  H2           10.8272511401       -6.2253771288       -5.0817892950  CLST         216          1.0000000000
       649       217  TIP3  OH2          -6.6250277735        9.3671451897        4.1695081694  CLST         217          1.0000000000
       650       217  TIP3  H1           -5.6562099119        9.1529020175        4.1497285013  CLST         217          1.0000000000
       651       217  TIP3  H2           -6.8498759883        8.4634418073        3.8419857573  CLST         217          1.0000000000
       652       218  TIP3  OH2           5.8316133694       -7.4335058019       -8.3852283509  CLST         218          1.0000000000
       653       218  TIP3  H1            5.9867918170       -8.4156268426       -8.3145767030  CLST         218          1.0000000000
       654       218  TIP3  H2            5.6947237504       -7.5347597357       -7.3989590407  CLST         218          1.0000000000
       655       219  TIP3  OH2           2.5776684456      -13.6821583537        7.4342017195  CLST         219          1.0000000000
       656       219  TIP3  H1            2.3163137789      -13.0358592803        8.1312643941  CLST         219          1.0000000000
       657       219  TIP3  H2            3.3013586335      -13.8235974561        8.1406051779  CLST         219          1.0000000000
       658       220  TIP3  OH2           2.5137174714        1.4616532494      -11.1583346375  CLST         220          1.0000000000
       659       220  TIP3  H1            2.7255360923        1.7286428225      -12.0857486761  CLST         220          1.0000000000
       660       220  TIP3  H2            3.4100513617        1.1120383153      -11.2563200577  CLST         220          1.0000000000
       661       221  TIP3  OH2           1.7156320131       -0.4386663948        2.9958082108  CLST         221          1.0000000000
       662       221  TIP3  H1            0.8276364835       -0.1575621594        2.7107223953  CLST         221          1.0000000000
       663       221  TIP3  H2            1.6656244042        0.2336765644        3.6749057708  CLST         221          1.0000000000
       664       222  TIP3  OH2          12.0814384022        0.5328167227        1.6256674982  CLST         222          1.0000000000
       665       222  TIP3  H1           12.4574335398        0.5128903470        0.7378642882  CLST         222          1.0000000000
       666       222  TIP3  H2           11.1922136318        0.6947484906        1.1497894081  CLST         222          1.0000000000
       667       223  TIP3  OH2           1.2728503985      -10.5914044767      -13.0855643686  CLST         223          1.0000000000
       668       223  TIP3  H1            1.0304989902      -10.7380721122      -12.1419720537  CLST         223          1.0000000000
       669       223  TIP3  H2            0.5928146322       -9.9236867620      -12.9647160886  CLST         223          1.0000000000
       670       224  TIP3  OH2          -9.1867601066        6.9639803973      -12.8132819303  CLST         224          1.0000000000
       671       224  TIP3  H1           -9.9238808502        6.2728706034      -12.6829315294  CLST         224          1.0000000000
       672       224  TIP3  H2           -9.0553977923        5.8130158939      -12.5620816248  CLST         224          1.0000000000
       673       225  TIP3  OH2          13.2016108273        3.7589006592       -7.6920772335  CLST         225          1.0000000000
       674       225  TIP3  H1           12.2355993852        3.8225790580       -7.7856101746  CLST         225          1.0000000000
       675       225  TIP3  H2           13.0128619239        3.1291458917       -6.9841508379  CLST         225          1.0000000000
       676       226  TIP3  OH2           5.1136133766        5.0413561959       10.7015109753  CLST         226          1.0000000000
       677       226  TIP3  H1            5.7903991326        5.7049531521       10.7645845196  CLST         226          1.0000000000
       678       226  TIP3  H2            5.5396276276        4.6790061870       11.4840087916  CLST         226          1.0000000000
       679       227  TIP3  OH2          -6.3032907522        1.0599850525        9.8675894830  CLST         227          1.0000000000
       680       227  TIP3  H1           -6.7092388285        0.7649702857       10.6419266173  CLST         227          1.0000000000
       681       227  TIP3  H2           -5.9230955629        0.1886687239        9.5902271255  CLST         227          1.0000000000
       682       228  TIP3  OH2          -8.7704333469       -5.3977341812       10.6795735701  CLST         228          1.0000000000
       683       228  TIP3  H1           -8.9277006001       -5.2594196382        9.7657612390  CLST         228          1.0000000000
       684       228  TIP3  H2           -7.8211593317       -5.4855934308       10.5344768537  CLST         228          1.0000000000
       685       229  TIP3  OH2          11.3090430116        8.1090369561      -15.0893734047  CLST         229          1.0000000000
       686       229  TIP3  H1           11.2880893220        8.2911621579      -14.1361516326  CLST         229          1.0000000000
       687       229  TIP3  H2           11.7895555879        7.3167329603      -14.7388964633  CLST         229          1.0000000000
       688       230  TIP3  OH2         -10.8262140015       -3.5261755834        8.8666395360  CLST         230          1.0000000000
       689       230  TIP3  H1          -11.3124581537       -4.3360937118        8.6618305199  CLST         230          1.0000000000
       690       230  TIP3  H2          -11.6231746886       -3.2994834091        9.3297321966  CLST         230          1.0000000000
       691       231  TIP3  OH2          -0.2766352353        3.0423999007      -11.9850559738  CLST         231          1.0000000000
       692       231  TIP3  H1            0.2153095597        2.3509281168      -11.5260226943  CLST         231          1.0000000000
       693       231  TIP3  H2            0.3732885001        2.8266870858      -12.6591628327  CLST         231          1.0000000000
       694       232  TIP3  OH2           1.8155085135      -15.1037045819      -12.0323725414  CLST         232          1.0000000000
       695       232  TIP3  H1            1.6933605255      -14.3673307515      -11.3636513176  CLST         232          1.0000000000
       696       232  TIP3  H2            1.9625860779      -14.2937940206      -12.5639760475  CLST         232          1.0000000000
       697       233  TIP3  OH2         -12.2954247771        9.6635705020        2.1373975718  CLST         233          1.0000000000
       698       233  TIP3  H1          -12.8780442085        9.5014988737        2.8890987443  CLST         233          1.0000000000
       699       233  TIP3  H2          -13.1223781307        9.8678142503        1.6965897549  CLST         233          1.0000000000
       700       234  TIP3  OH2          -2.3008600485        4.5595945753       -8.2046915348  CLST         234          1.0000000000
       701       234  TIP3  H1           -2.2802967449        5.5507565955       -8.1901593746  CLST         234          1.0000000000
       702       234  TIP3  H2           -2.3230011643        4.5917687343       -9.1804901117  CLST         234          1.0000000000
       703       235  TIP3  OH2         -10.3074245482        5.1707736473       -5.6190576540  CLST         235          1.0000000000
       704       235  TIP3  H1          -10.5961860186        4.6157290580       -6.3542325881  CLST         235          1.0000000000
       705       235  TIP3  H2           -9.4613236084        4.9053583940       -6.0046647726  CLST         235          1.0000000000
       706       236  TIP3  OH2         -12.2925672660      -10.6170260996       13.6052706103  CLST         236          1.0000000000
       707       236  TIP3  H1          -11.6628123962      -10.8665034798       12.7160344808  CLST         236          1.0000000000
       708       236  TIP3  H2          -12.2658413311      -10.0821057442       12.9550367637  CLST         236          1.0000000000
       709       237  TIP3  OH2          -6.3092003652       -6.4926929678       10.5093192559  CLST         237          1.0000000000
       710       237  TIP3  H1           -5.7130201318       -6.9256571761        9.8447382439  CLST         237          1.0000000000
       711       237  TIP3  H2           -5.4718218667       -6.4779747212       11.0271258479  CLST         237          1.0000000000
       712       238  TIP3  OH2          -1.0188602018        3.7018077172       -2.8314741414  CLST         238          1.0000000000
       713       238  TIP3  H1           -1.7037720454        4.1681158878       -3.2871357534  CLST         238          1.0000000000
       714       238  TIP3  H2           -1.7540932099        3.1483514888       -2.5792745153  CLST         238          1.0000000000
       715       239  TIP3  OH2           8.0357278906        7.4598131007        0.0428616519  CLST         239          1.0000000000
       716       239  TIP3  H1            8.5630856682        6.7283373592       -0.3149644522  CLST         239          1.0000000000
       717       239  TIP3  H2            8.8885055595        7.8400457141        0.2289065448  CLST         239          1.0000000000
       718       240  TIP3  OH2          -9.7782975430        8.6604432960        1.8490330056  CLST         240          1.0000000000
       719       240  TIP3  H1          -10.7260540737        8.9365784812        1.7746589447  CLST         240          1.0000000000
       720       240  TIP3  H2          -10.2203627174        7.7924002008        1.8551503833  CLST         240          1.0000000000
       721       241  TIP3  OH2          10.9289590081       -4.4272881859       -1.7389440284  CLST         241          1.0000000000
       722       241  TIP3  H1           10.4198902652       -4.8057122921       -2.5308469698  CLST         241          1.0000000000
       723       241  TIP3  H2           11.7041228872       -4.6895537387       -2.3302245268  CLST         241          1.0000000000
       724       242  TIP3  OH2           9.5126166958       -1.6095916505       -4.4277452826  CLST         242          1.0000000000
       725       242  TIP3  H1           10.2882421104       -1.2412794739       -3.9666159793  CLST         242          1.0000000000
       726       242  TIP3  H2            9.6452215295       -2.2472780040       -3.7260518819  CLST         242          1.0000000000
       727       243  TIP3  OH2           5.1211662297        9.4914144718      -12.2252752976  CLST         243          1.0000000000
       728       243  TIP3  H1            4.5266233882       10.1531216087      -11.8803807830  CLST         243          1.0000000000
       729       243  TIP3  H2            4.8712967962        9.0341194546      -11.4188016186  CLST         243          1.0000000000
       730       244  TIP3  OH2          -9.1845218987       -6.6754582687      -14.4367542285  CLST         244          1.0000000000
       731       244  TIP3  H1           -9.5460606252       -6.3096581089      -13.6583017491  CLST         244          1.0000000000
       732       244  TIP3  H2          -10.0669834677       -6.7898963945      -14.8010295654  CLST         244          1.0000000000
       733       245  TIP3  OH2         -13.2537774368        6.2261672009        2.4877520724  CLST         245          1.0000000000
       734       245  TIP3  H1          -13.2176634672        6.9881333333        3.1317106224  CLST         245          1.0000000000
       735       245  TIP3  H2          -12.2774189877        6.2928269863        2.6563355778  CLST         245          1.0000000000
       736       246  TIP3  OH2          -9.2587332286        6.1819811453       -1.7464287967  CLST         246          1.0000000000
       737       246  TIP3  H1          -10.1206198520        6.1378303813       -2.1354890012  CLST         246          1.0000000000
       738       246  TIP3  H2           -9.2979299592        7.1103172200       -1.9987358034  CLST         246          1.0000000000
       739       247  TIP3  OH2          -4.3545191163        7.9077636128        7.9269306788  CLST         247          1.0000000000
       740       247  TIP3  H1           -3.5089127154        8.2014280232        8.2883774943  CLST         247          1.0000000000
       741       247  TIP3  H2           -4.4938991125        7.6552990192        8.8776873740  CLST         247          1.0000000000
       742       248  TIP3  OH2           9.7529240036       -7.7192843378        7.9329773297  CLST         248          1.0000000000
       743       248  TIP3  H1            9.0844650403       -8.4121928686        7.8279496680  CLST         248          1.0000000000
       744       248  TIP3  H2            9.6909480545       -7.5444619098        6.9818803217  CLST         248          1.0000000000
       745       249  TIP3  OH2           9.8692503947        5.7622117271       -1.0551723827  CLST         249          1.0000000000
       746       249  TIP3  H1           10.4623232679        4.9836668459       -1.2006037074  CLST         249          1.0000000000
       747       249  TIP3  H2           10.5542850202        6.1580410697       -1.6637276553  CLST         249          1.0000000000
       748       250  TIP3  OH2           5.9621016868       -4.6181678771        3.3085867308  CLST         250          1.0000000000
       749       250  TIP3  H1            6.1412795292       -5.4064038371        2.7866927150  CLST         250          1.0000000000
       750       250  TIP3  H2            5.1609859362       -5.0072220558        3.6530066840  CLST         250          1.0000000000
       751       251  TIP3  OH2         -14.7189916986      -11.5655531426        1.8986475942  CLST         251          1.0000000000
       752       251  TIP3  H1          -14.5405416084      -12.3083553951        1.3270677341  CLST         251          1.0000000000
       753       251  TIP3  H2          -14.2986256238      -12.0469914858        2.6140632387  CLST         251          1.0000000000
       754       252  TIP3  OH2          -7.1296498836      -14.9321659444      -11.8591754076  CLST         252          1.0000000000
       755       252  TIP3  H1           -8.0277188860      -14.6289882176      -11.7299145170  CLST         252          1.0000000000
       756       252  TIP3  H2           -7.2079245382      -14.4205954320      -12.6930262055  CLST         252          1.0000000000
       757       253  TIP3  OH2           0.6310051287        7.4364591981        7.9347498899  CLST         253          1.0000000000
       758       253  TIP3  H1            0.7352321372        7.2673290959        6.9683329471  CLST         253          1.0000000000
       759       253  TIP3  H2            1.6135149617        7.4563184036        7.8649071264  CLST         253          1.0000000000
       760       254  TIP3  OH2         -11.4776713663        1.3414446405      -14.4542670820  CLST         254          1.0000000000
       761       254  TIP3  H1          -12.0444522622        0.6463600941      -14.0649671659  CLST         254          1.0000000000
       762       254  TIP3  H2          -12.3715495236        1.6500833775      -14.6702404072  CLST         254          1.0000000000
       763       255  TIP3  OH2           4.1907331644        0.0727555155       -0.8451238660  CLST         255          1.0000000000
       764       255  TIP3  H1            4.0404078088       -0.5452008822       -0.1202053943  CLST         255          1.0000000000
       765       255  TIP3  H2            3.3030031234       -0.1470385642       -1.0847102405  CLST         255          1.0000000000
       766       256  TIP3  OH2          14.0979738488       -3.3142391347      -12.1927989345  CLST         256          1.0000000000
       767       256  TIP3  H1           14.6692999972       -3.0506907749      -12.8907901980  CLST         256          1.0000000000
       768       256  TIP3  H2           13.6293277591       -3.9435598918      -12.7164644543  CLST         256          1.0000000000
       769       257  TIP3  OH2          -6.5758939051      -13.3522967393       10.2666646968  CLST         257          1.0000000000
       770       257  TIP3  H1           -6.8585489295      -14.2761742975       10.0108990010  CLST         257          1.0000000000
       771       257  TIP3  H2           -5.7899797620      -13.8842261498       10.4510076790  CLST         257          1.0000000000
       772       258  TIP3  OH2         -10.4208873358      -11.8140230460       -6.6755502167  CLST         258          1.0000000000
       773       258  TIP3  H1          -10.0715228854      -11.6394713835       -5.8059800122  CLST         258          1.0000000000
       774       258  TIP3  H2          -10.4203942237      -10.8657484152       -6.7866709365  CLST         258          1.0000000000
       775       259  TIP3  OH2           3.0548005758        1.8569170511       14.1418025396  CLST         259          1.0000000000
       776       259  TIP3  H1            3.3071976463        0.9096270137       14.2153821980  CLST         259          1.0000000000
       777       259  TIP3  H2            2.8631770728        1.7067531285       15.1037045819  CLST         259          1.0000000000
       778       260  TIP3  OH2         -10.7610470606      -10.2182731973       -9.5766186438  CLST         260          1.0000000000
       779       260  TIP3  H1          -11.5276659942      -10.5275419579      -10.0609976847  CLST         260          1.0000000000
       780       260  TIP3  H2          -11.2231458906       -9.3926628888       -9.4738635874  CLST         260          1.0000000000
       781       261  TIP3  OH2           7.0544430655        0.9011939986       -0.1444129883  CLST         261          1.0000000000
       782       261  TIP3  H1            6.8743097620        1.5042953564       -0.8876962225  CLST         261          1.0000000000
       783       261  TIP3  H2            6.2817756973        1.1890972812        0.3052524075  CLST         261          1.0000000000
       784       262  TIP3  OH2          -1.6582494584       14.3324607905        3.0017239687  CLST         262          1.0000000000
       785       262  TIP3  H1           -2.0857583549       14.0719131678        3.8379733085  CLST         262          1.0000000000
       786       262  TIP3  H2           -1.1127113463       13.5821094467        3.1562426100  CLST         262          1.0000000000
       787       263  TIP3  OH2           6.6091052019        3.8541069872        1.6831404330  CLST         263          1.0000000000
       788       263  TIP3  H1            6.1475716311        3.3961217284        0.9480247836  CLST         263          1.0000000000
       789       263  TIP3  H2            6.1470469148        3.1567544360        2.1774910704  CLST         263          1.0000000000
       790       264  TIP3  OH2          -3.0581380143       10.3435578977       10.1110151034  CLST         264          1.0000000000
       791       264  TIP3  H1           -2.3805303156       10.9851490958       10.3411271463  CLST         264          1.0000000000
       792       264  TIP3  H2           -2.5342146412       10.2433922065        9.3083463824  CLST         264          1.0000000000
       793       265  TIP3  OH2         -12.7020708667       12.5761037052       -0.2162569560  CLST         265          1.0000000000
       794       265  TIP3  H1          -13.0574336155       12.8826916558       -1.0324879131  CLST         265          1.0000000000
       795       265  TIP3  H2          -13.3661167491       11.8907811693       -0.2305477103  CLST         265          1.0000000000
       796       266  TIP3  OH2          -4.0365683607        1.6695662803        4.1132861312  CLST         266          1.0000000000
       797       266  TIP3  H1           -4.2725948886        0.9748709675        3.4179802852  CLST         266          1.0000000000
       798       266  TIP3  H2           -4.1563954459        2.2238710104        3.3350556212  CLST         266          1.0000000000
       799       267  TIP3  OH2          -6.9576219040       11.4255253652       -5.3063232223  CLST         267          1.0000000000
       800       267  TIP3  H1           -7.5455452329       11.2380117535       -6.0465315170  CLST         267          1.0000000000
       801       267  TIP3  H2           -7.7035577876       11.8969825397       -4.9343620358  CLST         267          1.0000000000
       802       268  TIP3  OH2           4.8836923460        3.7055653323      -14.0890173342  CLST         268          1.0000000000
       803       268  TIP3  H1            5.6390250224        3.9280566828      -13.5413289325  CLST         268          1.0000000000
       804       268  TIP3  H2            4.8528805400        4.6167562520      -14.4233114923  CLST         268          1.0000000000
       805       269  TIP3  OH2           9.4472215431       -0.3197303879       11.1924040544  CLST         269          1.0000000000
       806       269  TIP3  H1           10.3488080110       -0.0147578024       11.4156152870  CLST         269          1.0000000000
       807       269  TIP3  H2            9.4884062139       -0.4903865471       12.1831124239  CLST         269          1.0000000000
       808       270  TIP3  OH2          -8.1869273303       -6.0802070037        6.3264811785  CLST         270          1.0000000000
       809       270  TIP3  H1           -8.1337769282       -5.9306838285        5.3817455229  CLST         270          1.0000000000
       810       270  TIP3  H2           -7.2492817355       -5.9385552970        6.4697235534  CLST         270          1.0000000000
       811       271  TIP3  OH2         -11.7646261154       12.1369734665       11.4353254252  CLST         271          1.0000000000
       812       271  TIP3  H1          -11.2931987234       12.4389614593       12.2806476866  CLST         271          1.0000000000
       813       271  TIP3  H2          -11.1551604859       12.8241656960       11.0964459473  CLST         271          1.0000000000
       814       272  TIP3  OH2           6.9191229272      -14.2406354661        3.3540943491  CLST         272          1.0000000000
       815       272  TIP3  H1            7.5499298010      -13.6233076153        3.6742760948  CLST         272          1.0000000000
       816       272  TIP3  H2            6.6183041446      -14.1501690508        4.2527568621  CLST         272          1.0000000000
       817       273  TIP3  OH2          -8.4675204194       10.9941629280       -7.6035347088  CLST         273          1.0000000000
       818       273  TIP3  H1           -9.2160165696       11.4830730625       -8.0771949574  CLST         273          1.0000000000
       819       273  TIP3  H2           -9.2600489915       10.3945422802       -7.4693823592  CLST         273          1.0000000000
       820       274  TIP3  OH2          -6.5852819249        0.5011984954       13.9418489131  CLST         274          1.0000000000
       821       274  TIP3  H1           -7.4614989563        0.6961973131       14.4182472664  CLST         274          1.0000000000
       822       274  TIP3  H2           -7.2803879174        0.5401320908       13.2120828990  CLST         274          1.0000000000
       823       275  TIP3  OH2           3.9371080199      -15.1037045819       -0.8089241283  CLST         275          1.0000000000
       824       275  TIP3  H1            3.2219991948      -14.6866810535       -0.3211368152  CLST         275          1.0000000000
       825       275  TIP3  H2            4.1423799810      -14.2746427474       -1.2454839701  CLST         275          1.0000000000
       826       276  TIP3  OH2           2.3173908522       -9.9860705667        7.1926899283  CLST         276          1.0000000000
       827       276  TIP3  H1            2.3643307434      -10.3007064727        8.0941032424  CLST         276          1.0000000000
       828       276  TIP3  H2            3.2557861996       -9.8371643759        7.3069545720  CLST         276          1.0000000000
       829       277  TIP3  OH2          -7.2450215691        7.0970342486        2.7272796212  CLST         277          1.0000000000
       830       277  TIP3  H1           -7.7122417214        6.6508247160        2.0066075519  CLST         277          1.0000000000
       831       277  TIP3  H2           -6.6256543730        6.3830360478        2.5097013954  CLST         277          1.0000000000
       832       278  TIP3  OH2           5.0081039316      -10.5120056374       10.0469416762  CLST         278          1.0000000000
       833       278  TIP3  H1            5.1410655001       -9.7510722188        9.4556391241  CLST         278          1.0000000000
       834       278  TIP3  H2            4.3190874441      -10.0354408443       10.5377922816  CLST         278          1.0000000000
       835       279  TIP3  OH2          12.0393375363       -5.6472476349        7.4589732143  CLST         279          1.0000000000
       836       279  TIP3  H1           11.5684790377       -5.9879174026        6.6745764606  CLST         279          1.0000000000
       837       279  TIP3  H2           12.3343881628       -5.0084504793        6.7758096444  CLST         279          1.0000000000
       838       280  TIP3  OH2           6.8688698261       -8.7875977229       12.6922486172  CLST         280          1.0000000000
       839       280  TIP3  H1            7.2608279313       -9.6557748394       12.8061633961  CLST         280          1.0000000000
       840       280  TIP3  H2            7.7101982619       -8.3749869826       12.4720238608  CLST         280          1.0000000000
       841       281  TIP3  OH2          -1.5654644614        4.6438508453       10.7215101049  CLST         281          1.0000000000
       842       281  TIP3  H1           -1.9815823520        3.7974159058       10.8425444120  CLST         281          1.0000000000
       843       281  TIP3  H2           -1.5583806797        4.6842981294       11.6405414748  CLST         281          1.0000000000
       844       282  TIP3  OH2          10.7032052145       10.6292066430      -10.9255486787  CLST         282          1.0000000000
       845       282  TIP3  H1           11.3165631870        9.9029942034      -11.1091809860  CLST         282          1.0000000000
       846       282  TIP3  H2           11.4296346263       11.1449356347      -11.2935812071  CLST         282          1.0000000000
       847       283  TIP3  OH2          -3.0073103822       -4.4704699282       -0.0613563923  CLST         283          1.0000000000
       848       283  TIP3  H1           -3.6402437555       -4.8702918342       -0.7279398798  CLST         283          1.0000000000
       849       283  TIP3  H2           -3.1022570552       -5.3815713530        0.3306394320  CLST         283          1.0000000000
       850       284  TIP3  OH2           4.0554404074       10.7091728247        2.1669771592  CLST         284          1.0000000000
       851       284  TIP3  H1            4.4469636555        9.8240785010        2.1916049481  CLST         284          1.0000000000
       852       284  TIP3  H2            3.3585184862       10.2525656759        2.7093513322  CLST         284          1.0000000000
       853       285  TIP3  OH2         -11.6739479596       -6.0971626300        8.3278506816  CLST         285          1.0000000000
       854       285  TIP3  H1          -10.7628458217       -6.4122119953        8.0487104918  CLST         285          1.0000000000
       855       285  TIP3  H2          -11.8510247718       -6.2027414534        7.3177938500  CLST         285          1.0000000000
       856       286  TIP3  OH2          -2.5794276505       -9.7631816885      -10.6138683615  CLST         286          1.0000000000
       857       286  TIP3  H1           -2.8001876803       -9.5255167969      -11.5044469213  CLST         286          1.0000000000
       858       286  TIP3  H2           -3.2667007342      -10.4138501886      -10.6303143434  CLST         286          1.0000000000
       859       287  TIP3  OH2           2.6870070445       -0.8869074415       -7.9302785091  CLST         287          1.0000000000
       860       287  TIP3  H1            2.5231858014        0.0719913799       -8.0089216750  CLST         287          1.0000000000
       861       287  TIP3  H2            3.5621995273       -0.5945558781       -8.1419501015  CLST         287          1.0000000000
       862       288  TIP3  OH2          13.7603590414      -14.4175958860       -8.5382499581  CLST         288          1.0000000000
       863       288  TIP3  H1           13.4411844338      -13.6298388054       -8.0670035016  CLST         288          1.0000000000
       864       288  TIP3  H2           14.0977245683      -14.7659470417       -7.7589952590  CLST         288          1.0000000000
       865       289  TIP3  OH2          14.1746922319        3.6481514985      -10.3095223895  CLST         289          1.0000000000
       866       289  TIP3  H1           13.8103693969        3.6769064098       -9.4241145897  CLST         289          1.0000000000
       867       289  TIP3  H2           14.9561185296        3.2757072263       -9.9318866413  CLST         289          1.0000000000
       868       290  TIP3  OH2          11.6355020809        0.9752455362       12.0232550343  CLST         290          1.0000000000
       869       290  TIP3  H1           11.5714364950        1.2595502526       12.9355937384  CLST         290          1.0000000000
       870       290  TIP3  H2           11.9523670099        1.8740049992       11.8997735016  CLST         290          1.0000000000
       871       291  TIP3  OH2         -11.3421118270       -9.5021587076       -2.6895017670  CLST         291          1.0000000000
       872       291  TIP3  H1          -10.8351392512      -10.0452783422       -2.0285276132  CLST         291          1.0000000000
       873       291  TIP3  H2          -11.4857345088       -8.9765809628       -1.8362618480  CLST         291          1.0000000000
       874       292  TIP3  OH2           8.9732718910       -1.7817667308      -11.7101331933  CLST         292          1.0000000000
       875       292  TIP3  H1            8.4901982463       -2.6012391917      -11.7184528931  CLST         292          1.0000000000
       876       292  TIP3  H2            9.2516032834       -2.0973768058      -10.8455875398  CLST         292          1.0000000000
       877       293  TIP3  OH2           2.4076667586        2.6900998354      -13.6088664359  CLST         293          1.0000000000
       878       293  TIP3  H1            2.1924580906        3.6428725687      -13.5460948761  CLST         293          1.0000000000
       879       293  TIP3  H2            3.3108095799        3.0134660010      -13.7370017244  CLST         293          1.0000000000
       880       294  TIP3  OH2           1.8096471793        7.9292875079        0.8825132323  CLST         294          1.0000000000
       881       294  TIP3  H1            1.7640101267        7.6182196944        1.6495868775  CLST         294          1.0000000000
       882       294  TIP3  H2            2.5982458428        8.0808590878        1.6880999649  CLST         294          1.0000000000
       883       295  TIP3  OH2           3.6908534753       12.9470190929       -4.4317802210  CLST         295          1.0000000000
       884       295  TIP3  H1            3.1457026340       13.4525773427       -3.8563295518  CLST         295          1.0000000000
       885       295  TIP3  H2            3.8698127181       13.6932205926       -4.9631159532  CLST         295          1.0000000000
       886       296  TIP3  OH2           2.8669820286        5.7021175099      -11.2253039519  CLST         296          1.0000000000
       887       296  TIP3  H1            2.9515158041        5.7779809424      -12.2232830551  CLST         296          1.0000000000
       888       296  TIP3  H2            1.9376785694        5.4369966840      -11.5690291619  CLST         296          1.0000000000
       889       297  TIP3  OH2          13.4483464543        0.0510695091        9.0963408720  CLST         297          1.0000000000
       890       297  TIP3  H1           13.7016889835        0.9678169075        8.9798415805  CLST         297          1.0000000000
       891       297  TIP3  H2           14.3825859489       -0.1519479943        9.0257569832  CLST         297          1.0000000000
       892       298  TIP3  OH2          12.2629813177       -5.1249748975      -12.4641013184  CLST         298          1.0000000000
       893       298  TIP3  H1           11.6379326845       -5.7652035441      -12.8403628338  CLST         298          1.0000000000
       894       298  TIP3  H2           12.7577161230       -5.9525497259      -12.3433090751  CLST         298          1.0000000000
       895       299  TIP3  OH2           3.3817687112       -5.7228556514       -7.5370790011  CLST         299          1.0000000000
       896       299  TIP3  H1            2.9397486525       -4.8442897891       -7.4554313341  CLST         299          1.0000000000
       897       299  TIP3  H2            3.9072209675       -5.3684607398       -6.8360199179  CLST         299          1.0000000000
       898       300  TIP3  OH2          10.3694453415       -6.6164804792      -13.7413730030  CLST         300          1.0000000000
       899       300  TIP3  H1           10.4282723461       -6.0277618997      -14.5959141274  CLST         300          1.0000000000
       900       300  TIP3  H2            9.4537517992       -6.5591977386      -13.5160928407  CLST         300          1.0000000000
       901       301  TIP3  OH2          11.0852672776       -6.7154988138        0.4149134821  CLST         301          1.0000000000
       902       301  TIP3  H1           10.9899256211       -6.1348944803       -0.3432673617  CLST         301          1.0000000000
       903       301  TIP3  H2           10.7105880344       -7.3178399800       -0.2680068960  CLST         301          1.0000000000
       904       302  TIP3  OH2          11.4577199900       -7.2939158973       11.8918611670  CLST         302          1.0000000000
       905       302  TIP3  H1           11.9184703058       -6.6812683684       11.3836595734  CLST         302          1.0000000000
       906       302  TIP3  H2           11.5770202282       -8.1104423373       11.3588696038  CLST         302          1.0000000000
       907       303  TIP3  OH2          -8.9011500493       11.7360032540        6.8782065341  CLST         303          1.0000000000
       908       303  TIP3  H1           -9.5182534471       11.8903454026        6.0887240814  CLST         303          1.0000000000
       909       303  TIP3  H2           -8.6558506489       12.6625410630        6.5629171738  CLST         303          1.0000000000
       910       304  TIP3  OH2          -1.8966516197        8.3042321833       -0.7920797704  CLST         304          1.0000000000
       911       304  TIP3  H1           -2.4471226069        7.7866759525       -0.1843576559  CLST         304          1.0000000000
       912       304  TIP3  H2           -2.7022768501        8.8250532416       -0.9556251488  CLST         304          1.0000000000
       913       305  TIP3  OH2          -2.5184287089       -6.2842776469      -10.3584438746  CLST         305          1.0000000000
       914       305  TIP3  H1           -1.9343199568       -5.4165765523      -10.7604127306  CLST         305          1.0000000000
       915       305  TIP3  H2           -1.4005204330       -6.2084553970      -10.6410888752  CLST         305          1.0000000000
       916       306  TIP3  OH2          -8.6132919472      -14.4610367653       -6.9430589375  CLST         306          1.0000000000
       917       306  TIP3  H1           -7.6683841274      -14.4993066824       -7.0633313967  CLST         306          1.0000000000
       918       306  TIP3  H2           -8.4000291795      -14.0330647524       -6.0816861034  CLST         306          1.0000000000
       919       307  TIP3  OH2           0.7578684918       10.2393715277      -14.2782933274  CLST         307          1.0000000000
       920       307  TIP3  H1            1.2353734287       10.8347579122      -13.6710638342  CLST         307          1.0000000000
       921       307  TIP3  H2            1.5959618095        9.7117490740      -14.2515199215  CLST         307          1.0000000000
       922       308  TIP3  OH2          12.4511802653       -3.2662755459       13.3712509802  CLST         308          1.0000000000
       923       308  TIP3  H1           12.5314208933       -3.0072294210       12.4614030500  CLST         308          1.0000000000
       924       308  TIP3  H2           13.2492082829       -3.8068991066       13.4665257043  CLST         308          1.0000000000
       925       309  TIP3  OH2          12.7268743140       12.4554811294       14.8714050205  CLST         309          1.0000000000
       926       309  TIP3  H1           12.1764639884       11.7511571056       14.5678219994  CLST         309          1.0000000000
       927       309  TIP3  H2           12.8317601535       12.7076344158       13.9836459499  CLST         309          1.0000000000
       928       310  TIP3  OH2           4.2238594398       14.5636176459       -6.5278706280  CLST         310          1.0000000000
       929       310  TIP3  H1            3.9216591336       14.9890923620       -7.5548811934  CLST         310          1.0000000000
       930       310  TIP3  H2            3.7533053477       14.0638928425       -7.1530870275  CLST         310          1.0000000000
       931       311  TIP3  OH2          -5.8826374447        5.9759870973       -5.2376284556  CLST         311          1.0000000000
       932       311  TIP3  H1           -6.7762276276        5.5086519499       -5.2538320416  CLST         311          1.0000000000
       933       311  TIP3  H2           -6.0205114979        5.8862434765       -6.2044106577  CLST         311          1.0000000000
       934       312  TIP3  OH2           5.1749187977       -8.7331375296        7.9518741394  CLST         312          1.0000000000
       935       312  TIP3  H1            5.0221196439       -7.8379294109        8.3575062679  CLST         312          1.0000000000
       936       312  TIP3  H2            6.0860380316       -8.3891757996        7.7043533580  CLST         312          1.0000000000
       937       313  TIP3  OH2          -2.3408852610        7.9456598559       11.1128337025  CLST         313          1.0000000000
       938       313  TIP3  H1           -3.0310434895        8.6085213038       10.7965421805  CLST         313          1.0000000000
       939       313  TIP3  H2           -3.0578162135        7.3152074423       10.8988237523  CLST         313          1.0000000000
       940       314  TIP3  OH2           9.6217668684       -2.3896032494       -1.9683389545  CLST         314          1.0000000000
       941       314  TIP3  H1            9.5105477355       -3.2714309180       -1.5225514386  CLST         314          1.0000000000
       942       314  TIP3  H2            8.9033822283       -2.2489311306       -1.3800473758  CLST         314          1.0000000000
       943       315  TIP3  OH2           4.3771425917       10.0671581779       -2.8452356408  CLST         315          1.0000000000
       944       315  TIP3  H1            3.7193175759        9.4310779899       -2.5440510777  CLST         315          1.0000000000
       945       315  TIP3  H2            4.1130561787       10.7692247658       -2.2153504779  CLST         315          1.0000000000
       946       316  TIP3  OH2          13.8876836925       -6.6537203426       -5.9294621140  CLST         316          1.0000000000
       947       316  TIP3  H1           12.9654029184       -6.5011186932       -5.6891699469  CLST         316          1.0000000000
       948       316  TIP3  H2           13.6910465097       -5.9481896358       -6.5339038654  CLST         316          1.0000000000
       949       317  TIP3  OH2          -2.9621422046      -10.0321879174       -2.6377636922  CLST         317          1.0000000000
       950       317  TIP3  H1           -2.9048750183      -10.0061829270       -3.6111776607  CLST         317          1.0000000000
       951       317  TIP3  H2           -2.0510650778       -9.6650652742       -2.7929223439  CLST         317          1.0000000000
       952       318  TIP3  OH2          -1.2190997034        9.6720125817       -4.9985105113  CLST         318          1.0000000000
       953       318  TIP3  H1           -2.0802995230        9.4772917261       -5.3584213794  CLST         318          1.0000000000
       954       318  TIP3  H2           -1.4369199312       10.6057759751       -4.9700974113  CLST         318          1.0000000000
       955       319  TIP3  OH2           6.2521789773       -8.0592904091       -2.1256665625  CLST         319          1.0000000000
       956       319  TIP3  H1            6.8785091210       -8.3823825005       -2.7730829737  CLST         319          1.0000000000
       957       319  TIP3  H2            6.5152742121       -8.7162087182       -1.4670580540  CLST         319          1.0000000000
       958       320  TIP3  OH2           5.8730438623       12.8147258222      -12.3432346314  CLST         320          1.0000000000
       959       320  TIP3  H1            6.1416713327       12.3662524488      -13.1772457712  CLST         320          1.0000000000
       960       320  TIP3  H2            6.5190804148       12.1080319625      -11.9930599067  CLST         320          1.0000000000
       961       321  TIP3  OH2           1.4823450899      -11.4447617017        9.2620480629  CLST         321          1.0000000000
       962       321  TIP3  H1            1.7669093809      -12.0340932673        9.9701657592  CLST         321          1.0000000000
       963       321  TIP3  H2            1.7856408887      -10.7840093443        9.8831817596  CLST         321          1.0000000000
       964       322  TIP3  OH2           0.9030099067        5.7581588550        9.9273652085  CLST         322          1.0000000000
       965       322  TIP3  H1            0.4511286349        6.3738470101        9.3517448252  CLST         322          1.0000000000
       966       322  TIP3  H2            0.0501840095        5.3550026617       10.1447966002  CLST         322          1.0000000000
       967       323  TIP3  OH2           8.1328525662        3.1869137911       12.8545542694  CLST         323          1.0000000000
       968       323  TIP3  H1            7.2108235828        2.9349914613       12.6996179346  CLST         323          1.0000000000
       969       323  TIP3  H2            8.1592377867        2.9453484607       11.8918961923  CLST         323          1.0000000000
       970       324  TIP3  OH2           6.5830787520        3.1259446304       -1.5846129202  CLST         324          1.0000000000
       971       324  TIP3  H1            6.1922540778        3.9923127648       -1.6049749943  CLST         324          1.0000000000
       972       324  TIP3  H2            6.1625421506        2.9828683865       -2.4509920796  CLST         324          1.0000000000
       973       325  TIP3  OH2         -12.3948906534       -8.5251132872       11.8244341992  CLST         325          1.0000000000
       974       325  TIP3  H1          -12.7160692727       -7.6558661023       11.4490018282  CLST         325          1.0000000000
       975       325  TIP3  H2          -11.6086411301       -7.9396277003       11.8453053874  CLST         325          1.0000000000
       976       326  TIP3  OH2         -12.3846498320        9.2737803434       -5.1683199061  CLST         326          1.0000000000
       977       326  TIP3  H1          -12.2734913237       10.2479793539       -5.1300334150  CLST         326          1.0000000000
       978       326  TIP3  H2          -11.7753928905        9.2422510089       -5.9420166351  CLST         326          1.0000000000
       979       327  TIP3  OH2          12.3825546398       -5.6586809851       10.0021032104  CLST         327          1.0000000000
       980       327  TIP3  H1           12.2372208701       -6.1364478422        9.1649968312  CLST         327          1.0000000000
       981       327  TIP3  H2           12.7669541737       -5.0307302362        9.4414061286  CLST         327          1.0000000000
       982       328  TIP3  OH2         -12.3972639964       -7.8597051496      -12.8663008748  CLST         328          1.0000000000
       983       328  TIP3  H1          -11.6139804458       -7.7911426502      -12.3183709989  CLST         328          1.0000000000
       984       328  TIP3  H2          -12.0850361564       -8.7526491134      -12.9564940987  CLST         328          1.0000000000
       985       329  TIP3  OH2           6.6566462798       -4.3963135057       -1.7690987361  CLST         329          1.0000000000
       986       329  TIP3  H1            6.1102496679       -3.9201453279       -1.0810713040  CLST         329          1.0000000000
       987       329  TIP3  H2            5.9563515412       -4.0285786467       -2.3306123159  CLST         329          1.0000000000
       988       330  TIP3  OH2          12.8782764603        5.9881058129      -14.3423863763  CLST         330          1.0000000000
       989       330  TIP3  H1           13.6705193470        6.0078954713      -14.8623014275  CLST         330          1.0000000000
       990       330  TIP3  H2           13.4932503587        5.9534557115      -13.5954899900  CLST         330          1.0000000000
       991       331  TIP3  OH2          -4.6821570910       -0.0562425308        6.1722292457  CLST         331          1.0000000000
       992       331  TIP3  H1           -4.4362165224        0.6687649218        5.5817064714  CLST         331          1.0000000000
       993       331  TIP3  H2           -5.6345998840        0.2053668565        6.1303348876  CLST         331          1.0000000000
       994       332  TIP3  OH2          -8.8254279780        9.0233000907       -2.0830231044  CLST         332          1.0000000000
       995       332  TIP3  H1           -9.4321382882        9.7707271443       -1.8175173334  CLST         332          1.0000000000
       996       332  TIP3  H2           -8.3784010943        9.2416669787       -1.2430166493  CLST         332          1.0000000000
       997       333  TIP3  OH2          -7.0242105842       -8.7596882067       -6.9107105125  CLST         333          1.0000000000
       998       333  TIP3  H1           -7.6245026263       -9.1562061498       -7.5583918974  CLST         333          1.0000000000
       999       333  TIP3  H2           -7.6334389581       -7.9780990275       -6.8338805674  CLST         333          1.0000000000
      1000       334  TIP3  OH2         -10.5994257730        8.1756585491       -9.4577289236  CLST         334          1.0000000000
      1001       334  TIP3  H1           -9.9863425936        8.8512133064       -9.6990372008  CLST         334          1.0000000000
      1002       334  TIP3  H2          -10.3501044314        8.3924409331       -8.5500846053  CLST         334          1.0000000000
      1003       335  TIP3  OH2           1.5526993772        0.0826848360       -1.1539996372  CLST         335          1.0000000000
      1004       335  TIP3  H1            1.2149716501       -0.7653310541       -0.7444322257  CLST         335          1.0000000000
      1005       335  TIP3  H2            0.7807821763        0.0870647990       -1.7521012787  CLST         335          1.0000000000
      1006       336  TIP3  OH2          11.5297221463        5.5200657090        1.5039444119  CLST         336          1.0000000000
      1007       336  TIP3  H1           10.6704243905        5.1552402596        1.1568463008  CLST         336          1.0000000000
      1008       336  TIP3  H2           11.0224016507        6.3389219727        1.1744802818  CLST         336          1.0000000000
      1009       337  TIP3  OH2           2.1105450106      -14.8970994179        5.2705960026  CLST         337          1.0000000000
      1010       337  TIP3  H1            2.0450387735      -14.0769677059        5.7735804180  CLST         337          1.0000000000
      1011       337  TIP3  H2            1.7457578802      -14.3205065594        4.5903208548  CLST         337          1.0000000000
      1012       338  TIP3  OH2          -4.4721744841        2.6132679053      -11.6473319430  CLST         338          1.0000000000
      1013       338  TIP3  H1           -5.3974197941        2.8124903176      -11.6172279310  CLST         338          1.0000000000
      1014       338  TIP3  H2           -4.7951749802        1.9931847577      -12.3222673603  CLST         338          1.0000000000
      1015       339  TIP3  OH2           5.0003301301        2.2150910662       -8.0446007061  CLST         339          1.0000000000
      1016       339  TIP3  H1            4.0266530535        2.3997127379       -8.0998147034  CLST         339          1.0000000000
      1017       339  TIP3  H2            4.9628144163        2.9115302597       -8.7375403290  CLST         339          1.0000000000
      1018       340  TIP3  OH2         -10.7075875019       12.0849191238       -8.7781955607  CLST         340          1.0000000000
      1019       340  TIP3  H1          -11.6364337179       11.8856968312       -8.9526177725  CLST         340          1.0000000000
      1020       340  TIP3  H2          -10.9501230303       12.9138225577       -8.2411856166  CLST         340          1.0000000000
      1021       341  TIP3  OH2          -1.7853850810       13.9427754656       -0.6787188372  CLST         341          1.0000000000
      1022       341  TIP3  H1           -1.1918054022       13.3131630831       -1.1722307891  CLST         341          1.0000000000
      1023       341  TIP3  H2           -2.3952811009       13.5528200422       -1.3599076424  CLST         341          1.0000000000
      1024       342  TIP3  OH2         -11.7326126745        3.4904518663        9.6120290046  CLST         342          1.0000000000
      1025       342  TIP3  H1          -12.3376859126        2.9956623658       10.1259952913  CLST         342          1.0000000000
      1026       342  TIP3  H2          -11.3845848859        3.7808672613       10.4616393483  CLST         342          1.0000000000
      1027       343  TIP3  OH2          -0.7607018573       -1.5712523818      -14.1421543692  CLST         343          1.0000000000
      1028       343  TIP3  H1           -1.2999790634       -0.7907903246      -14.0367461945  CLST         343          1.0000000000
      1029       343  TIP3  H2           -0.7829482524       -1.4583456204      -15.0824643579  CLST         343          1.0000000000
      1030       344  TIP3  OH2           9.0624624029        4.0434550650        4.2128014855  CLST         344          1.0000000000
      1031       344  TIP3  H1            8.6561322505        4.8708246228        4.4777973550  CLST         344          1.0000000000
      1032       344  TIP3  H2            8.1177111203        3.7951614703        4.3558917369  CLST         344          1.0000000000
      1033       345  TIP3  OH2           0.1785483037        9.8698740950       -0.2927373913  CLST         345          1.0000000000
      1034       345  TIP3  H1            0.7797021246        9.2112859851        0.1038349273  CLST         345          1.0000000000
      1035       345  TIP3  H2           -0.4771501371        9.1882475534       -0.1995701369  CLST         345          1.0000000000
      1036       346  TIP3  OH2          -4.7436859226      -14.7536450446        6.3508627353  CLST         346          1.0000000000
      1037       346  TIP3  H1           -5.1243585677      -13.9175665800        5.9904156392  CLST         346          1.0000000000
      1038       346  TIP3  H2           -4.4379187957      -14.1467708891        7.0135948296  CLST         346          1.0000000000
      1039       347  TIP3  OH2         -13.7351977406      -11.7000180650       -2.0408881425  CLST         347          1.0000000000
      1040       347  TIP3  H1          -13.7458470320      -11.0899500385       -2.8046548795  CLST         347          1.0000000000
      1041       347  TIP3  H2          -13.5037805804      -10.9504181736       -1.5115041869  CLST         347          1.0000000000
      1042       348  TIP3  OH2           4.2425024109        7.6118808681       -7.4872034725  CLST         348          1.0000000000
      1043       348  TIP3  H1            5.3212160387        7.5881643212       -7.1745280624  CLST         348          1.0000000000
      1044       348  TIP3  H2            4.6915951805        7.7997888013       -6.4402390338  CLST         348          1.0000000000
      1045       349  TIP3  OH2           8.2833444609        9.9521662545        2.5711590962  CLST         349          1.0000000000
      1046       349  TIP3  H1            8.5139558249       10.1302641618        1.6470742062  CLST         349          1.0000000000
      1047       349  TIP3  H2            7.5154090408        9.5388923143        2.1589039241  CLST         349          1.0000000000
      1048       350  TIP3  OH2          -8.7101865735        1.0019491357      -14.6465443022  CLST         350          1.0000000000
      1049       350  TIP3  H1           -9.0756373855        0.1250185726      -14.3916023895  CLST         350          1.0000000000
      1050       350  TIP3  H2           -9.6996066811        1.1402970652      -14.7710402418  CLST         350          1.0000000000
      1051       351  TIP3  OH2          10.2652813283        3.2623727296        6.0330292886  CLST         351          1.0000000000
      1052       351  TIP3  H1           10.4556793400        3.9314328335        5.3057138689  CLST         351          1.0000000000
      1053       351  TIP3  H2            9.9444313693        2.8529726140        5.2210030152  CLST         351          1.0000000000
      1054       352  TIP3  OH2           5.3117347558       -0.4050898324       -8.2864484185  CLST         352          1.0000000000
      1055       352  TIP3  H1            5.9473948719       -0.6678520655       -7.5461705698  CLST         352          1.0000000000
      1056       352  TIP3  H2            5.5034154840        0.5101271128       -7.9697465379  CLST         352          1.0000000000
      1057       353  TIP3  OH2          -1.6427308503        9.6181778898      -12.8089311818  CLST         353          1.0000000000
      1058       353  TIP3  H1           -0.8464009008        9.6333744943      -13.3770151134  CLST         353          1.0000000000
      1059       353  TIP3  H2           -1.6997134083        8.6730324657      -12.9231154815  CLST         353          1.0000000000
      1060       354  TIP3  OH2         -11.7558415932      -10.9463374034      -14.1290150087  CLST         354          1.0000000000
      1061       354  TIP3  H1          -12.1382033416      -11.0602156499      -14.9958910110  CLST         354          1.0000000000
      1062       354  TIP3  H2          -11.0334741594      -11.4732121116      -14.5056260741  CLST         354          1.0000000000
      1063       355  TIP3  OH2           1.8345089492      -13.5580752962       -9.7864905015  CLST         355          1.0000000000
      1064       355  TIP3  H1            1.7050414030      -13.2329951792       -8.8417817092  CLST         355          1.0000000000
      1065       355  TIP3  H2            1.3979736212      -12.6974835249       -9.9474592401  CLST         355          1.0000000000
      1066       356  TIP3  OH2         -12.9090463300       -5.1807718035       -3.1580938179  CLST         356          1.0000000000
      1067       356  TIP3  H1          -13.1589412725       -5.9980086131       -3.5927260121  CLST         356          1.0000000000
      1068       356  TIP3  H2          -13.4970443155       -4.8212269963       -3.8358476452  CLST         356          1.0000000000
      1069       357  TIP3  OH2          -6.7546857891       -9.5933101912        4.9872570849  CLST         357          1.0000000000
      1070       357  TIP3  H1           -5.8455720455       -9.8019450843        4.7679284235  CLST         357          1.0000000000
      1071       357  TIP3  H2           -6.5472642311       -8.7806983775        4.4652785807  CLST         357          1.0000000000
      1072       358  TIP3  OH2          -2.3237528361       -7.5924870713        3.9453508897  CLST         358          1.0000000000
      1073       358  TIP3  H1           -1.3534928893       -7.5741577292        3.9489873418  CLST         358          1.0000000000
      1074       358  TIP3  H2           -2.2838281288       -7.4114617283        4.9089646374  CLST         358          1.0000000000
      1075       359  TIP3  OH2          10.3107299956        9.9952834469       -1.7561385002  CLST         359          1.0000000000
      1076       359  TIP3  H1           10.1906087582       10.2211454524       -0.8429313619  CLST         359          1.0000000000
      1077       359  TIP3  H2           10.5073921736       10.9029365647       -1.8610399951  CLST         359          1.0000000000
      1078       360  TIP3  OH2           7.5193766386       13.0573354431       13.0275130070  CLST         360          1.0000000000
      1079       360  TIP3  H1            8.3531330109       13.3619792692       12.7085793876  CLST         360          1.0000000000
      1080       360  TIP3  H2            7.2125327907       12.9012244006       12.1187040364  CLST         360          1.0000000000
      1081       361  TIP3  OH2          -6.0700160459      -10.6508929556       10.3501911576  CLST         361          1.0000000000
      1082       361  TIP3  H1           -6.0392804367      -10.8602916537        9.4426777267  CLST         361          1.0000000000
      1083       361  TIP3  H2           -6.2504412844      -11.6126065132       10.3984799845  CLST         361          1.0000000000
      1084       362  TIP3  OH2           4.5547679714       -3.4441056945       10.3396727458  CLST         362          1.0000000000
      1085       362  TIP3  H1            5.0339500028       -3.0317099051        9.6002512634  CLST         362          1.0000000000
      1086       362  TIP3  H2            5.3685508514       -3.8638922122       10.6521566298  CLST         362          1.0000000000
      1087       363  TIP3  OH2           4.9646930343       -4.4872121570       14.0140934720  CLST         363          1.0000000000
      1088       363  TIP3  H1            4.8712950411       -4.7876779352       14.8861216366  CLST         363          1.0000000000
      1089       363  TIP3  H2            5.8279341765       -4.1125095498       14.1589149072  CLST         363          1.0000000000
      1090       364  TIP3  OH2          -1.1529725953        4.8488092794       13.3893872857  CLST         364          1.0000000000
      1091       364  TIP3  H1           -0.2519933444        4.6343648841       13.7802507432  CLST         364          1.0000000000
      1092       364  TIP3  H2           -0.8928592444        5.7659598559       13.3457115659  CLST         364          1.0000000000
      1093       365  TIP3  OH2          -7.7945846943        4.7450425592      -11.8057369532  CLST         365          1.0000000000
      1094       365  TIP3  H1           -8.0368865240        5.1716171643      -10.9557533740  CLST         365          1.0000000000
      1095       365  TIP3  H2           -6.9477781551        5.1610101561      -11.5431767748  CLST         365          1.0000000000
      1096       366  TIP3  OH2         -10.1599526357       -2.7239990755        0.7350635339  CLST         366          1.0000000000
      1097       366  TIP3  H1          -11.0057138261       -2.9734681674        1.0721801019  CLST         366          1.0000000000
      1098       366  TIP3  H2          -10.6738361604       -2.6379498110       -0.1007359072  CLST         366          1.0000000000
      1099       367  TIP3  OH2          13.6549688764       10.4909387328       11.8333864519  CLST         367          1.0000000000
      1100       367  TIP3  H1           13.2847222201       11.1873015706       11.3423178444  CLST         367          1.0000000000
      1101       367  TIP3  H2           12.8657035972       10.6727608829       12.4000093824  CLST         367          1.0000000000
      1102       368  TIP3  OH2          -9.8752521862       -1.2564547481       12.9216764404  CLST         368          1.0000000000
      1103       368  TIP3  H1          -10.7073250897       -1.1605376222       12.4932427119  CLST         368          1.0000000000
      1104       368  TIP3  H2           -9.7641761464       -2.2097480110       12.9767912723  CLST         368          1.0000000000
      1105       369  TIP3  OH2           7.7083911366        9.6519523571       -2.3762567346  CLST         369          1.0000000000
      1106       369  TIP3  H1            8.6745940993        9.6706369763       -2.4313655613  CLST         369          1.0000000000
      1107       369  TIP3  H2            7.6974092820        8.7300562327       -2.1511146802  CLST         369          1.0000000000
      1108       370  TIP3  OH2          -6.9180412697      -12.9719454841       -1.0719557704  CLST         370          1.0000000000
      1109       370  TIP3  H1           -6.0144937714      -13.3126242020       -0.7374553463  CLST         370          1.0000000000
      1110       370  TIP3  H2           -7.0857986371      -13.1909418849       -0.1208263948  CLST         370          1.0000000000
      1111       371  TIP3  OH2           8.7232434926       12.1867940512        9.7628607920  CLST         371          1.0000000000
      1112       371  TIP3  H1            8.7269454751       11.6066577463        8.9991293967  CLST         371          1.0000000000
      1113       371  TIP3  H2            7.7566812476       12.2187193004        9.8112332192  CLST         371          1.0000000000
      1114       372  TIP3  OH2          -1.0724467168       11.7091097048       -1.8840589538  CLST         372          1.0000000000
      1115       372  TIP3  H1           -1.8391156616       11.1352113275       -2.1417027245  CLST         372          1.0000000000
      1116       372  TIP3  H2           -0.8916510165       10.9120074350       -1.3304819058  CLST         372          1.0000000000
      1117       373  TIP3  OH2           8.7906790899       -5.5300057839        8.4746166701  CLST         373          1.0000000000
      1118       373  TIP3  H1            8.7568217554       -6.4658056024        8.7844251070  CLST         373          1.0000000000
      1119       373  TIP3  H2            9.6046222640       -5.8981158872        8.0757135297  CLST         373          1.0000000000
      1120       374  TIP3  OH2          11.2850927784       -9.9526764220       -4.6731545751  CLST         374          1.0000000000
      1121       374  TIP3  H1           11.0240339093      -10.2252934831       -3.7728819154  CLST         374          1.0000000000
      1122       374  TIP3  H2           11.1897972647      -10.8912830023       -4.9075487656  CLST         374          1.0000000000
      1123       375  TIP3  OH2           1.5814361375       13.6133313470       -3.0174648418  CLST         375          1.0000000000
      1124       375  TIP3  H1            1.5070818871       14.2366970454       -2.2657478230  CLST         375          1.0000000000
      1125       375  TIP3  H2            0.7219345934       14.0232630139       -3.2358964557  CLST         375          1.0000000000
      1126       376  TIP3  OH2          10.8019638620        4.2548323827       -8.7906307401  CLST         376          1.0000000000
      1127       376  TIP3  H1            9.8602634475        4.5039682956       -8.7242050057  CLST         376          1.0000000000
      1128       376  TIP3  H2           11.0178313266        4.8293489786       -9.5704884104  CLST         376          1.0000000000
      1129       377  TIP3  OH2           8.0094665962       11.1535585436      -11.9475341383  CLST         377          1.0000000000
      1130       377  TIP3  H1            8.9337577385       11.0023158734      -12.6374968197  CLST         377          1.0000000000
      1131       377  TIP3  H2            9.0255014377       10.8424469364      -11.6802641237  CLST         377          1.0000000000
      1132       378  TIP3  OH2           6.5160877292        9.3817476125        7.3530480623  CLST         378          1.0000000000
      1133       378  TIP3  H1            6.9197454011        8.5662209251        7.6404894840  CLST         378          1.0000000000
      1134       378  TIP3  H2            5.8889059098        9.3823859904        8.0945734050  CLST         378          1.0000000000
      1135       379  TIP3  OH2          -6.7512507058      -10.5897880403       -2.2262826566  CLST         379          1.0000000000
      1136       379  TIP3  H1           -6.1229340272      -10.8775840322       -2.9088098964  CLST         379          1.0000000000
      1137       379  TIP3  H2           -6.9238030619      -11.6021317955       -2.2746854943  CLST         379          1.0000000000
      1138       380  TIP3  OH2           7.6119642374       11.5946449487        4.7636838269  CLST         380          1.0000000000
      1139       380  TIP3  H1            6.7048406471       11.7290914826        4.4946499238  CLST         380          1.0000000000
      1140       380  TIP3  H2            7.6020076764       10.9529437830        4.0146225412  CLST         380          1.0000000000
      1141       381  TIP3  OH2          -7.5989768597       -6.8679221941      -10.1933645762  CLST         381          1.0000000000
      1142       381  TIP3  H1           -8.0047414536       -6.6949715245      -11.0301407378  CLST         381          1.0000000000
      1143       381  TIP3  H2           -6.7611144041       -6.4703370959      -10.4482905200  CLST         381          1.0000000000
      1144       382  TIP3  OH2          -3.3827977927        2.4978958027       -2.0818648940  CLST         382          1.0000000000
      1145       382  TIP3  H1           -3.9986750859        2.6310968297       -2.8376621158  CLST         382          1.0000000000
      1146       382  TIP3  H2           -3.6268591538        1.5669847734       -2.3384056847  CLST         382          1.0000000000
      1147       383  TIP3  OH2          -7.5927258746       -9.4438418944        8.5254275652  CLST         383          1.0000000000
      1148       383  TIP3  H1           -6.6191830267       -9.2508972879        8.6775687398  CLST         383          1.0000000000
      1149       383  TIP3  H2           -7.1745222050      -10.1479614734        8.0072270994  CLST         383          1.0000000000
      1150       384  TIP3  OH2         -11.7789618435       -5.4361483532       13.3700874054  CLST         384          1.0000000000
      1151       384  TIP3  H1          -11.6992940413       -6.2902205201       13.7446870667  CLST         384          1.0000000000
      1152       384  TIP3  H2          -12.2280298371       -5.7398670747       12.6144899383  CLST         384          1.0000000000
      1153       385  TIP3  OH2           7.7999827427        0.4305855079        9.0553047924  CLST         385          1.0000000000
      1154       385  TIP3  H1            7.8211991686        1.1928169646        9.8432333960  CLST         385          1.0000000000
      1155       385  TIP3  H2            8.5111228659        0.4388338290        9.9205279131  CLST         385          1.0000000000
      1156       386  TIP3  OH2         -12.5176507293       -8.6802311100        8.3447106508  CLST         386          1.0000000000
      1157       386  TIP3  H1          -12.3557150744       -7.7364495854        8.4546487039  CLST         386          1.0000000000
      1158       386  TIP3  H2          -11.8560148297       -8.7713924161        9.0151644742  CLST         386          1.0000000000
      1159       387  TIP3  OH2          -0.9863610597      -12.8197781955       -1.0409388194  CLST         387          1.0000000000
      1160       387  TIP3  H1           -1.2210400417      -13.5620402434       -0.1478637572  CLST         387          1.0000000000
      1161       387  TIP3  H2           -1.5478376720      -12.4373465175       -0.3695759354  CLST         387          1.0000000000
      1162       388  TIP3  OH2           3.3006132521        7.1700685676        7.1092030234  CLST         388          1.0000000000
      1163       388  TIP3  H1            2.8337953156        7.1436889293        6.2421090444  CLST         388          1.0000000000
      1164       388  TIP3  H2            4.0767694069        7.1562970434        6.5106311054  CLST         388          1.0000000000
      1165       389  TIP3  OH2          -3.6837431210      -11.0833700276       -0.1657765202  CLST         389          1.0000000000
      1166       389  TIP3  H1           -4.6031401308      -10.8503832197       -0.2472058064  CLST         389          1.0000000000
      1167       389  TIP3  H2           -3.6174435056      -10.6835788498       -1.0617219657  CLST         389          1.0000000000
      1168       390  TIP3  OH2          -0.9548328863        4.9349654067        4.5709560239  CLST         390          1.0000000000
      1169       390  TIP3  H1           -0.4030248567        4.4850557471        5.2433803189  CLST         390          1.0000000000
      1170       390  TIP3  H2           -0.6271753133        4.2063480770        4.0174071569  CLST         390          1.0000000000
      1171       391  TIP3  OH2          -6.0119311360       -4.8887670624        1.6520850516  CLST         391          1.0000000000
      1172       391  TIP3  H1           -5.9798952653       -4.0735660145        1.1568245979  CLST         391          1.0000000000
      1173       391  TIP3  H2           -6.9536665263       -4.7722366723        1.8134791096  CLST         391          1.0000000000
      1174       392  TIP3  OH2           4.9607101249        9.1770693936       -5.3878592315  CLST         392          1.0000000000
      1175       392  TIP3  H1            5.7698209770        8.8326746349       -4.9545454202  CLST         392          1.0000000000
      1176       392  TIP3  H2            4.7773566375        9.5438262667       -4.4943345960  CLST         392          1.0000000000
      1177       393  TIP3  OH2          13.2692127977       11.1452037391       -7.8941163669  CLST         393          1.0000000000
      1178       393  TIP3  H1           13.1163469065       10.2386916716       -8.2670822430  CLST         393          1.0000000000
      1179       393  TIP3  H2           12.6665797150       10.8965770606       -7.1235666951  CLST         393          1.0000000000
      1180       394  TIP3  OH2           1.3575778011        6.7552561106        5.4080584870  CLST         394          1.0000000000
      1181       394  TIP3  H1            0.7811856931        6.9750168523        4.6173516673  CLST         394          1.0000000000
      1182       394  TIP3  H2            1.5320579160        6.0124996534        4.8186907157  CLST         394          1.0000000000
      1183       395  TIP3  OH2          -6.1541559243        7.1837454060        0.1504660944  CLST         395          1.0000000000
      1184       395  TIP3  H1           -5.7875885380        6.4701289899        0.6568356925  CLST         395          1.0000000000
      1185       395  TIP3  H2           -5.2968370777        7.5891508429        0.3248310006  CLST         395          1.0000000000
      1186       396  TIP3  OH2          -3.4761058669        9.3852226937       -2.4641343018  CLST         396          1.0000000000
      1187       396  TIP3  H1           -3.5625422539        8.7186145660       -3.1843463791  CLST         396          1.0000000000
      1188       396  TIP3  H2           -4.3847177837        9.5828639875       -2.7149613479  CLST         396          1.0000000000
      1189       397  TIP3  OH2           2.5904671581      -12.8413204268      -13.3313962361  CLST         397          1.0000000000
      1190       397  TIP3  H1            1.9966941804      -12.1471457852      -13.4468036675  CLST         397          1.0000000000
      1191       397  TIP3  H2            3.0407627456      -12.2641298434      -12.7254782494  CLST         397          1.0000000000
      1192       398  TIP3  OH2           8.6673956214       -4.4162914172        0.8667086081  CLST         398          1.0000000000
      1193       398  TIP3  H1            8.6715299327       -5.2770813303        0.4987281400  CLST         398          1.0000000000
      1194       398  TIP3  H2            7.9934626870       -4.3289584737        0.1304410353  CLST         398          1.0000000000
      1195       399  TIP3  OH2         -14.3617504402       -2.9814069017       13.1742968573  CLST         399          1.0000000000
      1196       399  TIP3  H1          -14.8057515590       -3.7965765157       13.4597452911  CLST         399          1.0000000000
      1197       399  TIP3  H2          -14.1049640801       -2.9155589281       14.0647090273  CLST         399          1.0000000000
      1198       400  TIP3  OH2         -13.2288538115        8.6906737804        4.4652521997  CLST         400          1.0000000000
      1199       400  TIP3  H1          -13.6100980573        9.1869837236        5.1848889840  CLST         400          1.0000000000
      1200       400  TIP3  H2          -13.1553581446        8.0021183015        5.1279196648  CLST         400          1.0000000000
      1201       401  TIP3  OH2           1.5599713929        5.3253338617      -13.5772950948  CLST         401          1.0000000000
      1202       401  TIP3  H1            1.5533591409        5.2148452637      -14.5650326005  CLST         401          1.0000000000
      1203       401  TIP3  H2            0.9672868429        6.1002033977      -13.6575904231  CLST         401          1.0000000000
      1204       402  TIP3  OH2          14.4439777168       -5.1076724618       14.1665931616  CLST         402          1.0000000000
      1205       402  TIP3  H1           13.8844517799       -5.9698052216       14.1151260134  CLST         402          1.0000000000
      1206       402  TIP3  H2           14.8719782121       -5.5604920535       14.9087374927  CLST         402          1.0000000000
      1207       403  TIP3  OH2         -12.9715171225       12.1535315394       -2.6676062999  CLST         403          1.0000000000
      1208       403  TIP3  H1          -13.6908262324       11.8217837333       -3.5957954042  CLST         403          1.0000000000
      1209       403  TIP3  H2          -12.9116987334       12.3400977175       -3.9965035193  CLST         403          1.0000000000
      1210       404  TIP3  OH2           5.3961090867       -3.1294668258        0.4200119950  CLST         404          1.0000000000
      1211       404  TIP3  H1            4.6433787753       -2.6426794756        0.7489753523  CLST         404          1.0000000000
      1212       404  TIP3  H2            5.4226597646       -3.4664542480        1.3033489242  CLST         404          1.0000000000
      1213       405  TIP3  OH2           2.3744466768        8.4619637595       -3.2530829648  CLST         405          1.0000000000
      1214       405  TIP3  H1            1.8607920463        9.3184435449       -3.1763002059  CLST         405          1.0000000000
      1215       405  TIP3  H2            1.4575192406        8.0774998429       -3.0703419563  CLST         405          1.0000000000
      1216       406  TIP3  OH2          -9.0667374929       -2.5164201660       -7.4607717287  CLST         406          1.0000000000
      1217       406  TIP3  H1           -8.6151356875       -1.7660336277       -7.0433572537  CLST         406          1.0000000000
      1218       406  TIP3  H2           -9.8449254746       -2.0301867278       -7.1193433820  CLST         406          1.0000000000
      1219       407  TIP3  OH2           5.3609610476        5.7328920958        4.7946805535  CLST         407          1.0000000000
      1220       407  TIP3  H1            6.3119252260        5.8995291313        5.0707988340  CLST         407          1.0000000000
      1221       407  TIP3  H2            5.7452661694        6.0354460635        3.9882388996  CLST         407          1.0000000000
      1222       408  TIP3  OH2         -13.9790556402       -4.5640128272       -5.5477856796  CLST         408          1.0000000000
      1223       408  TIP3  H1          -13.8506135027       -3.5757570259       -5.6726627024  CLST         408          1.0000000000
      1224       408  TIP3  H2          -14.2209617834       -4.7050738539       -6.4891317017  CLST         408          1.0000000000
      1225       409  TIP3  OH2          -2.1775927889      -12.7388484757        1.3137154798  CLST         409          1.0000000000
      1226       409  TIP3  H1           -2.6475128185      -13.0278671641        2.1354207319  CLST         409          1.0000000000
      1227       409  TIP3  H2           -1.6542888815      -12.1606392048        1.9827670085  CLST         409          1.0000000000
      1228       410  TIP3  OH2          12.5475112882       -2.1404404497       10.8688242573  CLST         410          1.0000000000
      1229       410  TIP3  H1           12.3648993540       -1.5158516636       10.0736631220  CLST         410          1.0000000000
      1230       410  TIP3  H2           13.0399384881       -2.5840984511       10.1604015549  CLST         410          1.0000000000
      1231       411  TIP3  OH2           8.5760940310      -13.6107190216       -2.4729720151  CLST         411          1.0000000000
      1232       411  TIP3  H1            8.3974474129      -13.8976103573       -1.5700655612  CLST         411          1.0000000000
      1233       411  TIP3  H2            7.7024792689      -13.8611507089       -2.7635136566  CLST         411          1.0000000000
      1234       412  TIP3  OH2          13.3815507038       -4.5057003260       -7.5183467653  CLST         412          1.0000000000
      1235       412  TIP3  H1           12.6686421207       -4.2935752870       -8.1701905142  CLST         412          1.0000000000
      1236       412  TIP3  H2           12.7765694730       -3.9787903482       -6.9344517579  CLST         412          1.0000000000
      1237       413  TIP3  OH2           7.4786333674        8.3897845190       -5.2097601140  CLST         413          1.0000000000
      1238       413  TIP3  H1            7.6670972828        8.1355012657       -4.2998722641  CLST         413          1.0000000000
      1239       413  TIP3  H2            8.4552841249        8.5214944256       -5.3523502767  CLST         413          1.0000000000
      1240       414  TIP3  OH2          -9.2291883487       -5.2492036632      -11.9164658996  CLST         414          1.0000000000
      1241       414  TIP3  H1           -8.4400319300       -4.4199805450      -12.0232826869  CLST         414          1.0000000000
      1242       414  TIP3  H2           -9.3788957801       -4.4630299490      -11.3403596388  CLST         414          1.0000000000
      1243       415  TIP3  OH2         -14.4949869679        0.8778856207        5.3970063087  CLST         415          1.0000000000
      1244       415  TIP3  H1          -14.6799394831        1.7876014677        5.5731051498  CLST         415          1.0000000000
      1245       415  TIP3  H2          -13.8347730155        0.8447357788        6.0762840696  CLST         415          1.0000000000
      1246       416  TIP3  OH2          11.5339172010       12.3100087233       -2.2925604208  CLST         416          1.0000000000
      1247       416  TIP3  H1           12.1445896710       12.5228734975       -3.0270290454  CLST         416          1.0000000000
      1248       416  TIP3  H2           10.9470489183       12.7841311320       -2.9140167577  CLST         416          1.0000000000
      1249       417  TIP3  OH2          10.6024877691      -12.5787884927       -5.2810609330  CLST         417          1.0000000000
      1250       417  TIP3  H1           10.2354926619      -13.2615371345       -4.7462903747  CLST         417          1.0000000000
      1251       417  TIP3  H2            9.8037222820      -12.6586206565       -5.7866965506  CLST         417          1.0000000000
      1252       418  TIP3  OH2          -1.7693499276        5.4339985904        0.9534624660  CLST         418          1.0000000000
      1253       418  TIP3  H1           -2.3114426994        5.2510749811        0.1216017533  CLST         418          1.0000000000
      1254       418  TIP3  H2           -2.6819374967        5.3586961443        1.2862344672  CLST         418          1.0000000000
      1255       419  TIP3  OH2          -8.2692635459        9.5413491111        7.9988935164  CLST         419          1.0000000000
      1256       419  TIP3  H1           -7.9852308145       10.3573944307        7.6011343730  CLST         419          1.0000000000
      1257       419  TIP3  H2           -9.1244922760       10.0674637346        7.9085136957  CLST         419          1.0000000000
      1258       420  TIP3  OH2           3.3351895845        9.1150717020      -14.2870824771  CLST         420          1.0000000000
      1259       420  TIP3  H1            3.9581588981        9.0582751288      -13.5285357609  CLST         420          1.0000000000
      1260       420  TIP3  H2            3.5848727574        8.1474619952      -14.4230007952  CLST         420          1.0000000000
      1261       421  TIP3  OH2          -3.9076723129        7.0580042627       -3.7285716544  CLST         421          1.0000000000
      1262       421  TIP3  H1           -4.6951176084        6.5179834123       -4.0198565617  CLST         421          1.0000000000
      1263       421  TIP3  H2           -3.8335100190        6.2973189167       -3.1027232341  CLST         421          1.0000000000
      1264       422  TIP3  OH2           3.1059273240      -10.4377386130       -2.5372267999  CLST         422          1.0000000000
      1265       422  TIP3  H1            2.3684124196      -10.9551390488       -2.1514081316  CLST         422          1.0000000000
      1266       422  TIP3  H2            3.0818122041      -10.0619869748       -1.6205221316  CLST         422          1.0000000000
      1267       423  TIP3  OH2          -5.5346537919        5.1313859555        1.8675104447  CLST         423          1.0000000000
      1268       423  TIP3  H1           -5.0239512378        4.3485456482        1.5651889067  CLST         423          1.0000000000
      1269       423  TIP3  H2           -4.7488993219        5.0218439251        2.5327720949  CLST         423          1.0000000000
      1270       424  TIP3  OH2          -9.5355840525        8.4920265981        4.7253898359  CLST         424          1.0000000000
      1271       424  TIP3  H1           -9.5082415738        9.0608437635        3.9642104616  CLST         424          1.0000000000
      1272       424  TIP3  H2           -9.8947693177        7.8576863348        4.0967687173  CLST         424          1.0000000000
      1273       425  TIP3  OH2          -9.7644067361        2.4859482962       -9.0750484625  CLST         425          1.0000000000
      1274       425  TIP3  H1          -10.1702440562        1.6497716991       -8.9156951531  CLST         425          1.0000000000
      1275       425  TIP3  H2          -10.6045463937        2.8676852426       -8.7797605099  CLST         425          1.0000000000
      1276       426  TIP3  OH2          -1.0669797222       -9.1381753270       -4.2144451589  CLST         426          1.0000000000
      1277       426  TIP3  H1           -0.0962599256       -9.3051245476       -4.3463481583  CLST         426          1.0000000000
      1278       426  TIP3  H2           -1.0362331558       -9.3276105285       -5.2055710576  CLST         426          1.0000000000
      1279       427  TIP3  OH2          -9.8519720822        2.0654517159        5.2802743902  CLST         427          1.0000000000
      1280       427  TIP3  H1           -9.8042846107        3.0815564254        5.3264001905  CLST         427          1.0000000000
      1281       427  TIP3  H2          -10.7028659283        2.0691225498        5.7414459080  CLST         427          1.0000000000
      1282       428  TIP3  OH2          -6.5706421029       13.6690369423        6.8700919809  CLST         428          1.0000000000
      1283       428  TIP3  H1           -6.0803368583       14.3999739628        6.5260808337  CLST         428          1.0000000000
      1284       428  TIP3  H2           -6.4897147384       13.1316388416        6.0582972151  CLST         428          1.0000000000
      1285       429  TIP3  OH2           0.2027972617      -11.6875395276      -10.8043687231  CLST         429          1.0000000000
      1286       429  TIP3  H1           -0.6813345741      -12.1524455339      -11.0341484648  CLST         429          1.0000000000
      1287       429  TIP3  H2           -0.0963311706      -11.2586643269       -9.9905052817  CLST         429          1.0000000000
      1288       430  TIP3  OH2           0.6830055199        9.9824019903       10.1671482476  CLST         430          1.0000000000
      1289       430  TIP3  H1            0.1694226399       10.6152876033       10.6872092892  CLST         430          1.0000000000
      1290       430  TIP3  H2            1.1102792343        9.8807979746       11.0358513415  CLST         430          1.0000000000
      1291       431  TIP3  OH2          -6.0550001645       -3.4628206289       -4.0079886978  CLST         431          1.0000000000
      1292       431  TIP3  H1           -5.5057617331       -3.3758990982       -4.7745197201  CLST         431          1.0000000000
      1293       431  TIP3  H2           -6.6746996072       -3.8900284735       -4.6097018471  CLST         431          1.0000000000
      1294       432  TIP3  OH2          -5.4250441913        3.6893905820       -3.6039728164  CLST         432          1.0000000000
      1295       432  TIP3  H1           -6.1064447922        3.4765125159       -4.2253087019  CLST         432          1.0000000000
      1296       432  TIP3  H2           -5.7914356938        4.3356829903       -2.9564495100  CLST         432          1.0000000000
      1297       433  TIP3  OH2          -8.9734782741        3.2581930251       10.3089819726  CLST         433          1.0000000000
      1298       433  TIP3  H1           -8.2140938226        3.8245972223       10.3626659712  CLST         433          1.0000000000
      1299       433  TIP3  H2           -9.2347441056        3.6001997512       11.1580617254  CLST         433          1.0000000000
      1300       434  TIP3  OH2           0.9770608120       -4.1095584798        9.7260369765  CLST         434          1.0000000000
      1301       434  TIP3  H1            0.2235935363       -3.9394660001       10.3464489250  CLST         434          1.0000000000
      1302       434  TIP3  H2            1.3254538893       -3.1943681035        9.7347051989  CLST         434          1.0000000000
      1303       435  TIP3  OH2           7.4164801968       -8.2894822151        6.3283177396  CLST         435          1.0000000000
      1304       435  TIP3  H1            7.8599743970       -8.3875091411        5.4989212871  CLST         435          1.0000000000
      1305       435  TIP3  H2            6.7926431751       -7.7587413599        5.8271168146  CLST         435          1.0000000000
      1306       436  TIP3  OH2          -6.8267242790       14.1815642321       -1.9802359277  CLST         436          1.0000000000
      1307       436  TIP3  H1           -6.5540551983       15.0829379371       -2.0886801548  CLST         436          1.0000000000
      1308       436  TIP3  H2           -7.2119956733       14.4651887199       -1.1519666960  CLST         436          1.0000000000
      1309       437  TIP3  OH2          -0.8659474392      -13.3033525571        5.4751234204  CLST         437          1.0000000000
      1310       437  TIP3  H1           -1.6228871008      -12.6974953002        5.3781484359  CLST         437          1.0000000000
      1311       437  TIP3  H2           -0.3331279359      -12.5064498492        5.5055297585  CLST         437          1.0000000000
      1312       438  TIP3  OH2         -12.2523444776       -1.1006083829       -3.1409675701  CLST         438          1.0000000000
      1313       438  TIP3  H1          -12.0527905143       -1.7951692664       -2.4720566711  CLST         438          1.0000000000
      1314       438  TIP3  H2          -12.6748639552       -0.6190322815       -2.4284497512  CLST         438          1.0000000000
      1315       439  TIP3  OH2          -3.9913393332       -3.6930779583        3.4451923846  CLST         439          1.0000000000
      1316       439  TIP3  H1           -4.7890382945       -3.5344075827        4.0206209520  CLST         439          1.0000000000
      1317       439  TIP3  H2           -4.7081915630       -4.1183355701        2.8800227116  CLST         439          1.0000000000
      1318       440  TIP3  OH2          -9.9618732655      -11.5303914429       12.2557291448  CLST         440          1.0000000000
      1319       440  TIP3  H1          -10.3133089319      -11.0622804581       11.4528903955  CLST         440          1.0000000000
      1320       440  TIP3  H2           -9.2020564772      -11.6136381378       11.6755357773  CLST         440          1.0000000000
      1321       441  TIP3  OH2         -14.4382096700        3.5922579202        7.2605793633  CLST         441          1.0000000000
      1322       441  TIP3  H1          -14.6321453651        4.5748214603        7.3551282284  CLST         441          1.0000000000
      1323       441  TIP3  H2          -14.8287234133        3.8289447639        6.3881022021  CLST         441          1.0000000000
      1324       442  TIP3  OH2           9.4343209537        0.7051393998      -12.2866620087  CLST         442          1.0000000000
      1325       442  TIP3  H1            9.7014780263       -0.1696310899      -11.9722894039  CLST         442          1.0000000000
      1326       442  TIP3  H2           10.2026859994        0.5911992925      -12.8743654187  CLST         442          1.0000000000
      1327       443  TIP3  OH2           8.0132576013       -8.3132295024        3.7740924931  CLST         443          1.0000000000
      1328       443  TIP3  H1            8.8211581427       -7.8770160952        3.4548572342  CLST         443          1.0000000000
      1329       443  TIP3  H2            7.6236276720       -7.7473867900        3.0382172777  CLST         443          1.0000000000
      1330       444  TIP3  OH2          12.8840265792        8.2780125749       -0.3799564688  CLST         444          1.0000000000
      1331       444  TIP3  H1           13.2317078081        9.0970728189       -0.0469509582  CLST         444          1.0000000000
      1332       444  TIP3  H2           13.6123847608        7.8551023681        0.0749316613  CLST         444          1.0000000000
      1333       445  TIP3  OH2          -8.8673427905       -9.6846988603       14.2001558428  CLST         445          1.0000000000
      1334       445  TIP3  H1           -8.2378604622       -9.5289204172       13.5559132347  CLST         445          1.0000000000
      1335       445  TIP3  H2           -8.6233790764       -8.9068303903       14.6499299015  CLST         445          1.0000000000
      1336       446  TIP3  OH2          12.7538703121       10.7796952282        0.1182522301  CLST         446          1.0000000000
      1337       446  TIP3  H1           12.2374550850       11.3848835274        0.6878896045  CLST         446          1.0000000000
      1338       446  TIP3  H2           12.2667120345       11.2984698567       -0.5528699263  CLST         446          1.0000000000
      1339       447  TIP3  OH2          -3.4992109147       13.5341588367        4.9529025598  CLST         447          1.0000000000
      1340       447  TIP3  H1           -4.0345705034       14.2720694636        5.2964865426  CLST         447          1.0000000000
      1341       447  TIP3  H2           -4.3524017607       13.0573988872        4.7619686455  CLST         447          1.0000000000
      1342       448  TIP3  OH2         -10.7290749742        9.1323025079      -12.8248528727  CLST         448          1.0000000000
      1343       448  TIP3  H1          -10.1164799395        9.4295347006      -12.1723924168  CLST         448          1.0000000000
      1344       448  TIP3  H2          -10.1274018759        8.4658275280      -13.0750814264  CLST         448          1.0000000000
      1345       449  TIP3  OH2           5.2682423751       -7.9473162027       -5.7719803385  CLST         449          1.0000000000
      1346       449  TIP3  H1            5.4195677484       -8.7237498721       -5.2763017593  CLST         449          1.0000000000
      1347       449  TIP3  H2            4.8570185640       -7.6402670289       -4.9814774597  CLST         449          1.0000000000
      1348       450  TIP3  OH2           4.8631111531       10.1547071831       11.4678432772  CLST         450          1.0000000000
      1349       450  TIP3  H1            5.7642476702        9.7925289399       11.5482112131  CLST         450          1.0000000000
      1350       450  TIP3  H2            4.7238922167        9.7385766627       10.5524353610  CLST         450          1.0000000000
      1351       451  TIP3  OH2         -12.6561796675       11.0068263531      -12.6237904545  CLST         451          1.0000000000
      1352       451  TIP3  H1          -12.3465166749       11.4194695297      -13.4443750664  CLST         451          1.0000000000
      1353       451  TIP3  H2          -11.8517268749       10.4866191102      -12.7896673726  CLST         451          1.0000000000
      1354       452  TIP3  OH2         -10.0667383818       14.7530291507        1.5457159548  CLST         452          1.0000000000
      1355       452  TIP3  H1          -10.7646801442       14.1536513545        1.8596275040  CLST         452          1.0000000000
      1356       452  TIP3  H2          -10.7977077505       15.1005903373        1.0338900622  CLST         452          1.0000000000
      1357       453  TIP3  OH2          -3.2174736401       -8.5849863806      -13.5788609693  CLST         453          1.0000000000
      1358       453  TIP3  H1           -4.1299522149       -8.8932930753      -13.4382217562  CLST         453          1.0000000000
      1359       453  TIP3  H2           -3.2089279991       -9.1550994003      -14.3998801061  CLST         453          1.0000000000
      1360       454  TIP3  OH2          13.5569930919      -13.1008469046       11.1988198084  CLST         454          1.0000000000
      1361       454  TIP3  H1           14.2442716071      -13.4280514350       11.8253045439  CLST         454          1.0000000000
      1362       454  TIP3  H2           13.8204563076      -12.2373719359       11.5092462490  CLST         454          1.0000000000
      1363       455  TIP3  OH2         -13.4748000396       -9.8590412400       -4.2396891022  CLST         455          1.0000000000
      1364       455  TIP3  H1          -13.5366144792       -8.8682721819       -4.2501920665  CLST         455          1.0000000000
      1365       455  TIP3  H2          -12.5888074360       -9.6106533158       -3.9534874316  CLST         455          1.0000000000
      1366       456  TIP3  OH2          -8.0506669441        7.1108896429        6.6332013729  CLST         456          1.0000000000
      1367       456  TIP3  H1           -8.2441842632        7.8833485076        7.2041613185  CLST         456          1.0000000000
      1368       456  TIP3  H2           -8.4014980276        7.7308493612        5.9320649854  CLST         456          1.0000000000
      1369       457  TIP3  OH2          -4.0157633541      -13.0313459901        8.2888307471  CLST         457          1.0000000000
      1370       457  TIP3  H1           -3.8388560500      -13.1369280654        9.2288201775  CLST         457          1.0000000000
      1371       457  TIP3  H2           -3.1028663239      -13.3208618685        8.2892261903  CLST         457          1.0000000000
      1372       458  TIP3  OH2          -2.3898099889       12.0560957872      -11.4449570677  CLST         458          1.0000000000
      1373       458  TIP3  H1           -3.3076532410       12.2980613366      -11.5889000009  CLST         458          1.0000000000
      1374       458  TIP3  H2           -2.5352471487       11.3017587277      -11.9820787659  CLST         458          1.0000000000
      1375       459  TIP3  OH2         -13.5954448106        7.0672519918       -3.9834265649  CLST         459          1.0000000000
      1376       459  TIP3  H1          -13.6821641224        7.6511860091       -3.1702321597  CLST         459          1.0000000000
      1377       459  TIP3  H2          -13.2735499550        7.8486700085       -4.4905533668  CLST         459          1.0000000000
      1378       460  TIP3  OH2           7.2024511917        9.6462337540      -13.8941392757  CLST         460          1.0000000000
      1379       460  TIP3  H1            6.7518323685        9.6809564303      -13.0057578615  CLST         460          1.0000000000
      1380       460  TIP3  H2            6.7062593230       10.4354322974      -14.0937662237  CLST         460          1.0000000000
      1381       461  TIP3  OH2           0.3980725526        7.7004360720      -12.8664393468  CLST         461          1.0000000000
      1382       461  TIP3  H1           -0.3989619860        7.3455874819      -12.4551398803  CLST         461          1.0000000000
      1383       461  TIP3  H2            0.5732718874        8.2318346174      -12.0757019735  CLST         461          1.0000000000
      1384       462  TIP3  OH2           4.3142819376        7.7199491114      -10.2708414610  CLST         462          1.0000000000
      1385       462  TIP3  H1            3.4614644012        7.1864056293      -10.2574913062  CLST         462          1.0000000000
      1386       462  TIP3  H2            4.1787404778        7.5254451158       -9.2909374442  CLST         462          1.0000000000
      1387       463  TIP3  OH2          -1.1658627325      -11.5280591593       -8.2226893890  CLST         463          1.0000000000
      1388       463  TIP3  H1           -2.0526013222      -11.7994312269       -8.5882372135  CLST         463          1.0000000000
      1389       463  TIP3  H2           -1.5390376661      -11.8021530910       -7.3355346221  CLST         463          1.0000000000
      1390       464  TIP3  OH2          -2.1686398110        2.5312123813       14.2426819551  CLST         464          1.0000000000
      1391       464  TIP3  H1           -2.8946630041        2.4032722568       13.6107207775  CLST         464          1.0000000000
      1392       464  TIP3  H2           -2.2266606599        3.4421831054       13.8792948136  CLST         464          1.0000000000
      1393       465  TIP3  OH2         -14.6502728267        6.1546141797        8.1611750629  CLST         465          1.0000000000
      1394       465  TIP3  H1          -14.7455323847        5.9864318457        9.0783449714  CLST         465          1.0000000000
      1395       465  TIP3  H2          -14.7376660886        7.1153716421        8.3238335331  CLST         465          1.0000000000
      1396       466  TIP3  OH2          -4.1387299176      -13.4210655722        3.0791219860  CLST         466          1.0000000000
      1397       466  TIP3  H1           -4.6414708610      -14.2592807767        3.0642012758  CLST         466          1.0000000000
      1398       466  TIP3  H2           -4.9671852421      -13.1246896349        2.7071805895  CLST         466          1.0000000000
      1399       467  TIP3  OH2           4.3602781323       14.6784459551        8.0695156957  CLST         467          1.0000000000
      1400       467  TIP3  H1            5.2052714722       14.4228526883        8.4359774759  CLST         467          1.0000000000
      1401       467  TIP3  H2            4.0293977609       14.7256093428        8.9778641975  CLST         467          1.0000000000
      1402       468  TIP3  OH2          -8.4844984635       -0.9721623279        1.9696687920  CLST         468          1.0000000000
      1403       468  TIP3  H1           -8.8729283253       -1.1407673982        2.8246933838  CLST         468          1.0000000000
      1404       468  TIP3  H2           -9.2023922618       -1.4155801826        1.4929459007  CLST         468          1.0000000000
      1405       469  TIP3  OH2           7.0303102094        0.8588990953       14.6719490138  CLST         469          1.0000000000
      1406       469  TIP3  H1            6.1947254361        0.8732338045       14.2071348159  CLST         469          1.0000000000
      1407       469  TIP3  H2            7.1130434708        1.7693413228       14.4017824210  CLST         469          1.0000000000
      1408       470  TIP3  OH2           1.1350201741       11.5142580249       -8.7482599629  CLST         470          1.0000000000
      1409       470  TIP3  H1            1.5510734620       12.3933618608       -8.6411690649  CLST         470          1.0000000000
      1410       470  TIP3  H2            1.8599742084       11.2108862256       -8.2432366745  CLST         470          1.0000000000
      1411       471  TIP3  OH2           5.4139173365        5.4646702969       -2.2054082377  CLST         471          1.0000000000
      1412       471  TIP3  H1            4.7599390199        5.7578113939       -2.8766176906  CLST         471          1.0000000000
      1413       471  TIP3  H2            4.6322034492        5.6876655912       -1.6569221799  CLST         471          1.0000000000
      1414       472  TIP3  OH2           5.2595327977      -12.3147992932       -7.0081480738  CLST         472          1.0000000000
      1415       472  TIP3  H1            4.9158279324      -13.0618847257       -7.4532092955  CLST         472          1.0000000000
      1416       472  TIP3  H2            5.4951788708      -12.9420737688       -6.3510270693  CLST         472          1.0000000000
      1417       473  TIP3  OH2          -4.0660266639        2.8926908514        1.2403862581  CLST         473          1.0000000000
      1418       473  TIP3  H1           -3.1038852781        2.6221904802        1.0696382689  CLST         473          1.0000000000
      1419       473  TIP3  H2           -4.1786988145        2.1105832214        0.6576876403  CLST         473          1.0000000000
      1420       474  TIP3  OH2           8.3961241325        4.5551041977        7.7701725328  CLST         474          1.0000000000
      1421       474  TIP3  H1            7.9989619582        4.0568382323        6.8500640995  CLST         474          1.0000000000
      1422       474  TIP3  H2            8.9554966459        4.0178690194        7.0007275854  CLST         474          1.0000000000
      1423       475  TIP3  OH2           6.2231822784       -3.8994092254       -7.9708517733  CLST         475          1.0000000000
      1424       475  TIP3  H1            5.9738927970       -3.4159025511       -8.7762262308  CLST         475          1.0000000000
      1425       475  TIP3  H2            6.9507296497       -4.1820757305       -8.5146783225  CLST         475          1.0000000000
      1426       476  TIP3  OH2           3.3156739764       10.1285726935       -8.0925811335  CLST         476          1.0000000000
      1427       476  TIP3  H1            3.5614537939        9.2029801050       -7.8454059030  CLST         476          1.0000000000
      1428       476  TIP3  H2            3.2616744374       10.1923483963       -7.0999549510  CLST         476          1.0000000000
      1429       477  TIP3  OH2          -7.3588819625       -3.5688408916       -9.8833888193  CLST         477          1.0000000000
      1430       477  TIP3  H1           -6.6217999296       -3.1565061172      -10.2980252633  CLST         477          1.0000000000
      1431       477  TIP3  H2           -6.8465670479       -3.9543316821       -9.1834499131  CLST         477          1.0000000000
      1432       478  TIP3  OH2           0.7959711074       -4.9656234165      -12.5466851673  CLST         478          1.0000000000
      1433       478  TIP3  H1            1.1318356224       -5.8758255161      -12.3868110560  CLST         478          1.0000000000
      1434       478  TIP3  H2            1.3371437847       -4.8499611220      -11.6944608963  CLST         478          1.0000000000
      1435       479  TIP3  OH2           0.1533474316       -1.5454976640       -7.4492374640  CLST         479          1.0000000000
      1436       479  TIP3  H1            0.5372523563       -1.4664587208       -6.5098888448  CLST         479          1.0000000000
      1437       479  TIP3  H2            1.0922779992       -1.6527143852       -7.7151303938  CLST         479          1.0000000000
      1438       480  TIP3  OH2           5.6079521336       -1.0576549870        9.2565576671  CLST         480          1.0000000000
      1439       480  TIP3  H1            6.2544447459       -1.5035596859        8.6617199258  CLST         480          1.0000000000
      1440       480  TIP3  H2            6.2665044326       -0.3587413676        9.1785068428  CLST         480          1.0000000000
      1441       481  TIP3  OH2          -6.8241760183        2.2971104591       -5.6175036260  CLST         481          1.0000000000
      1442       481  TIP3  H1           -7.3645886112        2.9780665822       -5.9912731864  CLST         481          1.0000000000
      1443       481  TIP3  H2           -6.1064611159        2.8433565905       -5.9388204190  CLST         481          1.0000000000
      1444       482  TIP3  OH2           3.6815710772       -7.9437718245        4.2207375162  CLST         482          1.0000000000
      1445       482  TIP3  H1            4.2224843127       -7.4075879861        4.8255600795  CLST         482          1.0000000000
      1446       482  TIP3  H2            3.1573874271       -7.1408756999        4.2542806361  CLST         482          1.0000000000
      1447       483  TIP3  OH2         -15.1037045819        0.2776942926       -8.1761591699  CLST         483          1.0000000000
      1448       483  TIP3  H1          -14.8738341328       -0.6477459423       -8.1662316359  CLST         483          1.0000000000
      1449       483  TIP3  H2          -14.2235469672        0.4909418330       -7.8903734185  CLST         483          1.0000000000
      1450       484  TIP3  OH2          14.7806767505       -2.4328714032       -8.8751489306  CLST         484          1.0000000000
      1451       484  TIP3  H1           14.3336115740       -3.1901522295       -8.4738604318  CLST         484          1.0000000000
      1452       484  TIP3  H2           14.0604099653       -1.9643483744       -9.3371594759  CLST         484          1.0000000000
      1453       485  TIP3  OH2          -3.5227754443        5.4227392023        3.7448339029  CLST         485          1.0000000000
      1454       485  TIP3  H1           -2.7624605506        5.2502154992        4.3257970796  CLST         485          1.0000000000
      1455       485  TIP3  H2           -3.9447705095        5.7374761516        4.5668320484  CLST         485          1.0000000000
      1456       486  TIP3  OH2          11.3406559385       12.9405455423       -8.9589727172  CLST         486          1.0000000000
      1457       486  TIP3  H1           12.0068239645       12.4356445536       -8.4631188728  CLST         486          1.0000000000
      1458       486  TIP3  H2           11.6328325005       12.4249667434       -9.7199898094  CLST         486          1.0000000000
      1459       487  TIP3  OH2           2.3660132766       -5.7165983985        3.5538572290  CLST         487          1.0000000000
      1460       487  TIP3  H1            2.5028496081       -4.8587399616        4.0637405467  CLST         487          1.0000000000
      1461       487  TIP3  H2            2.3497830943       -5.0649163711        2.8171001208  CLST         487          1.0000000000
      1462       488  TIP3  OH2         -11.6920733634       -0.6010204001       11.0990993860  CLST         488          1.0000000000
      1463       488  TIP3  H1          -12.0711842143        0.2933248701       11.0822178816  CLST         488          1.0000000000
      1464       488  TIP3  H2          -11.0614491226       -0.2191647356       10.4712979002  CLST         488          1.0000000000
      1465       489  TIP3  OH2          -8.4619769571        8.0649330535       -4.6631230145  CLST         489          1.0000000000
      1466       489  TIP3  H1           -8.5569090802        8.4442357120       -3.7917484628  CLST         489          1.0000000000
      1467       489  TIP3  H2           -7.7918625902        7.5015890314       -4.3362884399  CLST         489          1.0000000000
      1468       490  TIP3  OH2         -11.1705165270       11.1523581561        5.0536931014  CLST         490          1.0000000000
      1469       490  TIP3  H1          -11.3877523916       10.2228465940        5.1374545618  CLST         490          1.0000000000
      1470       490  TIP3  H2          -10.7385077475       10.9771177468        4.2096584537  CLST         490          1.0000000000
      1471       491  TIP3  OH2          -1.1671217382      -10.0655547286       11.0577956499  CLST         491          1.0000000000
      1472       491  TIP3  H1           -0.3288703777      -10.1515056137       10.6288281447  CLST         491          1.0000000000
      1473       491  TIP3  H2           -0.7111845460       -9.3618256887       11.5283787831  CLST         491          1.0000000000
      1474       492  TIP3  OH2          -2.0796809343       10.2880066017        2.7564553007  CLST         492          1.0000000000
      1475       492  TIP3  H1           -1.4350308579       10.9492734455        2.7741081035  CLST         492          1.0000000000
      1476       492  TIP3  H2           -2.5962456015       10.6639176719        2.0585950921  CLST         492          1.0000000000
      1477       493  TIP3  OH2          -6.2822120882       10.4160318282       -2.8857799901  CLST         493          1.0000000000
      1478       493  TIP3  H1           -6.6028702425       10.9104220641       -3.6465557659  CLST         493          1.0000000000
      1479       493  TIP3  H2           -7.2249814319       10.3316668245       -2.6894940391  CLST         493          1.0000000000
      1480       494  TIP3  OH2         -13.9357062448       10.8422473643       12.3475053203  CLST         494          1.0000000000
      1481       494  TIP3  H1          -14.8418290177       10.9135288930       12.1551653887  CLST         494          1.0000000000
      1482       494  TIP3  H2          -13.3774159861       11.4429515485       11.9050413222  CLST         494          1.0000000000
      1483       495  TIP3  OH2           3.2587417116      -12.9797881691       13.7075983274  CLST         495          1.0000000000
      1484       495  TIP3  H1            2.8651136318      -12.9687909627       14.5603867641  CLST         495          1.0000000000
      1485       495  TIP3  H2            3.4513524832      -12.0223603811       13.6879212127  CLST         495          1.0000000000
      1486       496  TIP3  OH2         -15.1037045819        6.3898225888        0.4294154730  CLST         496          1.0000000000
      1487       496  TIP3  H1          -14.5078627154        6.3861818175        1.2002231669  CLST         496          1.0000000000
      1488       496  TIP3  H2          -15.0429647849        5.4348324551        0.4316952239  CLST         496          1.0000000000
      1489       497  TIP3  OH2         -13.4896229899       -8.5784844397        3.3754362554  CLST         497          1.0000000000
      1490       497  TIP3  H1          -14.2375906951       -8.0057535187        3.3834027697  CLST         497          1.0000000000
      1491       497  TIP3  H2          -13.7690851826       -9.0288745527        4.1816072601  CLST         497          1.0000000000
      1492       498  TIP3  OH2           4.2662637726       14.0529034194      -10.8650185863  CLST         498          1.0000000000
      1493       498  TIP3  H1            4.5616874211       14.0393402356      -11.8124277517  CLST         498          1.0000000000
      1494       498  TIP3  H2            4.9874014890       13.4735104071      -10.5159032344  CLST         498          1.0000000000
      1495       499  TIP3  OH2           1.3374551019       11.0451639766       -3.0077583096  CLST         499          1.0000000000
      1496       499  TIP3  H1            0.4911889090       11.4925216061       -2.7866436430  CLST         499          1.0000000000
      1497       499  TIP3  H2            1.7308669449       11.8737031567       -2.7123790468  CLST         499          1.0000000000
      1498       500  TIP3  OH2          -6.2397251190       -2.4863596444        4.3411323816  CLST         500          1.0000000000
      1499       500  TIP3  H1           -7.1140081969       -2.1592445703        4.1369153088  CLST         500          1.0000000000
      1500       500  TIP3  H2           -6.0155459359       -1.8312838358        3.6421202776  CLST         500          1.0000000000
      1501       501  TIP3  OH2         -12.4469316146      -13.5588864027       -6.1661310105  CLST         501          1.0000000000
      1502       501  TIP3  H1          -13.2077949781      -13.1542808339       -6.4586879949  CLST         501          1.0000000000
      1503       501  TIP3  H2          -11.8566804563      -12.8720819937       -6.4926792648  CLST         501          1.0000000000
      1504       502  TIP3  OH2          -1.4734092465       -3.9348874380      -11.6462096895  CLST         502          1.0000000000
      1505       502  TIP3  H1           -1.1420275477       -3.0384759033      -11.7531622605  CLST         502          1.0000000000
      1506       502  TIP3  H2           -0.6188537398       -4.0572218433      -12.1072471561  CLST         502          1.0000000000
      1507       503  TIP3  OH2          -0.2700876215       -4.9056624482        1.0162809633  CLST         503          1.0000000000
      1508       503  TIP3  H1            0.3680677907       -5.3531286072        0.4367339355  CLST         503          1.0000000000
      1509       503  TIP3  H2           -0.9048387201       -5.6006739397        0.8030893741  CLST         503          1.0000000000
      1510       504  TIP3  OH2          -4.1600406013       -3.5964234018       12.6981708419  CLST         504          1.0000000000
      1511       504  TIP3  H1           -4.3627901873       -4.5018326215       13.0418025942  CLST         504          1.0000000000
      1512       504  TIP3  H2           -4.0478969335       -3.2675189119       13.6214846296  CLST         504          1.0000000000
      1513       505  TIP3  OH2           5.8423935652       12.1812641807       -9.3365469877  CLST         505          1.0000000000
      1514       505  TIP3  H1            6.0467758559       11.8242359834       -8.4738340087  CLST         505          1.0000000000
      1515       505  TIP3  H2            6.7541065655       12.5926706211       -9.3438035749  CLST         505          1.0000000000
      1516       506  TIP3  OH2          -3.9373842566        3.7851459534       10.4026520009  CLST         506          1.0000000000
      1517       506  TIP3  H1           -4.7158173841        3.5934183040        9.8439860780  CLST         506          1.0000000000
      1518       506  TIP3  H2           -3.6514087298        2.9188677037       10.6411264990  CLST         506          1.0000000000
      1519       507  TIP3  OH2          -2.1368459291        7.0000851772      -12.5705533961  CLST         507          1.0000000000
      1520       507  TIP3  H1           -2.4194543197        6.1548907280      -12.1651256533  CLST         507          1.0000000000
      1521       507  TIP3  H2           -3.0985113245        7.0427766724      -12.7661369624  CLST         507          1.0000000000
      1522       508  TIP3  OH2         -11.2400308117        4.8323861592      -11.3970026585  CLST         508          1.0000000000
      1523       508  TIP3  H1          -12.0031875775        5.3813312441      -11.1954396771  CLST         508          1.0000000000
      1524       508  TIP3  H2          -11.5879009601        4.0009551419      -11.7105423241  CLST         508          1.0000000000
      1525       509  TIP3  OH2           4.9927072859        0.3903030196      -10.8687539816  CLST         509          1.0000000000
      1526       509  TIP3  H1            5.2901830968        0.4830515704      -10.0946838682  CLST         509          1.0000000000
      1527       509  TIP3  H2            5.6315628412        0.2565440981      -11.6023708612  CLST         509          1.0000000000
      1528       510  TIP3  OH2          -4.4310641947        0.1235201499       -3.7055593215  CLST         510          1.0000000000
      1529       510  TIP3  H1           -4.5826959452       -0.1990767112       -4.4816584380  CLST         510          1.0000000000
      1530       510  TIP3  H2           -3.6545545981        0.2817319848       -4.5656890280  CLST         510          1.0000000000
      1531       511  TIP3  OH2         -10.6693060227        1.6729524125       -0.9928357254  CLST         511          1.0000000000
      1532       511  TIP3  H1          -11.2969636320        2.2233579386       -0.4772634519  CLST         511          1.0000000000
      1533       511  TIP3  H2          -11.2561541967        0.9969592688       -0.6189715391  CLST         511          1.0000000000
      1534       512  TIP3  OH2          -3.3722821126       -8.2650410323       -8.6668788070  CLST         512          1.0000000000
      1535       512  TIP3  H1           -2.7252223384       -8.7646089865       -9.1811325774  CLST         512          1.0000000000
      1536       512  TIP3  H2           -3.0834091363       -7.4887299575       -9.2143342391  CLST         512          1.0000000000
      1537       513  TIP3  OH2           9.4458388144       14.0400636533       11.4818860613  CLST         513          1.0000000000
      1538       513  TIP3  H1            9.2753263577       14.8640610289       11.0076891364  CLST         513          1.0000000000
      1539       513  TIP3  H2            9.1524851614       13.6582576249       10.6311263048  CLST         513          1.0000000000
      1540       514  TIP3  OH2          -4.7260386059        7.6937800905      -12.8331237991  CLST         514          1.0000000000
      1541       514  TIP3  H1           -5.1542510441        7.9971030670      -13.6548106289  CLST         514          1.0000000000
      1542       514  TIP3  H2           -5.5526199174        8.0151818278      -12.4307552517  CLST         514          1.0000000000
      1543       515  TIP3  OH2           5.8832853098        6.3638212139       -6.0205441884  CLST         515          1.0000000000
      1544       515  TIP3  H1            5.6203060067        5.9449202957       -5.2179059348  CLST         515          1.0000000000
      1545       515  TIP3  H2            6.5360961177        6.8003378292       -5.4121180564  CLST         515          1.0000000000
      1546       516  TIP3  OH2           9.5084803677        0.1065687325       -8.0578250971  CLST         516          1.0000000000
      1547       516  TIP3  H1           10.4586404322        0.1833350745       -7.8947420351  CLST         516          1.0000000000
      1548       516  TIP3  H2            9.4298607188        1.0704171450       -8.0433914752  CLST         516          1.0000000000
      1549       517  TIP3  OH2          14.0383071616       -7.1400086923       -8.9738937967  CLST         517          1.0000000000
      1550       517  TIP3  H1           14.5868517464       -6.4360784169       -8.5406399613  CLST         517          1.0000000000
      1551       517  TIP3  H2           14.7672595203       -7.6950564489       -8.5982844074  CLST         517          1.0000000000
      1552       518  TIP3  OH2          -0.5984176277       12.1935563798       -6.0221193719  CLST         518          1.0000000000
      1553       518  TIP3  H1            0.2787835821       12.1980126190       -5.6599860770  CLST         518          1.0000000000
      1554       518  TIP3  H2           -0.6220463188       13.0144082578       -5.4515200192  CLST         518          1.0000000000
      1555       519  TIP3  OH2           0.9062454224        5.0463381748        1.0330010812  CLST         519          1.0000000000
      1556       519  TIP3  H1            0.4681851100        4.3042995458        0.6309156129  CLST         519          1.0000000000
      1557       519  TIP3  H2            0.0285283699        5.4151274290        1.0278512771  CLST         519          1.0000000000
      1558       520  TIP3  OH2           6.7937549208        6.6755715670      -10.5202569818  CLST         520          1.0000000000
      1559       520  TIP3  H1            5.9104833281        6.9062379498      -10.6414323391  CLST         520          1.0000000000
      1560       520  TIP3  H2            6.8588801086        7.4815217873      -10.0107796962  CLST         520          1.0000000000
      1561       521  TIP3  OH2          -5.6799216368       10.0734252718        9.4706241897  CLST         521          1.0000000000
      1562       521  TIP3  H1           -4.8461664942       10.2246083585        9.9174095509  CLST         521          1.0000000000
      1563       521  TIP3  H2           -5.2661711940       10.5767718772        8.7597438892  CLST         521          1.0000000000
      1564       522  TIP3  OH2           3.1675693547        4.0002751526        2.1844213254  CLST         522          1.0000000000
      1565       522  TIP3  H1            2.4845503849        4.2661466143        1.6986113878  CLST         522          1.0000000000
      1566       522  TIP3  H2            3.0866026126        3.6625727098        1.0874892330  CLST         522          1.0000000000
      1567       523  TIP3  OH2           8.4135240871        0.6943100555       -3.4500698800  CLST         523          1.0000000000
      1568       523  TIP3  H1            7.4383728094        0.6788253769       -3.5523610274  CLST         523          1.0000000000
      1569       523  TIP3  H2            8.5598346661       -0.1389870054       -3.9042425486  CLST         523          1.0000000000
      1570       524  TIP3  OH2          -5.4732110562        5.6588932170      -10.6803130798  CLST         524          1.0000000000
      1571       524  TIP3  H1           -5.3022568902        6.6030926580      -10.7506826899  CLST         524          1.0000000000
      1572       524  TIP3  H2           -4.5615555311        5.4671535449      -10.9336997774  CLST         524          1.0000000000
      1573       525  TIP3  OH2          -5.9076688596        5.9054743190       -7.9868966814  CLST         525          1.0000000000
      1574       525  TIP3  H1           -5.2026025086        6.5876072083       -8.1579435840  CLST         525          1.0000000000
      1575       525  TIP3  H2           -5.7422150415        5.6238217316       -8.9050026045  CLST         525          1.0000000000
      1576       526  TIP3  OH2           9.4065801409      -11.0619503918      -12.8464109423  CLST         526          1.0000000000
      1577       526  TIP3  H1            9.9128649348      -10.9714860411      -13.6238262393  CLST         526          1.0000000000
      1578       526  TIP3  H2            8.6894902174      -10.9192525223      -13.5006968898  CLST         526          1.0000000000
      1579       527  TIP3  OH2         -11.4850539088       -3.3056974393       -1.6983207472  CLST         527          1.0000000000
      1580       527  TIP3  H1          -12.0880691065       -3.9507071764       -2.1557938706  CLST         527          1.0000000000
      1581       527  TIP3  H2          -10.8106224133       -3.9094690878       -2.0277913509  CLST         527          1.0000000000
      1582       528  TIP3  OH2           4.4958171850      -12.0383503419      -11.0914068107  CLST         528          1.0000000000
      1583       528  TIP3  H1            4.1931444842      -11.0940611524      -10.9976493319  CLST         528          1.0000000000
      1584       528  TIP3  H2            5.3751544544      -11.6510985398      -11.0497403942  CLST         528          1.0000000000
      1585       529  TIP3  OH2          -5.9391006388       -6.9992192034       -4.8010286001  CLST         529          1.0000000000
      1586       529  TIP3  H1           -5.3504420503       -7.7649304411       -4.9305302359  CLST         529          1.0000000000
      1587       529  TIP3  H2           -5.6496861883       -6.5979214934       -5.6185672892  CLST         529          1.0000000000
      1588       530  TIP3  OH2           3.0340860722       -5.7692065141        6.5474173429  CLST         530          1.0000000000
      1589       530  TIP3  H1            2.5766353127       -6.1822479344        7.3184411856  CLST         530          1.0000000000
      1590       530  TIP3  H2            2.1556011941       -5.7866404510        6.0725638485  CLST         530          1.0000000000
      1591       531  TIP3  OH2          -3.3005668260       -3.2571918131      -15.0105707625  CLST         531          1.0000000000
      1592       531  TIP3  H1           -4.0675018104       -2.7446007166      -14.7957998643  CLST         531          1.0000000000
      1593       531  TIP3  H2           -2.8055861136       -2.7839398841      -14.3399796868  CLST         531          1.0000000000
      1594       532  TIP3  OH2          -1.2139224615       -3.6083160621       -1.9251622107  CLST         532          1.0000000000
      1595       532  TIP3  H1           -1.8643380329       -2.8600209451       -2.0445525859  CLST         532          1.0000000000
      1596       532  TIP3  H2           -1.7637897208       -3.7773918690       -1.1221006935  CLST         532          1.0000000000
      1597       533  TIP3  OH2          -3.1215103352       13.1373439255        8.0433260664  CLST         533          1.0000000000
      1598       533  TIP3  H1           -3.8519212441       13.7618648764        7.8644687742  CLST         533          1.0000000000
      1599       533  TIP3  H2           -3.8704780714       12.5150074520        7.9644719533  CLST         533          1.0000000000
      1600       534  TIP3  OH2           7.0153612865       -4.3544341041       -5.3217711408  CLST         534          1.0000000000
      1601       534  TIP3  H1            6.1649142168       -4.1055461961       -4.9218564279  CLST         534          1.0000000000
      1602       534  TIP3  H2            6.4961849486       -4.2619531554       -6.1757226511  CLST         534          1.0000000000
      1603       535  TIP3  OH2           7.2593176737       -3.9143961185      -11.5510598178  CLST         535          1.0000000000
      1604       535  TIP3  H1            6.4735099762       -3.4502228994      -11.1992576739  CLST         535          1.0000000000
      1605       535  TIP3  H2            7.2303662245       -4.2528518664      -10.6333988673  CLST         535          1.0000000000
      1606       536  TIP3  OH2          14.4905664283        8.0171799139       10.7926034311  CLST         536          1.0000000000
      1607       536  TIP3  H1           14.2831190606        8.9019920820       11.1689844719  CLST         536          1.0000000000
      1608       536  TIP3  H2           14.9854943732        8.5594175600       10.0929962439  CLST         536          1.0000000000
      1609       537  TIP3  OH2           4.7487817868       -4.4755595782       -3.5735398177  CLST         537          1.0000000000
      1610       537  TIP3  H1            3.8440589870       -4.8231581873       -3.4502788640  CLST         537          1.0000000000
      1611       537  TIP3  H2            4.8416333884       -5.4418124971       -3.6458937359  CLST         537          1.0000000000
      1612       538  TIP3  OH2          -0.4587136632        7.4634474515       13.0680464274  CLST         538          1.0000000000
      1613       538  TIP3  H1           -1.1867545947        7.5339213539       12.4403407223  CLST         538          1.0000000000
      1614       538  TIP3  H2           -0.5395582741        8.4351383426       13.1183371141  CLST         538          1.0000000000
      1615       539  TIP3  OH2           6.0908036682        8.8539927313        1.2923062102  CLST         539          1.0000000000
      1616       539  TIP3  H1            6.6113083381        8.1957181785        0.8127320213  CLST         539          1.0000000000
      1617       539  TIP3  H2            5.5526658527        8.0795698471        1.5284158915  CLST         539          1.0000000000
      1618       540  TIP3  OH2          12.0419439101       -1.3689402786       -4.0289665042  CLST         540          1.0000000000
      1619       540  TIP3  H1           12.9128938231       -0.9601711530       -4.1018173918  CLST         540          1.0000000000
      1620       540  TIP3  H2           12.1458925721       -1.2405715233       -3.0757825008  CLST         540          1.0000000000
      1621       541  TIP3  OH2          10.5022035788        7.4384382987        8.4510490288  CLST         541          1.0000000000
      1622       541  TIP3  H1           10.5870699471        7.7010606575        9.3998684334  CLST         541          1.0000000000
      1623       541  TIP3  H2           11.0389231406        6.6848620865        8.8178145544  CLST         541          1.0000000000
      1624       542  TIP3  OH2          13.5573673251        0.6961877257       -5.2361835599  CLST         542          1.0000000000
      1625       542  TIP3  H1           12.8225616229        0.6771406738       -5.8576766424  CLST         542          1.0000000000
      1626       542  TIP3  H2           14.0551185462        0.8130586325       -6.0428730526  CLST         542          1.0000000000
      1627       543  TIP3  OH2          10.1220728386       -6.4597836042        5.6698553346  CLST         543          1.0000000000
      1628       543  TIP3  H1           10.4393660991       -6.7912016886        4.8094358450  CLST         543          1.0000000000
      1629       543  TIP3  H2            9.5832471361       -5.7927754614        5.1608210650  CLST         543          1.0000000000
      1630       544  TIP3  OH2           6.8369854369        4.4268892708      -12.3121187380  CLST         544          1.0000000000
      1631       544  TIP3  H1            7.3409369094        3.9591679930      -11.6144965719  CLST         544          1.0000000000
      1632       544  TIP3  H2            6.4283473731        4.8510576191      -11.5751490494  CLST         544          1.0000000000
      1633       545  TIP3  OH2         -12.0974110852        2.1657334655        7.2677444334  CLST         545          1.0000000000
      1634       545  TIP3  H1          -12.9000780558        2.7025781909        7.4243127590  CLST         545          1.0000000000
      1635       545  TIP3  H2          -11.7997883201        2.5585353517        8.1050890430  CLST         545          1.0000000000
      1636       546  TIP3  OH2          -0.9696126248       12.0158790175       10.7208196466  CLST         546          1.0000000000
      1637       546  TIP3  H1           -0.7393385543       12.7883431373       10.2119585027  CLST         546          1.0000000000
      1638       546  TIP3  H2           -0.4405632670       12.4568857231       11.4076087490  CLST         546          1.0000000000
      1639       547  TIP3  OH2          -2.2139830127        6.9527973752        5.8011010523  CLST         547          1.0000000000
      1640       547  TIP3  H1           -2.2400802530        6.4052247109        6.6207229503  CLST         547          1.0000000000
      1641       547  TIP3  H2           -1.5052194435        6.4456679197        5.4295717217  CLST         547          1.0000000000
      1642       548  TIP3  OH2           2.7847925517       -7.8184635129       12.5679654323  CLST         548          1.0000000000
      1643       548  TIP3  H1            2.3922418743       -6.9172387981       12.6603903112  CLST         548          1.0000000000
      1644       548  TIP3  H2            3.6448860905       -7.3892802316       12.2612625954  CLST         548          1.0000000000
      1645       549  TIP3  OH2          -6.4738958443       14.6965309583        3.1479471943  CLST         549          1.0000000000
      1646       549  TIP3  H1           -7.1796220329       15.0778456179        3.6335101880  CLST         549          1.0000000000
      1647       549  TIP3  H2           -6.5024264617       13.9037977132        3.7239116027  CLST         549          1.0000000000
      1648       550  TIP3  OH2          -8.0995219658        4.2815366439       -4.3323036527  CLST         550          1.0000000000
      1649       550  TIP3  H1           -8.2915798834        3.4838906508       -3.7920297008  CLST         550          1.0000000000
      1650       550  TIP3  H2           -8.6603086423        4.9654610797       -3.9687551630  CLST         550          1.0000000000
      1651       551  TIP3  OH2          -2.1645031484      -13.5190767981       -3.3811067855  CLST         551          1.0000000000
      1652       551  TIP3  H1           -1.5822571127      -13.2105079847       -2.6726917081  CLST         551          1.0000000000
      1653       551  TIP3  H2           -2.7901532070      -13.2074783634       -2.7174729153  CLST         551          1.0000000000
      1654       552  TIP3  OH2          -2.2868186284       -7.7840592691       13.7803602446  CLST         552          1.0000000000
      1655       552  TIP3  H1           -2.4713546356       -8.7100810993       14.0420039796  CLST         552          1.0000000000
      1656       552  TIP3  H2           -1.5462200915       -7.9904273579       13.1748934424  CLST         552          1.0000000000
      1657       553  TIP3  OH2           8.3269720705      -13.8766620563        0.2246114469  CLST         553          1.0000000000
      1658       553  TIP3  H1            8.7349790721      -13.1862528374        0.7311797051  CLST         553          1.0000000000
      1659       553  TIP3  H2            8.5947777071      -14.4374608323        0.9829015555  CLST         553          1.0000000000
      1660       554  TIP3  OH2          -9.1199576063      -12.1410586216       -3.7452800645  CLST         554          1.0000000000
      1661       554  TIP3  H1           -9.2451229068      -11.5097739139       -3.0295867386  CLST         554          1.0000000000
      1662       554  TIP3  H2          -10.0209875942      -12.5402050487       -3.4880226431  CLST         554          1.0000000000
      1663       555  TIP3  OH2         -11.1783391570       -5.2825854084       -7.4870634968  CLST         555          1.0000000000
      1664       555  TIP3  H1          -10.8283949567       -4.3516756094       -7.3765748218  CLST         555          1.0000000000
      1665       555  TIP3  H2          -11.3318522363       -5.3378170698       -6.5415351319  CLST         555          1.0000000000
      1666       556  TIP3  OH2         -10.5435917962       11.3790164649       13.5063217137  CLST         556          1.0000000000
      1667       556  TIP3  H1          -11.1068331696       10.6024267940       13.6621704278  CLST         556          1.0000000000
      1668       556  TIP3  H2           -9.7575701846       10.7932939808       13.3338270284  CLST         556          1.0000000000
      1669       557  TIP3  OH2          -2.5631662907       -6.7183232090        1.3762352661  CLST         557          1.0000000000
      1670       557  TIP3  H1           -2.5965450492       -6.8143648210        2.3461216071  CLST         557          1.0000000000
      1671       557  TIP3  H2           -2.6541859111       -7.6633331752        1.2875960480  CLST         557          1.0000000000
      1672       558  TIP3  OH2         -10.3877006689        6.4094714513        2.9433962879  CLST         558          1.0000000000
      1673       558  TIP3  H1          -10.1772206724        5.7716444321        3.6887235557  CLST         558          1.0000000000
      1674       558  TIP3  H2           -9.7840293544        5.8874197004        2.3923361508  CLST         558          1.0000000000
      1675       559  TIP3  OH2           0.9779576320        2.4495989124       -0.1217748954  CLST         559          1.0000000000
      1676       559  TIP3  H1            1.3435952941        2.7027262898       -0.9452398645  CLST         559          1.0000000000
      1677       559  TIP3  H2            1.5070767412        1.6545407113       -0.2514613685  CLST         559          1.0000000000
      1678       560  TIP3  OH2          12.5878814279      -11.9415568815        1.0849896072  CLST         560          1.0000000000
      1679       560  TIP3  H1           12.2575501410      -12.2614117896        0.2221969988  CLST         560          1.0000000000
      1680       560  TIP3  H2           12.2509486636      -12.7803886328        1.3638969662  CLST         560          1.0000000000
      1681       561  TIP3  OH2         -12.8551231321        8.6806899207      -10.5504417441  CLST         561          1.0000000000
      1682       561  TIP3  H1          -12.0424236285        8.5337503182      -11.0457444838  CLST         561          1.0000000000
      1683       561  TIP3  H2          -12.2237722064        8.5707181926       -9.8799468299  CLST         561          1.0000000000
      1684       562  TIP3  OH2           9.9076066447        6.9045264093       13.2380674847  CLST         562          1.0000000000
      1685       562  TIP3  H1           10.3446927801        7.2261311825       14.0200820504  CLST         562          1.0000000000
      1686       562  TIP3  H2           10.0505997994        6.0473380454       13.6749108734  CLST         562          1.0000000000
      1687       563  TIP3  OH2           3.1742425976      -10.2587395653       -6.6777862490  CLST         563          1.0000000000
      1688       563  TIP3  H1            4.0494461850      -10.6674044794       -6.5534940156  CLST         563          1.0000000000
      1689       563  TIP3  H2            2.8891988222      -11.0833477144       -6.9848756326  CLST         563          1.0000000000
      1690       564  TIP3  OH2           4.8153948107      -13.4319636228       -2.8392387202  CLST         564          1.0000000000
      1691       564  TIP3  H1            5.2742816152      -13.7755595395       -3.6113037958  CLST         564          1.0000000000
      1692       564  TIP3  H2            4.0265259540      -13.3177340834       -3.3054516725  CLST         564          1.0000000000
      1693       565  TIP3  OH2           1.3990681225       12.2520231957        0.3650303162  CLST         565          1.0000000000
      1694       565  TIP3  H1            1.1154997539       11.4297292930       -0.0634223204  CLST         565          1.0000000000
      1695       565  TIP3  H2            2.2870206372       12.1468951051       -0.1120501251  CLST         565          1.0000000000
      1696       566  TIP3  OH2          -8.7209039223        5.5721512096        0.9418059651  CLST         566          1.0000000000
      1697       566  TIP3  H1           -8.6716392152        4.8877260241        0.0137518013  CLST         566          1.0000000000
      1698       566  TIP3  H2           -9.0465816948        5.8616710493        0.0472892956  CLST         566          1.0000000000
      1699       567  TIP3  OH2          12.2829915915        0.0656850072       -8.2461846162  CLST         567          1.0000000000
      1700       567  TIP3  H1           13.2517295669        0.2797748836       -8.3776924033  CLST         567          1.0000000000
      1701       567  TIP3  H2           12.4444833495       -0.5009269861       -9.0622154414  CLST         567          1.0000000000
      1702       568  TIP3  OH2           8.9182269448       -7.2540468830       11.5182505529  CLST         568          1.0000000000
      1703       568  TIP3  H1            9.6851641053       -7.4604124901       12.0503445556  CLST         568          1.0000000000
      1704       568  TIP3  H2            9.3859555045       -6.3886666619       11.3787633587  CLST         568          1.0000000000
      1705       569  TIP3  OH2          -8.5149234679       -6.2426946247        3.6517373965  CLST         569          1.0000000000
      1706       569  TIP3  H1           -8.7050086412       -5.9269961152        2.7427388793  CLST         569          1.0000000000
      1707       569  TIP3  H2           -9.3200690063       -6.7427692059        3.4567910016  CLST         569          1.0000000000
      1708       570  TIP3  OH2           6.2078440156       11.7766194492       15.1037045819  CLST         570          1.0000000000
      1709       570  TIP3  H1            5.3903122242       11.7994402901       14.5827283855  CLST         570          1.0000000000
      1710       570  TIP3  H2            6.5729540149       12.1885882156       14.2721752906  CLST         570          1.0000000000
      1711       571  TIP3  OH2           9.5384969198        1.2338763167        4.5313204471  CLST         571          1.0000000000
      1712       571  TIP3  H1            8.6487027323        1.4308517239        4.8476140246  CLST         571          1.0000000000
      1713       571  TIP3  H2            9.0699121981        0.6804651730        3.7988504326  CLST         571          1.0000000000
      1714       572  TIP3  OH2           5.0717070447        0.2554273435        2.3186292790  CLST         572          1.0000000000
      1715       572  TIP3  H1            4.7222742393       -0.6164337148        2.1145938156  CLST         572          1.0000000000
      1716       572  TIP3  H2            5.7010279153       -0.2029122226        2.8376215861  CLST         572          1.0000000000
      1717       573  TIP3  OH2          -1.8707737857       -6.6130611790       -6.4636500432  CLST         573          1.0000000000
      1718       573  TIP3  H1           -1.4102960642       -7.4556991785       -6.5241245988  CLST         573          1.0000000000
      1719       573  TIP3  H2           -2.4142761741       -6.9498266507       -7.1907466109  CLST         573          1.0000000000
      1720       574  TIP3  OH2          -9.7831069631        0.8274457538        9.7534284703  CLST         574          1.0000000000
      1721       574  TIP3  H1           -9.8331373559        1.8127329202        9.7311353454  CLST         574          1.0000000000
      1722       574  TIP3  H2           -9.0017476703        1.0103642151        9.2074197861  CLST         574          1.0000000000
      1723       575  TIP3  OH2          -3.9348947345       10.8117027469        0.8559475054  CLST         575          1.0000000000
      1724       575  TIP3  H1           -4.1376966932       11.4145813215        0.0523508197  CLST         575          1.0000000000
      1725       575  TIP3  H2           -4.7055450742       11.2415874521        1.2538385652  CLST         575          1.0000000000
      1726       576  TIP3  OH2          -3.5330994272       -2.5076871937        6.2308415804  CLST         576          1.0000000000
      1727       576  TIP3  H1           -3.7956240937       -1.6344330165        5.9578491616  CLST         576          1.0000000000
      1728       576  TIP3  H2           -3.1016886313       -2.5848868648        5.3731660691  CLST         576          1.0000000000
      1729       577  TIP3  OH2         -11.9603309815       11.3246388581        8.5934007462  CLST         577          1.0000000000
      1730       577  TIP3  H1          -11.3455387332       12.0128753709        8.8117357201  CLST         577          1.0000000000
      1731       577  TIP3  H2          -12.0255763685       11.6221188247        7.7022059692  CLST         577          1.0000000000
      1732       578  TIP3  OH2          -1.6631614072        0.9303755112        5.2553604600  CLST         578          1.0000000000
      1733       578  TIP3  H1           -2.5543147504        1.3381829099        5.0948873517  CLST         578          1.0000000000
      1734       578  TIP3  H2           -1.8724103306        1.1167822182        6.1766627529  CLST         578          1.0000000000
      1735       579  TIP3  OH2          -6.4304364082       11.6847539983        1.6408205073  CLST         579          1.0000000000
      1736       579  TIP3  H1           -6.6509143194       12.3818021964        1.0257309602  CLST         579          1.0000000000
      1737       579  TIP3  H2           -6.9032652301       11.0392647616        1.1229524541  CLST         579          1.0000000000
      1738       580  TIP3  OH2          11.2010001308        3.6307069257       -3.3865948666  CLST         580          1.0000000000
      1739       580  TIP3  H1           11.0556459394        2.7371766360       -3.0947598928  CLST         580          1.0000000000
      1740       580  TIP3  H2           11.7333069907        3.7238055453       -2.5701621716  CLST         580          1.0000000000
      1741       581  TIP3  OH2          12.9420133340      -11.6129036518        3.6207555984  CLST         581          1.0000000000
      1742       581  TIP3  H1           13.3559014575      -11.8017675806        2.7397962615  CLST         581          1.0000000000
      1743       581  TIP3  H2           13.8703464164      -11.7422956333        3.9474635791  CLST         581          1.0000000000
      1744       582  TIP3  OH2           6.2837255125       10.8108705952       -7.0471802868  CLST         582          1.0000000000
      1745       582  TIP3  H1            5.5526390297       10.3861748776       -6.5596903119  CLST         582          1.0000000000
      1746       582  TIP3  H2            6.6079841604       11.0548233088       -6.1549195296  CLST         582          1.0000000000
      1747       583  TIP3  OH2          -2.5118630223        4.5408762420      -11.1401422865  CLST         583          1.0000000000
      1748       583  TIP3  H1           -3.0499450370        3.7183183084      -11.3550613878  CLST         583          1.0000000000
      1749       583  TIP3  H2           -1.7934117224        3.8977003575      -11.4459899120  CLST         583          1.0000000000
      1750       584  TIP3  OH2           2.2905608049       -4.0593826317      -10.1964242824  CLST         584          1.0000000000
      1751       584  TIP3  H1            3.1760049930       -4.5297765367      -10.2764113567  CLST         584          1.0000000000
      1752       584  TIP3  H2            2.9282836123       -3.3552630719       -9.9487871503  CLST         584          1.0000000000
      1753       585  TIP3  OH2         -13.9491173781        1.0090955856       -1.9397627567  CLST         585          1.0000000000
      1754       585  TIP3  H1          -13.8085115928        1.7366882680       -2.5977483175  CLST         585          1.0000000000
      1755       585  TIP3  H2          -14.8263118630        0.7857505759       -2.2460803598  CLST         585          1.0000000000
      1756       586  TIP3  OH2          -7.4826740873        8.5458369232       10.1547177747  CLST         586          1.0000000000
      1757       586  TIP3  H1           -7.1182151345        9.1230835443        9.4717841595  CLST         586          1.0000000000
      1758       586  TIP3  H2           -7.4624644388        7.6754623325        9.7197490654  CLST         586          1.0000000000
      1759       587  TIP3  OH2           4.2675542990        4.4438686109       -9.7928662369  CLST         587          1.0000000000
      1760       587  TIP3  H1            3.5230708259        4.8140080383      -10.3204364392  CLST         587          1.0000000000
      1761       587  TIP3  H2            4.9365066571        4.9178898894      -10.2345192765  CLST         587          1.0000000000
      1762       588  TIP3  OH2           4.9902628281       -9.6683328184      -14.0356145589  CLST         588          1.0000000000
      1763       588  TIP3  H1            4.3981697722       -9.8490265063      -14.7591721666  CLST         588          1.0000000000
      1764       588  TIP3  H2            4.4648969388       -9.4451062713      -13.3001137680  CLST         588          1.0000000000
      1765       589  TIP3  OH2           0.4059229518      -14.1694584727        3.2553674355  CLST         589          1.0000000000
      1766       589  TIP3  H1           -0.2987907620      -14.7767534117        2.9102036565  CLST         589          1.0000000000
      1767       589  TIP3  H2           -0.1989504740      -14.1806935114        4.0502746472  CLST         589          1.0000000000
      1768       590  TIP3  OH2           2.3753289715        1.8314007991       -8.4095722250  CLST         590          1.0000000000
      1769       590  TIP3  H1            1.7659237811        2.6083347533       -8.6074109966  CLST         590          1.0000000000
      1770       590  TIP3  H2            2.1651434178        1.7807435979       -9.3914111990  CLST         590          1.0000000000
      1771       591  TIP3  OH2         -12.9174764264        0.8815776919       -6.7806972973  CLST         591          1.0000000000
      1772       591  TIP3  H1          -12.0235602068        0.9581900767       -6.3896877086  CLST         591          1.0000000000
      1773       591  TIP3  H2          -12.9013965673        1.8407051112       -6.6824131927  CLST         591          1.0000000000
      1774       592  TIP3  OH2          -4.2599799574       -3.7483076424       -6.0636722235  CLST         592          1.0000000000
      1775       592  TIP3  H1           -3.4571936286       -3.6149919370       -6.6136537691  CLST         592          1.0000000000
      1776       592  TIP3  H2           -4.6885720851       -4.2432001977       -6.8176373897  CLST         592          1.0000000000
      1777       593  TIP3  OH2          -1.7052690527        5.3493632810       -4.6396249887  CLST         593          1.0000000000
      1778       593  TIP3  H1           -1.3988660781        6.1823136387       -4.2301217575  CLST         593          1.0000000000
      1779       593  TIP3  H2           -0.9352210381        5.4418805324       -5.2215221389  CLST         593          1.0000000000
      1780       594  TIP3  OH2          11.2514860603       10.5224542036       13.5006377020  CLST         594          1.0000000000
      1781       594  TIP3  H1           11.2624990809        9.6471109246       14.1544740500  CLST         594          1.0000000000
      1782       594  TIP3  H2           10.5123132195       10.2676850855       14.3127964354  CLST         594          1.0000000000
      1783       595  TIP3  OH2          -9.2218034494       13.5550477831        4.5793018453  CLST         595          1.0000000000
      1784       595  TIP3  H1           -9.7617980286       14.1061431681        4.0718051921  CLST         595          1.0000000000
      1785       595  TIP3  H2           -9.3387936628       12.8685950363        3.9421729113  CLST         595          1.0000000000
      1786       596  TIP3  OH2         -14.0958375858       -0.7058419425        8.7639380012  CLST         596          1.0000000000
      1787       596  TIP3  H1          -14.0715646556       -1.6229682205        8.9831358952  CLST         596          1.0000000000
      1788       596  TIP3  H2          -13.3088995416       -0.7660509307        8.1626299249  CLST         596          1.0000000000
      1789       597  TIP3  OH2          -3.1344474550       -5.5235655772       -4.3513944257  CLST         597          1.0000000000
      1790       597  TIP3  H1           -2.5994206564       -5.8342572903       -5.0693639298  CLST         597          1.0000000000
      1791       597  TIP3  H2           -3.4994715071       -4.8876601711       -4.9453263184  CLST         597          1.0000000000
      1792       598  TIP3  OH2          -8.2295936300       -9.5172928479       -9.1720977871  CLST         598          1.0000000000
      1793       598  TIP3  H1           -9.0685767413      -10.0255553423       -9.1953464515  CLST         598          1.0000000000
      1794       598  TIP3  H2           -8.5669809167       -9.1249966096      -10.0004089211  CLST         598          1.0000000000
      1795       599  TIP3  OH2          11.9374839958        0.2432134090      -12.9575812956  CLST         599          1.0000000000
      1796       599  TIP3  H1           12.4014127833        1.0297085575      -13.2495498287  CLST         599          1.0000000000
      1797       599  TIP3  H2           12.1228728849       -0.1540376672      -13.8214884590  CLST         599          1.0000000000
      1798       600  TIP3  OH2          14.0398675563       -9.5903002512        1.7136518986  CLST         600          1.0000000000
      1799       600  TIP3  H1           14.8420474386      -10.0396059666        1.4183834841  CLST         600          1.0000000000
      1800       600  TIP3  H2           13.6431335879      -10.4327100699        1.3311314287  CLST         600          1.0000000000
      1801       601  TIP3  OH2          -2.1729775766       13.3290043817       -8.2863049398  CLST         601          1.0000000000
      1802       601  TIP3  H1           -1.5724894527       13.0595005166       -7.6413233042  CLST         601          1.0000000000
      1803       601  TIP3  H2           -1.4615906775       13.6631668427       -8.8126304168  CLST         601          1.0000000000
      1804       602  TIP3  OH2          13.8876747890       -3.1941103138        8.7184829258  CLST         602          1.0000000000
      1805       602  TIP3  H1           13.2441802966       -2.8037376175        8.0883457621  CLST         602          1.0000000000
      1806       602  TIP3  H2           14.0418392180       -3.8140358902        8.0102564801  CLST         602          1.0000000000
      1807       603  TIP3  OH2          -8.2684156216       -9.5677838451      -12.1824280610  CLST         603          1.0000000000
      1808       603  TIP3  H1           -9.0659559847       -9.0734912447      -12.0781477269  CLST         603          1.0000000000
      1809       603  TIP3  H2           -8.6860966413      -10.4531305039      -12.0233408041  CLST         603          1.0000000000
      1810       604  TIP3  OH2           0.0673572851       -7.9216486889       12.2524704367  CLST         604          1.0000000000
      1811       604  TIP3  H1            0.3866468857       -7.0104315903       12.0225737821  CLST         604          1.0000000000
      1812       604  TIP3  H2            0.9154874578       -8.0425064224       12.7002948943  CLST         604          1.0000000000
      1813       605  TIP3  OH2           9.9945057438        8.2183736554        3.8815322672  CLST         605          1.0000000000
      1814       605  TIP3  H1            9.4333077879        8.7798318633        3.3203021393  CLST         605          1.0000000000
      1815       605  TIP3  H2           10.3189203762        9.1131237662        4.1004453332  CLST         605          1.0000000000
      1816       606  TIP3  OH2           0.8595588002        8.8201650878       -6.5151138456  CLST         606          1.0000000000
      1817       606  TIP3  H1            1.2712585183        9.6611366805       -6.1990574623  CLST         606          1.0000000000
      1818       606  TIP3  H2            0.0873816959        9.1775438055       -6.0736768042  CLST         606          1.0000000000
      1819       607  TIP3  OH2          -4.9894567114        1.2723373114      -14.1888759859  CLST         607          1.0000000000
      1820       607  TIP3  H1           -5.7314355241        1.9077312055      -14.1386845108  CLST         607          1.0000000000
      1821       607  TIP3  H2           -5.6351404085        0.9186540342      -14.8266733100  CLST         607          1.0000000000
      1822       608  TIP3  OH2          -2.5042994116       -0.5146343097      -11.5489165083  CLST         608          1.0000000000
      1823       608  TIP3  H1           -1.6397862004       -0.0285317478      -11.4841047554  CLST         608          1.0000000000
      1824       608  TIP3  H2           -2.4949407869        0.0274539914      -12.3743115574  CLST         608          1.0000000000
      1825       609  TIP3  OH2           3.8384978861        8.3109322152        2.9528137029  CLST         609          1.0000000000
      1826       609  TIP3  H1            4.2543087381        8.5425783079        3.8003327676  CLST         609          1.0000000000
      1827       609  TIP3  H2            4.2993728150        7.4949795573        3.0970854571  CLST         609          1.0000000000
      1828       610  TIP3  OH2          -7.8349362022       -9.0211737180       11.6977590130  CLST         610          1.0000000000
      1829       610  TIP3  H1           -7.2614666658       -9.6187431781       11.2196485232  CLST         610          1.0000000000
      1830       610  TIP3  H2           -7.2828156023       -8.3496467367       11.2890470272  CLST         610          1.0000000000
      1831       611  TIP3  OH2          13.9909359328       -4.3361675314        6.3423198560  CLST         611          1.0000000000
      1832       611  TIP3  H1           14.5791752209       -4.9901102518        5.9260888091  CLST         611          1.0000000000
      1833       611  TIP3  H2           14.1848026179       -3.8246321618        5.5649077549  CLST         611          1.0000000000
      1834       612  TIP3  OH2          -9.0246561472      -10.7665696032        6.2538195873  CLST         612          1.0000000000
      1835       612  TIP3  H1           -8.2545427753      -10.3225404211        5.7793459478  CLST         612          1.0000000000
      1836       612  TIP3  H2           -9.5183697146      -10.0356783831        5.8063184505  CLST         612          1.0000000000
      1837       613  TIP3  OH2           2.6039103424       -2.1497781843       14.6026368987  CLST         613          1.0000000000
      1838       613  TIP3  H1            2.4362901919       -3.0106178436       14.1786598839  CLST         613          1.0000000000
      1839       613  TIP3  H2            1.7877018697       -1.8107487253       14.1623968799  CLST         613          1.0000000000
      1840       614  TIP3  OH2           1.1569548901        4.4495640532       -8.9837253142  CLST         614          1.0000000000
      1841       614  TIP3  H1            1.6399509800        4.8108339831       -8.2283958085  CLST         614          1.0000000000
      1842       614  TIP3  H2            0.9623575778        5.4033420455       -9.1206179735  CLST         614          1.0000000000
      1843       615  TIP3  OH2           1.2948635127        4.5404833481        7.1793820133  CLST         615          1.0000000000
      1844       615  TIP3  H1            1.8252120800        5.1408131197        7.7103644152  CLST         615          1.0000000000
      1845       615  TIP3  H2            1.8567931747        4.7189550757        6.4152433006  CLST         615          1.0000000000
      1846       616  TIP3  OH2          -7.8006856368        4.1713186882       -7.2876182550  CLST         616          1.0000000000
      1847       616  TIP3  H1           -8.4162192333        4.3485381542       -8.0148499362  CLST         616          1.0000000000
      1848       616  TIP3  H2           -7.3043040219        4.8324050897       -7.7975519895  CLST         616          1.0000000000
      1849       617  TIP3  OH2          14.9024184097        2.1804770553       11.7353592613  CLST         617          1.0000000000
      1850       617  TIP3  H1           14.7141206378        1.1959486818       11.8544258979  CLST         617          1.0000000000
      1851       617  TIP3  H2           14.0699442763        2.4228226416       12.0777227609  CLST         617          1.0000000000
      1852       618  TIP3  OH2          -7.0558673421        3.1847843187        2.8107091959  CLST         618          1.0000000000
      1853       618  TIP3  H1           -6.8892994027        4.0217604676        2.3905077959  CLST         618          1.0000000000
      1854       618  TIP3  H2           -6.6451086774        3.4480084848        3.6140204436  CLST         618          1.0000000000
      1855       619  TIP3  OH2           1.2625870138        5.3505872286       -2.4197005891  CLST         619          1.0000000000
      1856       619  TIP3  H1            0.4690462483        4.7802932461       -2.5519014368  CLST         619          1.0000000000
      1857       619  TIP3  H2            0.7083551186        6.1258859493       -2.7022905275  CLST         619          1.0000000000
      1858       620  TIP3  OH2          -3.6122742037        8.6513366946       -5.9198877936  CLST         620          1.0000000000
      1859       620  TIP3  H1           -3.6576103002        7.8769761085       -5.3538693288  CLST         620          1.0000000000
      1860       620  TIP3  H2           -3.8990077841        8.2219521924       -6.7410940142  CLST         620          1.0000000000
      1861       621  TIP3  OH2           0.8823185603        7.4051110300       -8.8309566049  CLST         621          1.0000000000
      1862       621  TIP3  H1            1.1338585467        8.0876485661       -8.1728374749  CLST         621          1.0000000000
      1863       621  TIP3  H2            0.6950416246        8.0945459110       -9.5283346402  CLST         621          1.0000000000
      1864       622  TIP3  OH2           2.0145371790       10.5506326179        3.8639203591  CLST         622          1.0000000000
      1865       622  TIP3  H1            2.5172427967       10.2256082439        4.6439092780  CLST         622          1.0000000000
      1866       622  TIP3  H2            1.3209428061       10.1425499304        4.4247506590  CLST         622          1.0000000000
      1867       623  TIP3  OH2          -0.1649375249       12.1531384506        2.6358136702  CLST         623          1.0000000000
      1868       623  TIP3  H1            0.5149390544       12.1919407364        1.9216514600  CLST         623          1.0000000000
      1869       623  TIP3  H2            0.6483813307       11.7351544088        3.0637879090  CLST         623          1.0000000000
      1870       624  TIP3  OH2          -8.9220599097       -1.8809685899       -3.9774621722  CLST         624          1.0000000000
      1871       624  TIP3  H1           -8.6329013109       -1.2646626550       -4.6805170610  CLST         624          1.0000000000
      1872       624  TIP3  H2           -9.7134437174       -1.3139701703       -4.0439554297  CLST         624          1.0000000000
      1873       625  TIP3  OH2          -9.7391054177      -13.0590002403       -9.0213044509  CLST         625          1.0000000000
      1874       625  TIP3  H1          -10.0758592878      -12.3320033264       -8.4101856704  CLST         625          1.0000000000
      1875       625  TIP3  H2           -9.4946015867      -13.4740733349       -8.1794988035  CLST         625          1.0000000000
      1876       626  TIP3  OH2          13.2245650947       -5.5193532319       -2.7282925281  CLST         626          1.0000000000
      1877       626  TIP3  H1           12.7106324842       -6.2005459557       -3.1900896142  CLST         626          1.0000000000
      1878       626  TIP3  H2           13.6506193700       -5.4070568463       -3.5602361445  CLST         626          1.0000000000
      1879       627  TIP3  OH2          -0.9751870703      -11.2250317884        7.8879935168  CLST         627          1.0000000000
      1880       627  TIP3  H1           -0.0947083870      -11.4123277660        8.2755289745  CLST         627          1.0000000000
      1881       627  TIP3  H2           -0.9518042326      -12.1862861127        7.9551088596  CLST         627          1.0000000000
      1882       628  TIP3  OH2           7.0692965221        8.9689165095       -8.9586789192  CLST         628          1.0000000000
      1883       628  TIP3  H1            6.8063301806        9.7668752899       -9.4367086589  CLST         628          1.0000000000
      1884       628  TIP3  H2            6.9055941762        9.5634326559       -8.1998444562  CLST         628          1.0000000000
      1885       629  TIP3  OH2          -9.8917285892        0.0770516236       -9.7904325105  CLST         629          1.0000000000
      1886       629  TIP3  H1           -9.0982569166        0.2235387321      -10.3690009408  CLST         629          1.0000000000
      1887       629  TIP3  H2           -9.2325645646       -0.5755773681       -9.5046803841  CLST         629          1.0000000000
      1888       630  TIP3  OH2          11.7823333143       12.0638405491       11.6455905235  CLST         630          1.0000000000
      1889       630  TIP3  H1           11.1010542526       12.7316222594       11.4018976795  CLST         630          1.0000000000
      1890       630  TIP3  H2           10.9882437946       11.7279348538       12.1474895527  CLST         630          1.0000000000
      1891       631  TIP3  OH2         -12.1049220409      -11.3271197070      -11.5789926432  CLST         631          1.0000000000
      1892       631  TIP3  H1          -12.2893194264      -11.1486413668      -12.4741280593  CLST         631          1.0000000000
      1893       631  TIP3  H2          -12.5205298522      -12.1827923988      -11.6008429091  CLST         631          1.0000000000
      1894       632  TIP3  OH2          11.0296765242        2.2984172598        9.2374552983  CLST         632          1.0000000000
      1895       632  TIP3  H1           11.8170260328        1.8905397662        9.6746657791  CLST         632          1.0000000000
      1896       632  TIP3  H2           11.0760532354        1.5073874553        8.6970574067  CLST         632          1.0000000000
      1897       633  TIP3  OH2          -4.5290749079        6.4709099431       10.4113298064  CLST         633          1.0000000000
      1898       633  TIP3  H1           -4.3815918968        5.5235901878       10.4912805464  CLST         633          1.0000000000
      1899       633  TIP3  H2           -5.4164962232        6.2303771234       10.0726521738  CLST         633          1.0000000000
      1900       634  TIP3  OH2          -2.4944879429       -7.2070098914        6.6852590753  CLST         634          1.0000000000
      1901       634  TIP3  H1           -2.4885360761       -8.0944171347        7.0761145128  CLST         634          1.0000000000
      1902       634  TIP3  H2           -2.0768121014       -6.9339985056        7.5469996387  CLST         634          1.0000000000
      1903       635  TIP3  OH2           2.6790640487        2.8033246857       -2.1407614162  CLST         635          1.0000000000
      1904       635  TIP3  H1            2.4202878432        3.6544846493       -2.5898740906  CLST         635          1.0000000000
      1905       635  TIP3  H2            2.3063281383        2.4354477029       -2.9976441740  CLST         635          1.0000000000
      1906       636  TIP3  OH2           5.1681264190       -2.6297967999      -10.2247814704  CLST         636          1.0000000000
      1907       636  TIP3  H1            4.6879604509       -2.1413683817      -10.9830947169  CLST         636          1.0000000000
      1908       636  TIP3  H2            5.1164153677       -1.6746849264       -9.8953499184  CLST         636          1.0000000000
      1909       637  TIP3  OH2           3.6420360635       11.1346518381      -10.6623518312  CLST         637          1.0000000000
      1910       637  TIP3  H1            4.3088131257       11.5928876415      -10.1162160867  CLST         637          1.0000000000
      1911       637  TIP3  H2            3.5051036104       10.6755078902       -9.8368540499  CLST         637          1.0000000000
      1912       638  TIP3  OH2           8.8879185612      -12.0983223018       -7.1879819154  CLST         638          1.0000000000
      1913       638  TIP3  H1            8.5695571878      -12.4810268357       -8.0324656226  CLST         638          1.0000000000
      1914       638  TIP3  H2            9.5668208681      -11.7240746441       -7.8503192260  CLST         638          1.0000000000
      1915       639  TIP3  OH2           7.5191348912      -13.3692014400       -9.1771740910  CLST         639          1.0000000000
      1916       639  TIP3  H1            6.5618049705      -13.5925841205       -9.0480240867  CLST         639          1.0000000000
      1917       639  TIP3  H2            7.6125674857      -14.3374473846       -9.2301057473  CLST         639          1.0000000000
      1918       640  TIP3  OH2          -9.8965496894       -3.1507350186      -10.2378464483  CLST         640          1.0000000000
      1919       640  TIP3  H1           -9.0508407765       -3.0179041906       -9.6814340407  CLST         640          1.0000000000
      1920       640  TIP3  H2          -10.2485554630       -3.0783913952       -9.3238732055  CLST         640          1.0000000000
      1921       641  TIP3  OH2         -13.8488932655       -2.7438985196      -13.3035929037  CLST         641          1.0000000000
      1922       641  TIP3  H1          -13.5152970202       -3.6458834573      -13.0062325287  CLST         641          1.0000000000
      1923       641  TIP3  H2          -12.7015308793       -2.9756734056      -13.3530913873  CLST         641          1.0000000000
      1924       642  TIP3  OH2          -2.1291304770        2.0039438105       11.1457237685  CLST         642          1.0000000000
      1925       642  TIP3  H1           -1.3739168134        1.7326305383       11.7170010617  CLST         642          1.0000000000
      1926       642  TIP3  H2           -2.6083778462        1.6556577333       11.8960051952  CLST         642          1.0000000000
      1927       643  TIP3  OH2         -14.0362489508       -2.7954506804        3.5334897276  CLST         643          1.0000000000
      1928       643  TIP3  H1          -13.5431990272       -2.2414918478        4.1719712166  CLST         643          1.0000000000
      1929       643  TIP3  H2          -14.7536666195       -2.3082335759        3.9647180782  CLST         643          1.0000000000
      1930       644  TIP3  OH2          12.8485446227       -2.8082694222        1.0533419130  CLST         644          1.0000000000
      1931       644  TIP3  H1           13.5357916649       -2.1255307484        1.1487260003  CLST         644          1.0000000000
      1932       644  TIP3  H2           13.4753095755       -3.3990907085        0.5590256888  CLST         644          1.0000000000
      1933       645  TIP3  OH2          -6.7995822930        6.3935122352        8.9196108257  CLST         645          1.0000000000
      1934       645  TIP3  H1           -7.2858543146        6.3905065325        8.0811803924  CLST         645          1.0000000000
      1935       645  TIP3  H2           -6.6915793027        5.4030362699        8.8322018872  CLST         645          1.0000000000
      1936       646  TIP3  OH2           7.0527968882      -11.2252567823       11.9763648766  CLST         646          1.0000000000
      1937       646  TIP3  H1            6.1277991572      -11.4809492862       11.8169601376  CLST         646          1.0000000000
      1938       646  TIP3  H2            7.3846591860      -12.1109335731       11.7430521460  CLST         646          1.0000000000
      1939       647  TIP3  OH2         -13.0461081552       -9.1594034167       -7.4854232526  CLST         647          1.0000000000
      1940       647  TIP3  H1          -13.5118504393       -9.3535049597       -6.6404943917  CLST         647          1.0000000000
      1941       647  TIP3  H2          -12.3013902586       -9.3240199134       -6.8731876793  CLST         647          1.0000000000
      1942       648  TIP3  OH2         -13.6662233817        3.3763379021       -6.2383105194  CLST         648          1.0000000000
      1943       648  TIP3  H1          -14.5467418868        3.6908251527       -6.0307764690  CLST         648          1.0000000000
      1944       648  TIP3  H2          -13.5095687267        3.2540703176       -5.2479860263  CLST         648          1.0000000000
      1945       649  TIP3  OH2          -1.7476415461       -3.4286704795       -7.2935847642  CLST         649          1.0000000000
      1946       649  TIP3  H1           -0.8904052399       -2.9993599021       -7.1566927323  CLST         649          1.0000000000
      1947       649  TIP3  H2           -1.2694874797       -4.1079531901       -7.8105504644  CLST         649          1.0000000000
      1948       650  TIP3  OH2          -4.5544528760       -3.3178355945      -11.7050791066  CLST         650          1.0000000000
      1949       650  TIP3  H1           -3.6433090393       -3.1361349128      -11.4089319203  CLST         650          1.0000000000
      1950       650  TIP3  H2           -4.5813608054       -2.3418558374      -11.4738852797  CLST         650          1.0000000000
      1951       651  TIP3  OH2           1.1356707081       -4.2753015715       14.1283647121  CLST         651          1.0000000000
      1952       651  TIP3  H1            0.2078846259       -4.6233527436       14.0411073239  CLST         651          1.0000000000
      1953       651  TIP3  H2            1.1320890138       -4.3841994817       15.1037045819  CLST         651          1.0000000000
      1954       652  TIP3  OH2           2.2710375696       -9.0271987800       10.0354747834  CLST         652          1.0000000000
      1955       652  TIP3  H1            2.2143022069       -8.4209774298       10.7872877753  CLST         652          1.0000000000
      1956       652  TIP3  H2            2.0954544274       -8.2602244694        9.4751640916  CLST         652          1.0000000000
      1957       653  TIP3  OH2          13.6384687402        1.0963027763       -2.5708506747  CLST         653          1.0000000000
      1958       653  TIP3  H1           12.6434361541        0.9717032561       -2.6711165385  CLST         653          1.0000000000
      1959       653  TIP3  H2           13.5204934983        1.2705370836       -3.5435823352  CLST         653          1.0000000000
      1960       654  TIP3  OH2          -5.8635062761        9.0033292757       12.9446469819  CLST         654          1.0000000000
      1961       654  TIP3  H1           -4.9659996115        9.2742779245       13.2474968917  CLST         654          1.0000000000
      1962       654  TIP3  H2           -5.6890220947        8.5339652746       12.1717661387  CLST         654          1.0000000000
      1963       655  TIP3  OH2          -4.1626245217        1.3521325676       12.6861331228  CLST         655          1.0000000000
      1964       655  TIP3  H1           -4.3879242178        0.4716614663       12.3069237207  CLST         655          1.0000000000
      1965       655  TIP3  H2           -5.0241794299        1.1497891108       13.1513980943  CLST         655          1.0000000000
      1966       656  TIP3  OH2         -14.1320084647       -4.3362757683      -10.8020283607  CLST         656          1.0000000000
      1967       656  TIP3  H1          -15.0062615044       -4.0373842874      -11.0461784397  CLST         656          1.0000000000
      1968       656  TIP3  H2          -14.1607725714       -5.0043300482      -11.4794541686  CLST         656          1.0000000000
      1969       657  TIP3  OH2           4.6067152659       -0.9558216320        5.2587814794  CLST         657          1.0000000000
      1970       657  TIP3  H1            5.1502169953       -0.2450291039        5.6990938991  CLST         657          1.0000000000
      1971       657  TIP3  H2            3.8862689910       -0.5205480222        5.7608625259  CLST         657          1.0000000000
      1972       658  TIP3  OH2         -13.9942058389       -7.1549502477       -4.8063800744  CLST         658          1.0000000000
      1973       658  TIP3  H1          -13.8412559330       -6.3460166691       -5.3094254739  CLST         658          1.0000000000
      1974       658  TIP3  H2          -14.8559184492       -7.0796509572       -5.2470525298  CLST         658          1.0000000000
      1975       659  TIP3  OH2           9.3887956330      -13.2800413965        9.7774830193  CLST         659          1.0000000000
      1976       659  TIP3  H1            8.9721093928      -12.6290540850        9.1878418022  CLST         659          1.0000000000
      1977       659  TIP3  H2            8.5127586404      -13.7469655245        9.8450114575  CLST         659          1.0000000000
      1978       660  TIP3  OH2         -14.5689699935       -8.9187517967        6.5274395938  CLST         660          1.0000000000
      1979       660  TIP3  H1          -15.0086980473       -9.6606319371        7.0218719246  CLST         660          1.0000000000
      1980       660  TIP3  H2          -13.9462226509       -8.9462771793        7.2642788212  CLST         660          1.0000000000
      1981       661  TIP3  OH2           2.9531184725        1.1034402799       -4.6240882038  CLST         661          1.0000000000
      1982       661  TIP3  H1            2.4806747691        1.8820330009       -4.8869461815  CLST         661          1.0000000000
      1983       661  TIP3  H2            2.3446229118        0.3858249928       -4.7785569501  CLST         661          1.0000000000
      1984       662  TIP3  OH2          -8.7436751972       -5.0899336908        1.1782020191  CLST         662          1.0000000000
      1985       662  TIP3  H1           -9.4461013902       -5.4241762750        0.5175216868  CLST         662          1.0000000000
      1986       662  TIP3  H2           -9.1268657653       -4.1931563167        0.9445313375  CLST         662          1.0000000000
      1987       663  TIP3  OH2           6.0645728141       -1.8306333776        3.3653527037  CLST         663          1.0000000000
      1988       663  TIP3  H1            5.9005457857       -1.7065946073        4.3118990469  CLST         663          1.0000000000
      1989       663  TIP3  H2            6.0722161450       -2.7876963865        3.4148331791  CLST         663          1.0000000000
      1990       664  TIP3  OH2          10.1983265883      -14.3697144371        2.3527182042  CLST         664          1.0000000000
      1991       664  TIP3  H1            9.8115264253      -13.8812788508        3.1020661015  CLST         664          1.0000000000
      1992       664  TIP3  H2            9.8311918228      -15.1037045819        2.8763478400  CLST         664          1.0000000000
      1993       665  TIP3  OH2           9.4443701226       10.3996022442      -14.1819478922  CLST         665          1.0000000000
      1994       665  TIP3  H1            8.9836726977        9.5566246664      -14.1304475880  CLST         665          1.0000000000
      1995       665  TIP3  H2            8.7251983162       10.6436357263      -14.7702230423  CLST         665          1.0000000000
      1996       666  TIP3  OH2         -11.5936685622       -7.6902996787       -9.0952564901  CLST         666          1.0000000000
      1997       666  TIP3  H1          -11.6122657146       -6.9525142953       -8.4686117090  CLST         666          1.0000000000
      1998       666  TIP3  H2          -12.3286953641       -8.0367726662       -8.5818235549  CLST         666          1.0000000000
      1999       667  TIP3  OH2         -11.2398648457        5.4477154918        7.8427889646  CLST         667          1.0000000000
      2000       667  TIP3  H1          -11.4102318382        4.7538912711        8.4671417452  CLST         667          1.0000000000
      2001       667  TIP3  H2          -10.8881190559        5.9262202872        8.6328066837  CLST         667          1.0000000000
      2002       668  TIP3  OH2         -12.6495366566        0.0268254905        0.2474599033  CLST         668          1.0000000000
      2003       668  TIP3  H1          -13.1961959749        0.4697031530        0.8968098687  CLST         668          1.0000000000
      2004       668  TIP3  H2          -13.3979264686        0.2485457307       -0.3488734460  CLST         668          1.0000000000
      2005       669  TIP3  OH2          -3.5607196716      -11.7194060882        5.0947759125  CLST         669          1.0000000000
      2006       669  TIP3  H1           -3.8299582164      -12.2466819491        4.3291689988  CLST         669          1.0000000000
      2007       669  TIP3  H2           -3.8895940835      -10.9847899027        4.5012575033  CLST         669          1.0000000000
      2008       670  TIP3  OH2          -6.3320588609       -2.3672018656        1.2852463611  CLST         670          1.0000000000
      2009       670  TIP3  H1           -7.1677623042       -1.9029869599        1.3176350204  CLST         670          1.0000000000
      2010       670  TIP3  H2           -6.2099247073       -1.8619060201        0.4565435613  CLST         670          1.0000000000
      2011       671  TIP3  OH2           4.0641670071       -9.2708609301      -10.9942663743  CLST         671          1.0000000000
      2012       671  TIP3  H1            3.7308760931       -9.0145925937      -10.1211711124  CLST         671          1.0000000000
      2013       671  TIP3  H2            4.9306756007       -8.8960925239      -11.1590260514  CLST         671          1.0000000000
      2014       672  TIP3  OH2          11.8755463926      -12.7821939156        9.1120860614  CLST         672          1.0000000000
      2015       672  TIP3  H1           11.1904533941      -13.3210698350        9.5685054527  CLST         672          1.0000000000
      2016       672  TIP3  H2           12.4669922884      -13.1302698483        9.7954565990  CLST         672          1.0000000000
      2017       673  TIP3  OH2           6.8626320347       -4.4118700103        6.9067265785  CLST         673          1.0000000000
      2018       673  TIP3  H1            7.4907010262       -3.6561414700        6.8480372599  CLST         673          1.0000000000
      2019       673  TIP3  H2            7.5267736156       -4.8115617323        7.4723912428  CLST         673          1.0000000000
      2020       674  TIP3  OH2          -4.0929705297       -0.8980900639        3.0450775808  CLST         674          1.0000000000
      2021       674  TIP3  H1           -3.3604143454       -1.2379667579        3.4916854171  CLST         674          1.0000000000
      2022       674  TIP3  H2           -4.2493383748       -1.6272357285        2.3973095749  CLST         674          1.0000000000
      2023       675  TIP3  OH2          -9.4413219415        2.3035124943       -3.4288191145  CLST         675          1.0000000000
      2024       675  TIP3  H1           -8.8659707771        1.5692557875       -3.0811944114  CLST         675          1.0000000000
      2025       675  TIP3  H2           -9.9208571212        2.0578886393       -2.5830927213  CLST         675          1.0000000000
      2026       676  TIP3  OH2         -13.5947351284       -0.0849520241      -13.6708734186  CLST         676          1.0000000000
      2027       676  TIP3  H1          -13.7910401205       -0.9028110004      -13.6208929609  CLST         676          1.0000000000
      2028       676  TIP3  H2          -13.2477776982       -0.7072785993      -12.7291178831  CLST         676          1.0000000000
      2029       677  TIP3  OH2           1.7557187404      -12.1693797683        2.2726298233  CLST         677          1.0000000000
      2030       677  TIP3  H1            1.8342923136      -12.3286248624        1.3394825114  CLST         677          1.0000000000
      2031       677  TIP3  H2            1.4706247093      -13.0363796313        2.4683446434  CLST         677          1.0000000000
      2032       678  TIP3  OH2          11.3471691290       -7.0680311579       -8.5110159282  CLST         678          1.0000000000
      2033       678  TIP3  H1           12.3085169737       -7.1821617744       -8.5554015176  CLST         678          1.0000000000
      2034       678  TIP3  H2           11.5893340034       -6.2975629430       -9.0466574461  CLST         678          1.0000000000
      2035       679  TIP3  OH2           7.4766541484       -9.8808158199      -14.2937616057  CLST         679          1.0000000000
      2036       679  TIP3  H1            7.1970939060       -9.0330212806      -14.6781409429  CLST         679          1.0000000000
      2037       679  TIP3  H2            6.5765387325      -10.1468166283      -14.5802326073  CLST         679          1.0000000000
      2038       680  TIP3  OH2           9.8518799678       -8.1269504084       -1.6357935302  CLST         680          1.0000000000
      2039       680  TIP3  H1            9.9530582465       -9.1253874050       -1.7676342226  CLST         680          1.0000000000
      2040       680  TIP3  H2            9.3875470569       -8.1595181283       -2.4910216211  CLST         680          1.0000000000
      2041       681  TIP3  OH2           7.4862204121        9.3142591742       11.2811048405  CLST         681          1.0000000000
      2042       681  TIP3  H1            7.6696553432        8.3894848081       10.9969074058  CLST         681          1.0000000000
      2043       681  TIP3  H2            8.3688823269        9.4354854321       10.9046225679  CLST         681          1.0000000000
      2044       682  TIP3  OH2           7.9062981175       14.1070764227        1.8616310756  CLST         682          1.0000000000
      2045       682  TIP3  H1            7.1373847576       13.8798534851        1.3406601422  CLST         682          1.0000000000
      2046       682  TIP3  H2            7.3175755077       14.6665478128        2.3378695085  CLST         682          1.0000000000
      2047       683  TIP3  OH2           3.3813967494       11.6793810092      -15.0834443933  CLST         683          1.0000000000
      2048       683  TIP3  H1            3.0304757118       11.7494700293      -14.1794107354  CLST         683          1.0000000000
      2049       683  TIP3  H2            3.4374661404       10.7725336572      -14.8074158516  CLST         683          1.0000000000
      2050       684  TIP3  OH2          12.4389091490        2.8250102609      -12.4660715199  CLST         684          1.0000000000
      2051       684  TIP3  H1           11.8326198702        2.3005640522      -11.9732847887  CLST         684          1.0000000000
      2052       684  TIP3  H2           12.8791510184        2.9497984559      -11.5911788614  CLST         684          1.0000000000
      2053       685  TIP3  OH2           3.9364767601       13.4384477169        2.2792609088  CLST         685          1.0000000000
      2054       685  TIP3  H1            3.9582562976       12.4711335025        2.1066397932  CLST         685          1.0000000000
      2055       685  TIP3  H2            3.3398342172       13.5208391909        1.5152993426  CLST         685          1.0000000000
      2056       686  TIP3  OH2          -1.7225053437      -11.9481205269       -5.5377620710  CLST         686          1.0000000000
      2057       686  TIP3  H1           -1.8718024209      -12.3023636103       -4.6660722406  CLST         686          1.0000000000
      2058       686  TIP3  H2           -2.4047669913      -12.5880683415       -5.8601242301  CLST         686          1.0000000000
      2059       687  TIP3  OH2           2.3269327107       10.9660639238       -5.5724027011  CLST         687          1.0000000000
      2060       687  TIP3  H1            2.2315069319       10.9460540660       -4.6261081935  CLST         687          1.0000000000
      2061       687  TIP3  H2            3.0503401348       11.5720784730       -5.3481639315  CLST         687          1.0000000000
      2062       688  TIP3  OH2          -4.6685499780       -0.7956102272      -10.2261597881  CLST         688          1.0000000000
      2063       688  TIP3  H1           -4.4177903573       -0.5232836460       -9.3187528928  CLST         688          1.0000000000
      2064       688  TIP3  H2           -3.8754203531       -0.5581755610      -10.7228714897  CLST         688          1.0000000000
      2065       689  TIP3  OH2         -11.4994378622       -2.5873643723       -7.6708205548  CLST         689          1.0000000000
      2066       689  TIP3  H1          -12.1707552879       -2.2757544246       -7.0022685352  CLST         689          1.0000000000
      2067       689  TIP3  H2          -12.0651749454       -2.1591684992       -8.3531170431  CLST         689          1.0000000000
      2068       690  TIP3  OH2           9.1971451771      -12.4721336757        4.1327107037  CLST         690          1.0000000000
      2069       690  TIP3  H1            9.7857235209      -12.3952892309        4.9707449564  CLST         690          1.0000000000
      2070       690  TIP3  H2            9.6987590107      -11.7110411367        3.8197577019  CLST         690          1.0000000000
      2071       691  TIP3  OH2          -0.7090818415       10.1657556944       13.6289668594  CLST         691          1.0000000000
      2072       691  TIP3  H1           -0.4717178948       11.0165540092       13.2717369208  CLST         691          1.0000000000
      2073       691  TIP3  H2           -0.1581006784       10.3808232324       14.3869842087  CLST         691          1.0000000000
      2074       692  TIP3  OH2           1.3827390068       -6.8083663040        8.5670356586  CLST         692          1.0000000000
      2075       692  TIP3  H1            0.4098353597       -6.8157827143        8.7003764101  CLST         692          1.0000000000
      2076       692  TIP3  H2            1.3103303915       -5.8453874077        8.8197176034  CLST         692          1.0000000000
      2077       693  TIP3  OH2          -9.3086084772       -4.3565946269       -2.8991493697  CLST         693          1.0000000000
      2078       693  TIP3  H1           -8.4851200585       -4.2679499352       -2.3695031686  CLST         693          1.0000000000
      2079       693  TIP3  H2           -8.9710594348       -3.6446535142       -3.4767059808  CLST         693          1.0000000000
      2080       694  TIP3  OH2          -1.7567774496       11.6004338571        5.7622745225  CLST         694          1.0000000000
      2081       694  TIP3  H1           -2.3629790755       12.3972177091        5.6539941467  CLST         694          1.0000000000
      2082       694  TIP3  H2           -1.1302387670       12.3601659016        5.6822686463  CLST         694          1.0000000000
      2083       695  TIP3  OH2           1.6768807539       10.4374094515        8.0057183777  CLST         695          1.0000000000
      2084       695  TIP3  H1            1.2455570420       10.2054229997        7.1493207428  CLST         695          1.0000000000
      2085       695  TIP3  H2            0.9425309829        9.9431921353        8.3857648272  CLST         695          1.0000000000
      2086       696  TIP3  OH2          -4.2530225315        3.1164741981       -6.0687447820  CLST         696          1.0000000000
      2087       696  TIP3  H1           -3.7035450863        3.8250976273       -6.2908652790  CLST         696          1.0000000000
      2088       696  TIP3  H2           -4.4012544117        3.4772199622       -5.2083317721  CLST         696          1.0000000000
      2089       697  TIP3  OH2           2.7356598367        5.6426311798       11.9309640730  CLST         697          1.0000000000
      2090       697  TIP3  H1            2.1259484549        5.6741385107       11.2032676939  CLST         697          1.0000000000
      2091       697  TIP3  H2            3.4307787719        5.2710085361       11.3669452102  CLST         697          1.0000000000
      2092       698  TIP3  OH2          -3.6000114034        5.1324882213       -1.1389071422  CLST         698          1.0000000000
      2093       698  TIP3  H1           -3.9526120141        4.1109093938       -1.4602614697  CLST         698          1.0000000000
      2094       698  TIP3  H2           -4.4161719679        5.0216754506       -1.3224875572  CLST         698          1.0000000000
      2095       699  TIP3  OH2          -1.4325063590       -4.7328849190        3.5714246605  CLST         699          1.0000000000
      2096       699  TIP3  H1           -2.2770830723       -4.3319692860        3.6622252378  CLST         699          1.0000000000
      2097       699  TIP3  H2           -1.0449489095       -4.5147430446        2.7359172163  CLST         699          1.0000000000
      2098       700  TIP3  OH2          -5.1052187181       -8.2526159506        8.7982050091  CLST         700          1.0000000000
      2099       700  TIP3  H1           -5.1576966864       -7.6857121245        8.0036236257  CLST         700          1.0000000000
      2100       700  TIP3  H2           -4.3419050023       -8.7741065368        8.5145890887  CLST         700          1.0000000000
      2101       701  TIP3  OH2         -14.0746355469       10.2986644221        0.2122408606  CLST         701          1.0000000000
      2102       701  TIP3  H1          -13.8181751152        9.5027041057       -0.3541920089  CLST         701          1.0000000000
      2103       701  TIP3  H2          -14.9169923954       10.3826092286       -0.1983950483  CLST         701          1.0000000000
      2104       702  TIP3  OH2          -5.5341607330       -9.6245410014      -12.5532812603  CLST         702          1.0000000000
      2105       702  TIP3  H1           -5.5932527752       -9.8684261350      -11.5775815219  CLST         702          1.0000000000
      2106       702  TIP3  H2           -6.5128799484       -9.5507249907      -12.5219272576  CLST         702          1.0000000000
      2107       703  TIP3  OH2           3.7815285574        6.1504816014       -4.3119381915  CLST         703          1.0000000000
      2108       703  TIP3  H1            2.9087505246        6.3433989497       -3.8649637177  CLST         703          1.0000000000
      2109       703  TIP3  H2            3.3917233618        7.2466330665       -4.0308591549  CLST         703          1.0000000000
      2110       704  TIP3  OH2         -10.0601746922        5.0558845580       11.7647073575  CLST         704          1.0000000000
      2111       704  TIP3  H1          -10.3027771367        5.7477812157       12.3716318519  CLST         704          1.0000000000
      2112       704  TIP3  H2          -10.0267084827        5.7769145036       11.1295017683  CLST         704          1.0000000000
      2113       705  TIP3  OH2          -0.8136899211       -9.0284490157       -7.0554161032  CLST         705          1.0000000000
      2114       705  TIP3  H1           -0.8771192724       -9.8883350156       -7.5207437703  CLST         705          1.0000000000
      2115       705  TIP3  H2           -0.4561031318       -8.7572331635       -7.9405502248  CLST         705          1.0000000000
      2116       706  TIP3  OH2          -2.0715939794       -1.6140619979        4.3055130377  CLST         706          1.0000000000
      2117       706  TIP3  H1           -1.9255196934       -0.6848203139        4.5826891086  CLST         706          1.0000000000
      2118       706  TIP3  H2           -1.1409497644       -1.6940583553        4.5859373169  CLST         706          1.0000000000
      2119       707  TIP3  OH2           8.7397113458       11.0112106735        7.1483580466  CLST         707          1.0000000000
      2120       707  TIP3  H1            8.4681600506       11.4223680224        6.3437146720  CLST         707          1.0000000000
      2121       707  TIP3  H2            7.8917770105       10.5554665400        7.0492763302  CLST         707          1.0000000000
      2122       708  TIP3  OH2          -0.9479443536       -7.6832337075      -12.3027603206  CLST         708          1.0000000000
      2123       708  TIP3  H1           -1.9002782570       -7.9500761053      -12.4889104584  CLST         708          1.0000000000
      2124       708  TIP3  H2           -1.0746448266       -7.3820847181      -13.2116004194  CLST         708          1.0000000000
      2125       709  TIP3  OH2          -6.4130915481       14.3284690314        0.4565585243  CLST         709          1.0000000000
      2126       709  TIP3  H1           -5.4473127092       14.3336135022        0.6530806348  CLST         709          1.0000000000
      2127       709  TIP3  H2           -6.4918889888       14.5555434749        1.3672652032  CLST         709          1.0000000000
      2128       710  TIP3  OH2          -0.8880013461       14.1531084206      -10.6573045116  CLST         710          1.0000000000
      2129       710  TIP3  H1           -0.3468810803       13.7703311793      -11.3614619132  CLST         710          1.0000000000
      2130       710  TIP3  H2           -1.4463184190       13.3946371242      -10.8836490512  CLST         710          1.0000000000
      2131       711  TIP3  OH2          11.8437821706      -11.6727175542      -10.8905375108  CLST         711          1.0000000000
      2132       711  TIP3  H1           11.8637023222      -12.6379891711      -11.0023689721  CLST         711          1.0000000000
      2133       711  TIP3  H2           12.3524935246      -11.5323188510      -11.6524535247  CLST         711          1.0000000000
      2134       712  TIP3  OH2          -3.6648103134      -10.6997866103       11.5268490358  CLST         712          1.0000000000
      2135       712  TIP3  H1           -4.1953412748      -10.1164163344       11.0059717916  CLST         712          1.0000000000
      2136       712  TIP3  H2           -2.9028649604      -10.4419558615       11.0235689944  CLST         712          1.0000000000
      2137       713  TIP3  OH2           6.9384241004        0.3212684768        6.4627847497  CLST         713          1.0000000000
      2138       713  TIP3  H1            7.4147847704        0.4779911037        7.2873470310  CLST         713          1.0000000000
      2139       713  TIP3  H2            7.5546210492       -0.4357536142        6.4847897899  CLST         713          1.0000000000
      2140       714  TIP3  OH2           4.9508346357       12.2654571153        4.5840794322  CLST         714          1.0000000000
      2141       714  TIP3  H1            4.3751779228       12.8052445426        3.9473773699  CLST         714          1.0000000000
      2142       714  TIP3  H2            4.2924364423       12.7308856143        5.1775960713  CLST         714          1.0000000000
      2143       715  TIP3  OH2          -9.1940803000       -9.5909785259        1.6114204693  CLST         715          1.0000000000
      2144       715  TIP3  H1           -9.8243017364       -8.8469017065        1.7599758137  CLST         715          1.0000000000
      2145       715  TIP3  H2           -9.7737708209      -10.1158939513        2.2245109661  CLST         715          1.0000000000
      2146       716  TIP3  OH2         -13.7187019611      -13.3235973607        0.0936993992  CLST         716          1.0000000000
      2147       716  TIP3  H1          -13.7296071791      -13.7455418198       -0.7877538139  CLST         716          1.0000000000
      2148       716  TIP3  H2          -13.7399956637      -12.5246769545       -0.4968630909  CLST         716          1.0000000000
      2149       717  TIP3  OH2          -6.4093217480      -12.1220696988        2.4749532149  CLST         717          1.0000000000
      2150       717  TIP3  H1           -6.4912788488      -11.3506946968        1.8835341077  CLST         717          1.0000000000
      2151       717  TIP3  H2           -7.2588788489      -12.3326027201        2.1049759509  CLST         717          1.0000000000
      2152       718  TIP3  OH2         -11.0522808379        7.1357755512       13.2575124843  CLST         718          1.0000000000
      2153       718  TIP3  H1          -11.6144830712        7.9172387376       13.5935841670  CLST         718          1.0000000000
      2154       718  TIP3  H2          -10.2925995478        7.7669292243       13.3694904258  CLST         718          1.0000000000
      2155       719  TIP3  OH2          10.4080204395       -7.2047112830        3.0491049980  CLST         719          1.0000000000
      2156       719  TIP3  H1           11.4285340731       -7.2158861641        3.1621569727  CLST         719          1.0000000000
      2157       719  TIP3  H2           10.6174354103       -7.0285458147        2.0992940502  CLST         719          1.0000000000
      2158       720  TIP3  OH2          -4.9057447161       13.0131764543       -8.6102109480  CLST         720          1.0000000000
      2159       720  TIP3  H1           -3.9263839181       13.0831454668       -8.5216924199  CLST         720          1.0000000000
      2160       720  TIP3  H2           -4.8966981316       13.4674903723       -7.7333064737  CLST         720          1.0000000000
      2161       721  TIP3  OH2           4.1495454812       -5.9374196807       -9.8668191285  CLST         721          1.0000000000
      2162       721  TIP3  H1            4.4065147508       -5.6505854694       -8.9436144124  CLST         721          1.0000000000
      2163       721  TIP3  H2            4.9336375432       -6.5197841340       -9.7696744293  CLST         721          1.0000000000
      2164       722  TIP3  OH2          10.3082045468       -2.7406810012        2.0671549602  CLST         722          1.0000000000
      2165       722  TIP3  H1            9.9597491212       -3.2553319456        1.3244056428  CLST         722          1.0000000000
      2166       722  TIP3  H2           11.1846406755       -2.6446840760        1.6858212191  CLST         722          1.0000000000
      2167       723  TIP3  OH2           0.2771035462       13.3825553721        5.9400185233  CLST         723          1.0000000000
      2168       723  TIP3  H1            1.1942661906       13.9695398915        5.7835416291  CLST         723          1.0000000000
      2169       723  TIP3  H2            1.3835643578       13.0336696164        5.9267439360  CLST         723          1.0000000000
      2170       724  TIP3  OH2           8.3564627404       -8.2468464314       -3.9665552622  CLST         724          1.0000000000
      2171       724  TIP3  H1            8.3192031861       -8.8846542655       -4.6878298051  CLST         724          1.0000000000
      2172       724  TIP3  H2            8.4521996930       -7.6291810193       -4.6883512228  CLST         724          1.0000000000
      2173       725  TIP3  OH2          -0.9008500096       -0.3139114107        2.1421694212  CLST         725          1.0000000000
      2174       725  TIP3  H1           -1.7359466574       -0.8501449465        2.2657981486  CLST         725          1.0000000000
      2175       725  TIP3  H2           -1.4654285551        0.2970567130        1.6412693700  CLST         725          1.0000000000
      2176       726  TIP3  OH2         -14.2654989973       10.6062883102        6.1017000970  CLST         726          1.0000000000
      2177       726  TIP3  H1          -15.1037045819       10.8345318194        5.7022408451  CLST         726          1.0000000000
      2178       726  TIP3  H2          -13.9556482610       11.5562920655        5.9771413788  CLST         726          1.0000000000
      2179       727  TIP3  OH2          -4.3197356691      -13.5712133848       -0.3859650356  CLST         727          1.0000000000
      2180       727  TIP3  H1           -3.6653311002      -14.1441535639       -0.0224326146  CLST         727          1.0000000000
      2181       727  TIP3  H2           -3.7425460527      -12.9064648790        0.1049302696  CLST         727          1.0000000000
      2182       728  TIP3  OH2          -8.3627079393        3.2822952907       -0.6710134463  CLST         728          1.0000000000
      2183       728  TIP3  H1           -7.8477282754        2.4872965747       -0.3732976205  CLST         728          1.0000000000
      2184       728  TIP3  H2           -9.0735778783        2.6209268130       -0.7980342743  CLST         728          1.0000000000
      2185       729  TIP3  OH2          10.4943402882      -10.4771306942        2.8375052415  CLST         729          1.0000000000
      2186       729  TIP3  H1           10.9108555767       -9.6703575372        3.1461885707  CLST         729          1.0000000000
      2187       729  TIP3  H2           11.4083023354      -10.8507386607        2.8988005467  CLST         729          1.0000000000
      2188       730  TIP3  OH2          -4.3759370763       11.0036277376       -5.1621834655  CLST         730          1.0000000000
      2189       730  TIP3  H1           -4.4709115277       10.1948490774       -5.6914385771  CLST         730          1.0000000000
      2190       730  TIP3  H2           -5.2690752121       11.1535081110       -5.4261883854  CLST         730          1.0000000000
      2191       731  TIP3  OH2          13.1846268784       12.5616158812       -4.3906023550  CLST         731          1.0000000000
      2192       731  TIP3  H1           13.5408462021       12.9154735815       -5.1922674919  CLST         731          1.0000000000
      2193       731  TIP3  H2           12.6973215617       11.8558388341       -4.8959024107  CLST         731          1.0000000000
      2194       732  TIP3  OH2          -2.8898605852       -1.2842451433       -2.0962246312  CLST         732          1.0000000000
      2195       732  TIP3  H1           -3.7344201077       -1.0916611231       -1.3502187758  CLST         732          1.0000000000
      2196       732  TIP3  H2           -3.5626301562       -0.9232971234       -2.4003578966  CLST         732          1.0000000000
      2197       733  TIP3  OH2           5.5097922708        2.3853167394       12.8842697307  CLST         733          1.0000000000
      2198       733  TIP3  H1            5.2811837263        1.5767955064       12.4202056878  CLST         733          1.0000000000
      2199       733  TIP3  H2            4.5917457845        2.2299642685       13.2181570424  CLST         733          1.0000000000
      2200       734  TIP3  OH2           8.3635117391       -2.3239379913        5.9894391642  CLST         734          1.0000000000
      2201       734  TIP3  H1            8.3013978889       -2.9587910199        5.2224202622  CLST         734          1.0000000000
      2202       734  TIP3  H2            9.3638188868       -2.3672752023        5.8546366741  CLST         734          1.0000000000
      2203       735  TIP3  OH2         -10.8280750809      -12.6843097244        0.8857469799  CLST         735          1.0000000000
      2204       735  TIP3  H1          -10.8922627372      -12.0527911649        1.6690937830  CLST         735          1.0000000000
      2205       735  TIP3  H2          -11.7675786232      -12.7795705744        0.8298448183  CLST         735          1.0000000000
      2206       736  TIP3  OH2          13.5662662856        2.4468141091        2.8160217201  CLST         736          1.0000000000
      2207       736  TIP3  H1           13.7795376570        2.3028254231        1.8582107580  CLST         736          1.0000000000
      2208       736  TIP3  H2           12.9393777168        1.7240410940        2.6105613482  CLST         736          1.0000000000
      2209       737  TIP3  OH2          11.5672493819       -1.9199997768        7.9790635947  CLST         737          1.0000000000
      2210       737  TIP3  H1           11.2094034284       -2.1601005572        7.1190826369  CLST         737          1.0000000000
      2211       737  TIP3  H2           11.5419206343       -0.9769956990        7.7847141788  CLST         737          1.0000000000
      2212       738  TIP3  OH2          10.4419554918        1.1365161459       14.3163565556  CLST         738          1.0000000000
      2213       738  TIP3  H1            9.5944511894        0.7314012288       14.2420334851  CLST         738          1.0000000000
      2214       738  TIP3  H2           10.6616333092        0.2536219456       14.6390049685  CLST         738          1.0000000000
      2215       739  TIP3  OH2         -13.2011495756        1.4118995444       10.3113663903  CLST         739          1.0000000000
      2216       739  TIP3  H1          -14.0584406105        1.5177775275       10.7607414842  CLST         739          1.0000000000
      2217       739  TIP3  H2          -13.6907417892        0.7556493219        9.7657644107  CLST         739          1.0000000000
      2218       740  TIP3  OH2           6.0599200106      -14.3487309860       -5.1245162540  CLST         740          1.0000000000
      2219       740  TIP3  H1            5.5835726653      -15.1037045819       -5.5862218870  CLST         740          1.0000000000
      2220       740  TIP3  H2            6.8191901879      -14.8410515488       -5.5551229314  CLST         740          1.0000000000
      2221       741  TIP3  OH2          11.6516165922        4.9817900131        9.4132028255  CLST         741          1.0000000000
      2222       741  TIP3  H1           12.4553704521        4.5495750971        9.6855566856  CLST         741          1.0000000000
      2223       741  TIP3  H2           11.5775144066        4.1222486696        8.9782466827  CLST         741          1.0000000000
      2224       742  TIP3  OH2           8.3553531332       -9.6006985322       -6.3308370282  CLST         742          1.0000000000
      2225       742  TIP3  H1            8.4483111003      -10.5717493923       -6.3604026376  CLST         742          1.0000000000
      2226       742  TIP3  H2            7.6991090581       -9.7939423545       -6.9856563360  CLST         742          1.0000000000
      2227       743  TIP3  OH2          -7.3832239327       -0.2417276224      -10.8368893858  CLST         743          1.0000000000
      2228       743  TIP3  H1           -6.9359540482        0.5740287151      -10.4994324304  CLST         743          1.0000000000
      2229       743  TIP3  H2           -6.4492566607       -0.5501252264      -10.6637831119  CLST         743          1.0000000000
      2230       744  TIP3  OH2          -6.0851482558        3.7036330998        5.2545077327  CLST         744          1.0000000000
      2231       744  TIP3  H1           -5.2303491658        3.3894135587        5.6459428577  CLST         744          1.0000000000
      2232       744  TIP3  H2           -5.9636586264        4.5926965222        5.6441955356  CLST         744          1.0000000000
      2233       745  TIP3  OH2           0.3406392816       -8.3766431675        6.6098498559  CLST         745          1.0000000000
      2234       745  TIP3  H1            0.8022519974       -9.2042133233        6.6432306717  CLST         745          1.0000000000
      2235       745  TIP3  H2            1.0511277714       -8.0867856324        7.2638455870  CLST         745          1.0000000000
      2236       746  TIP3  OH2          -7.7872455686       -4.3661349345       -5.9053798335  CLST         746          1.0000000000
      2237       746  TIP3  H1           -7.8557065330       -5.1999126199       -6.4289388409  CLST         746          1.0000000000
      2238       746  TIP3  H2           -8.2694577097       -3.9199388199       -6.6118105423  CLST         746          1.0000000000
      2239       747  TIP3  OH2          11.2906313855       11.8778109542        2.1025642253  CLST         747          1.0000000000
      2240       747  TIP3  H1           10.9954034692       12.3367044198        2.9096800598  CLST         747          1.0000000000
      2241       747  TIP3  H2           11.5618305881       11.2378781672        2.7979188690  CLST         747          1.0000000000
      2242       748  TIP3  OH2           3.5317899159        4.9261859764        8.3921794973  CLST         748          1.0000000000
      2243       748  TIP3  H1            4.0949664134        4.9920419007        9.1694648579  CLST         748          1.0000000000
      2244       748  TIP3  H2            3.6753930565        5.8560777408        8.3226196401  CLST         748          1.0000000000
      2245       749  TIP3  OH2          10.8949441307        9.4960488320        6.2186742525  CLST         749          1.0000000000
      2246       749  TIP3  H1           10.6707390495        9.0378411551        6.8588318785  CLST         749          1.0000000000
      2247       749  TIP3  H2           10.1857986659       10.0127726354        6.9849343265  CLST         749          1.0000000000
      2248       750  TIP3  OH2         -14.1483567764       12.2352458730       -7.7062087572  CLST         750          1.0000000000
      2249       750  TIP3  H1          -15.1037045819       11.8973480806       -7.8840923836  CLST         750          1.0000000000
      2250       750  TIP3  H2          -14.0332340029       11.8705818675       -8.5838307621  CLST         750          1.0000000000
      2251       751  TIP3  OH2           8.6024835052        4.4543334857       -4.2808805516  CLST         751          1.0000000000
      2252       751  TIP3  H1            7.9360811488        3.8398331544       -4.5863948821  CLST         751          1.0000000000
      2253       751  TIP3  H2            9.1415178649        3.8244793240       -3.8466269626  CLST         751          1.0000000000
      2254       752  TIP3  OH2         -12.1706424027       13.1660501519        2.2483657458  CLST         752          1.0000000000
      2255       752  TIP3  H1          -12.6684598800       13.1464862895        1.4480094195  CLST         752          1.0000000000
      2256       752  TIP3  H2          -12.1449835722       12.2012781722        2.0991017816  CLST         752          1.0000000000
      2257       753  TIP3  OH2           8.8486620366        2.4898002640       -7.0663133098  CLST         753          1.0000000000
      2258       753  TIP3  H1            8.3947230083        3.3021261860       -7.4576086029  CLST         753          1.0000000000
      2259       753  TIP3  H2            8.1004151573        2.4782349111       -6.4477355767  CLST         753          1.0000000000
      2260       754  TIP3  OH2          11.4906100002        2.4305577537       -6.3288904547  CLST         754          1.0000000000
      2261       754  TIP3  H1           10.9224653201        2.1385922400       -5.5882999900  CLST         754          1.0000000000
      2262       754  TIP3  H2           10.6193192808        2.7232291850       -6.6727040843  CLST         754          1.0000000000
      2263       755  TIP3  OH2           7.5578923252       -1.8296959806       -0.3353476293  CLST         755          1.0000000000
      2264       755  TIP3  H1            6.6770114847       -1.9536396758       -0.0252383521  CLST         755          1.0000000000
      2265       755  TIP3  H2            7.3583597801       -0.8828781243       -0.3233979442  CLST         755          1.0000000000
      2266       756  TIP3  OH2         -12.7824077596        6.4920009177        5.9757719305  CLST         756          1.0000000000
      2267       756  TIP3  H1          -13.2969501854        5.9916937666        6.5957445246  CLST         756          1.0000000000
      2268       756  TIP3  H2          -12.2031573865        6.4590034532        6.7170671431  CLST         756          1.0000000000
      2269       757  TIP3  OH2          -4.6628344356       -5.0409537710       -2.2776188494  CLST         757          1.0000000000
      2270       757  TIP3  H1           -4.3586644146       -5.4736970570       -3.0721573984  CLST         757          1.0000000000
      2271       757  TIP3  H2           -4.8887976126       -4.2882640933       -2.8634844050  CLST         757          1.0000000000
      2272       758  TIP3  OH2          12.0802380412        4.4092388895       -0.8695257595  CLST         758          1.0000000000
      2273       758  TIP3  H1           12.2393808005        4.8710838603       -0.0055695501  CLST         758          1.0000000000
      2274       758  TIP3  H2           12.5085044404        3.6905238330       -0.3049609034  CLST         758          1.0000000000
      2275       759  TIP3  OH2          -7.6068636583       11.7083603831      -11.1789604732  CLST         759          1.0000000000
      2276       759  TIP3  H1           -6.9072935452       12.0020770673      -11.7621950145  CLST         759          1.0000000000
      2277       759  TIP3  H2           -7.0507567242       11.0525050879      -10.7774373321  CLST         759          1.0000000000
      2278       760  TIP3  OH2           7.9712371294       14.3695751881       -6.2622481695  CLST         760          1.0000000000
      2279       760  TIP3  H1            8.2471821467       14.2434226095       -7.2014554768  CLST         760          1.0000000000
      2280       760  TIP3  H2            7.7250584802       13.4428442721       -6.2128368409  CLST         760          1.0000000000
      2281       761  TIP3  OH2          -7.0218202962        8.1293715590      -11.4945480782  CLST         761          1.0000000000
      2282       761  TIP3  H1           -7.8435580235        7.7876287004      -11.9044470465  CLST         761          1.0000000000
      2283       761  TIP3  H2           -7.5000636018        7.9929557076      -10.6780068726  CLST         761          1.0000000000
      2284       762  TIP3  OH2           8.0020045403       -6.0855828016      -13.0967797741  CLST         762          1.0000000000
      2285       762  TIP3  H1            7.3558539894       -6.6011269206      -12.6283203756  CLST         762          1.0000000000
      2286       762  TIP3  H2            7.8327599094       -5.3155248540      -12.5266573959  CLST         762          1.0000000000
      2287       763  TIP3  OH2          -1.2205482330       -6.0452528026        8.8902562813  CLST         763          1.0000000000
      2288       763  TIP3  H1           -1.3878685096       -5.1282789631        8.6843125979  CLST         763          1.0000000000
      2289       763  TIP3  H2           -1.8143378932       -5.9356948257        9.6613908112  CLST         763          1.0000000000
      2290       764  TIP3  OH2           8.8388665321      -11.3450571626        0.7792382754  CLST         764          1.0000000000
      2291       764  TIP3  H1            8.1465696423      -10.6860849997        0.7967873882  CLST         764          1.0000000000
      2292       764  TIP3  H2            9.4171947643      -10.9413645181        1.4433079955  CLST         764          1.0000000000
      2293       765  TIP3  OH2         -14.3368964676      -12.2053960644       12.9336722136  CLST         765          1.0000000000
      2294       765  TIP3  H1          -13.7976677117      -11.5858797859       13.4444067993  CLST         765          1.0000000000
      2295       765  TIP3  H2          -15.0810687216      -11.6959472123       13.0048783857  CLST         765          1.0000000000
      2296       766  TIP3  OH2          11.7060244019       -8.3008151316      -11.9927576927  CLST         766          1.0000000000
      2297       766  TIP3  H1           11.1528462455       -8.0005313178      -12.6978492893  CLST         766          1.0000000000
      2298       766  TIP3  H2           10.8409612036       -8.5833154949      -11.6656710847  CLST         766          1.0000000000
      2299       767  TIP3  OH2           2.3351798078       12.4000202212      -12.6734166772  CLST         767          1.0000000000
      2300       767  TIP3  H1            2.6101155665       12.1005203792      -11.8424523861  CLST         767          1.0000000000
      2301       767  TIP3  H2            2.1969929658       13.2743501248      -12.3044714087  CLST         767          1.0000000000
      2302       768  TIP3  OH2           7.7522624572        7.1434685071        8.3514097047  CLST         768          1.0000000000
      2303       768  TIP3  H1            8.7342369878        7.1323188371        8.4482828784  CLST         768          1.0000000000
      2304       768  TIP3  H2            7.9303646423        6.1761882905        8.4776877979  CLST         768          1.0000000000
      2305       769  TIP3  OH2         -11.9623757594        3.1904254459        1.0857847338  CLST         769          1.0000000000
      2306       769  TIP3  H1          -11.0791549476        3.1230295573        1.4520135076  CLST         769          1.0000000000
      2307       769  TIP3  H2          -12.5935244894        3.2977117507        1.8241954677  CLST         769          1.0000000000
      2308       770  TIP3  OH2          10.1556699659       -4.6839664774       11.4812930692  CLST         770          1.0000000000
      2309       770  TIP3  H1           10.0334687971       -3.8585135529       10.9367217807  CLST         770          1.0000000000
      2310       770  TIP3  H2           10.8838288211       -4.7515332618       10.8173018018  CLST         770          1.0000000000
      2311       771  TIP3  OH2         -10.4109978931        1.1538100198       -5.6947003209  CLST         771          1.0000000000
      2312       771  TIP3  H1           -9.4805174761        0.8431707042       -5.7721993844  CLST         771          1.0000000000
      2313       771  TIP3  H2          -10.0903311005        1.4221078810       -4.8404146794  CLST         771          1.0000000000
      2314       772  TIP3  OH2          12.9589621549      -12.5579602395       -6.7027198403  CLST         772          1.0000000000
      2315       772  TIP3  H1           12.9809934494      -11.6428175766       -6.6443833087  CLST         772          1.0000000000
      2316       772  TIP3  H2           12.2238858736      -12.5123340057       -6.1190284086  CLST         772          1.0000000000
      2317       773  TIP3  OH2          12.1890963878       -4.8017323947        3.6055050267  CLST         773          1.0000000000
      2318       773  TIP3  H1           11.8284221334       -4.1502094512        4.2239412464  CLST         773          1.0000000000
      2319       773  TIP3  H2           12.2142091350       -4.4309399748        2.7574502628  CLST         773          1.0000000000
      2320       774  TIP3  OH2          -7.9629935549       -0.2561491971       -6.0156068947  CLST         774          1.0000000000
      2321       774  TIP3  H1           -6.8686344171       -0.4355082262       -6.1085344592  CLST         774          1.0000000000
      2322       774  TIP3  H2           -7.1522664097        0.4970954503       -5.8983889461  CLST         774          1.0000000000
      2323       775  TIP3  OH2           2.6202402763        1.5700927000        5.4592767229  CLST         775          1.0000000000
      2324       775  TIP3  H1            2.6313658398        1.6004395011        6.4586349215  CLST         775          1.0000000000
      2325       775  TIP3  H2            2.7395495171        2.5278651581        5.5869072258  CLST         775          1.0000000000
      2326       776  TIP3  OH2           0.2291355280        9.7200798886        5.7171677067  CLST         776          1.0000000000
      2327       776  TIP3  H1           -0.6144904751       10.2511719885        5.8508341305  CLST         776          1.0000000000
      2328       776  TIP3  H2           -0.4432917034        9.1324990782        5.3184844197  CLST         776          1.0000000000
      2329       777  TIP3  OH2         -13.1808538646      -10.1972929198        0.0398198601  CLST         777          1.0000000000
      2330       777  TIP3  H1          -12.7942109041       -9.3251642334        0.1539923273  CLST         777          1.0000000000
      2331       777  TIP3  H2          -13.2026190743      -10.2415636158        0.9923770689  CLST         777          1.0000000000
      2332       778  TIP3  OH2         -11.8069726115        5.6731154836       -0.5016614423  CLST         778          1.0000000000
      2333       778  TIP3  H1          -11.7713443790        4.8972089797        0.0966636622  CLST         778          1.0000000000
      2334       778  TIP3  H2          -11.6180741765        5.1682638133       -1.2714477577  CLST         778          1.0000000000
      2335       779  TIP3  OH2          -6.1139849324        5.1749871219       -1.6791484147  CLST         779          1.0000000000
      2336       779  TIP3  H1           -6.9671614447        4.9209588871       -1.2910664682  CLST         779          1.0000000000
      2337       779  TIP3  H2           -6.4116143649        6.0287498681       -1.2267857636  CLST         779          1.0000000000
      2338       780  TIP3  OH2           2.5071454615       13.9879046575       -8.6268156279  CLST         780          1.0000000000
      2339       780  TIP3  H1            2.1186784158       14.6184036552       -9.0284953014  CLST         780          1.0000000000
      2340       780  TIP3  H2            2.8895336637       14.2560578170       -9.6524808843  CLST         780          1.0000000000
      2341       781  TIP3  OH2           9.1091912554       -8.4786821993       -9.6662848390  CLST         781          1.0000000000
      2342       781  TIP3  H1            9.9706441462       -8.2352044200       -9.3349065402  CLST         781          1.0000000000
      2343       781  TIP3  H2            9.3531752790       -9.3462711242       -9.3525377319  CLST         781          1.0000000000
      2344       782  TIP3  OH2           0.2386871119        2.6673663701        4.4076076448  CLST         782          1.0000000000
      2345       782  TIP3  H1           -0.3632194865        1.9110427500        4.6233497901  CLST         782          1.0000000000
      2346       782  TIP3  H2            0.8306846762        2.0232101018        4.8410765278  CLST         782          1.0000000000
      2347       783  TIP3  OH2          -7.2271058419      -12.6853183243      -13.4514839808  CLST         783          1.0000000000
      2348       783  TIP3  H1           -8.0409036924      -12.3306794961      -12.9711081577  CLST         783          1.0000000000
      2349       783  TIP3  H2           -7.8508423441      -12.6069315913      -14.2389950316  CLST         783          1.0000000000
      2350       784  TIP3  OH2          14.5443906112        5.2581589449       -3.9179535685  CLST         784          1.0000000000
      2351       784  TIP3  H1           15.1037045819        6.0205023237       -4.2211124225  CLST         784          1.0000000000
      2352       784  TIP3  H2           13.7499409262        5.6773068865       -4.2387137604  CLST         784          1.0000000000
      2353       785  TIP3  OH2          10.5270296918        8.0759108162        0.7891258340  CLST         785          1.0000000000
      2354       785  TIP3  H1           11.0052418562        8.6186278301        1.4041767312  CLST         785          1.0000000000
      2355       785  TIP3  H2           11.2272759145        8.3889293888        0.2142081251  CLST         785          1.0000000000
      2356       786  TIP3  OH2          12.6443275627        3.3988193888       12.5523409915  CLST         786          1.0000000000
      2357       786  TIP3  H1           12.9176984282        4.1724893342       12.7130360329  CLST         786          1.0000000000
      2358       786  TIP3  H2           12.0597319218        4.1723068809       13.1600133280  CLST         786          1.0000000000
      2359       787  TIP3  OH2          -8.0447888884        0.1605875773       11.6723602151  CLST         787          1.0000000000
      2360       787  TIP3  H1           -8.8840422056        0.2669217599       11.2263917745  CLST         787          1.0000000000
      2361       787  TIP3  H2           -8.4653537144       -0.6061369532       12.0330045865  CLST         787          1.0000000000
      2362       788  TIP3  OH2           2.4564559202      -13.2593870333       11.0569310820  CLST         788          1.0000000000
      2363       788  TIP3  H1            2.6345002301      -13.3859193203       12.0175755982  CLST         788          1.0000000000
      2364       788  TIP3  H2            2.9575650908      -14.1186523860       11.0133833151  CLST         788          1.0000000000
      2365       789  TIP3  OH2          -7.2320147438        0.9677557314       -3.2203957926  CLST         789          1.0000000000
      2366       789  TIP3  H1           -6.7673904844        0.1367394958       -3.1481214256  CLST         789          1.0000000000
      2367       789  TIP3  H2           -6.4509867481        1.2136051708       -3.7173267522  CLST         789          1.0000000000
      2368       790  TIP3  OH2         -11.2313125246       -9.2435331063        5.6528431004  CLST         790          1.0000000000
      2369       790  TIP3  H1          -11.6252957086       -9.3846256123        6.5080572293  CLST         790          1.0000000000
      2370       790  TIP3  H2          -11.5726248951       -8.2980458783        5.5988789328  CLST         790          1.0000000000
      2371       791  TIP3  OH2          -5.1007713671       -5.8062090823      -10.6782259822  CLST         791          1.0000000000
      2372       791  TIP3  H1           -4.2089714036       -6.1009888286      -10.9999677159  CLST         791          1.0000000000
      2373       791  TIP3  H2           -4.9087673316       -5.0109873504      -11.1812133779  CLST         791          1.0000000000
      2374       792  TIP3  OH2           6.9960894624       -3.9000273684        9.9772252389  CLST         792          1.0000000000
      2375       792  TIP3  H1            7.5854930039       -4.5697292758        9.6065650607  CLST         792          1.0000000000
      2376       792  TIP3  H2            7.7968993947       -3.3851965713        9.9983464077  CLST         792          1.0000000000
      2377       793  TIP3  OH2          -3.2946549136       12.9770059559       -3.8816831138  CLST         793          1.0000000000
      2378       793  TIP3  H1           -3.8171428454       12.7761601883       -3.0420000309  CLST         793          1.0000000000
      2379       793  TIP3  H2           -3.3800385369       12.0816041780       -4.1903773729  CLST         793          1.0000000000
      2380       794  TIP3  OH2          -0.8661936330        2.7746242631       -6.6085575436  CLST         794          1.0000000000
      2381       794  TIP3  H1           -0.9861574432        2.2728415403       -7.4111985653  CLST         794          1.0000000000
      2382       794  TIP3  H2           -1.2181735731        3.4620834116       -7.2081633672  CLST         794          1.0000000000
      2383       795  TIP3  OH2          -2.0717710279       -9.3757139271        1.2540996551  CLST         795          1.0000000000
      2384       795  TIP3  H1           -2.6442841115      -10.0732526846        0.8676345282  CLST         795          1.0000000000
      2385       795  TIP3  H2           -1.7317163022      -10.0070046708        1.9427624812  CLST         795          1.0000000000
      2386       796  TIP3  OH2           2.7931852475        4.7585917415        4.8251536683  CLST         796          1.0000000000
      2387       796  TIP3  H1            2.9654180282        4.5153070881        3.8524961230  CLST         796          1.0000000000
      2388       796  TIP3  H2            3.7489015779        4.9983486841        4.6784150068  CLST         796          1.0000000000
      2389       797  TIP3  OH2         -11.5524240493        5.4821068523       -3.0709731890  CLST         797          1.0000000000
      2390       797  TIP3  H1          -12.1022487379        6.1360223755       -3.5694863980  CLST         797          1.0000000000
      2391       797  TIP3  H2          -11.1591098594        5.3264184029       -3.9824114942  CLST         797          1.0000000000
      2392       798  TIP3  OH2         -11.1988719398        9.8320665509       10.6304712384  CLST         798          1.0000000000
      2393       798  TIP3  H1          -11.5280501608       10.5975054252       10.1479932943  CLST         798          1.0000000000
      2394       798  TIP3  H2          -11.2886981059       10.4087593867       11.3795600572  CLST         798          1.0000000000
      2395       799  TIP3  OH2           4.0539951571       -1.7907622979      -12.6345046900  CLST         799          1.0000000000
      2396       799  TIP3  H1            4.8813046787       -1.2778011802      -12.8414189781  CLST         799          1.0000000000
      2397       799  TIP3  H2            3.9574640100       -1.8731706791      -13.5779768782  CLST         799          1.0000000000
      2398       800  TIP3  OH2         -10.1070699887        7.2647547862       10.1563478071  CLST         800          1.0000000000
      2399       800  TIP3  H1          -10.5698861695        8.1412476973       10.2582467999  CLST         800          1.0000000000
      2400       800  TIP3  H2           -9.3544502102        7.8237960115       10.0370992243  CLST         800          1.0000000000
      2401       801  TIP3  OH2           8.0504485758      -11.1838633081      -10.4505087174  CLST         801          1.0000000000
      2402       801  TIP3  H1            8.1762620879      -12.1202772110      -10.3095446327  CLST         801          1.0000000000
      2403       801  TIP3  H2            8.6478165522      -11.2294557476      -11.2156043247  CLST         801          1.0000000000
      2404       802  TIP3  OH2           5.4861815556       -0.0652138922       11.9368991499  CLST         802          1.0000000000
      2405       802  TIP3  H1            4.8977668103        0.0960837217       11.1252801541  CLST         802          1.0000000000
      2406       802  TIP3  H2            5.8729771439       -0.6698064173       11.2677085209  CLST         802          1.0000000000
      2407       803  TIP3  OH2           6.6036697165       -9.5659908448        0.0994675123  CLST         803          1.0000000000
      2408       803  TIP3  H1            6.2100760300      -10.4751795210       -0.0530159939  CLST         803          1.0000000000
      2409       803  TIP3  H2            5.9422973531       -9.4934897411        0.8135470671  CLST         803          1.0000000000
      2410       804  TIP3  OH2           5.3361382902        6.3774007651        2.1334882416  CLST         804          1.0000000000
      2411       804  TIP3  H1            4.9718937609        5.5529380546        1.7813821724  CLST         804          1.0000000000
      2412       804  TIP3  H2            5.9684551438        5.5704835533        1.5607148883  CLST         804          1.0000000000
      2413       805  TIP3  OH2           7.5495774397       -4.4683304000       14.3571983907  CLST         805          1.0000000000
      2414       805  TIP3  H1            8.4104621991       -4.4481478591       13.8860261884  CLST         805          1.0000000000
      2415       805  TIP3  H2            8.1297004299       -5.0000991441       14.9300620522  CLST         805          1.0000000000
      2416       806  TIP3  OH2           8.6675981886        9.9581129104       13.7932306098  CLST         806          1.0000000000
      2417       806  TIP3  H1            8.0921795002        9.2002617797       13.6331724518  CLST         806          1.0000000000
      2418       806  TIP3  H2            8.3066654762       10.3695180872       13.0066359710  CLST         806          1.0000000000
      2419       807  TIP3  OH2          -3.8701105489        8.1448072727        1.2464155506  CLST         807          1.0000000000
      2420       807  TIP3  H1           -3.7787542270        9.1120742311        1.4141098027  CLST         807          1.0000000000
      2421       807  TIP3  H2           -3.8445833819        8.0883144388        2.2148424281  CLST         807          1.0000000000
      2422       808  TIP3  OH2          -3.7479327189       13.9924475866        1.2141135875  CLST         808          1.0000000000
      2423       808  TIP3  H1           -3.0713470251       14.1324843819        1.8902045751  CLST         808          1.0000000000
      2424       808  TIP3  H2           -2.9494165954       13.8431640304        0.6647343124  CLST         808          1.0000000000
      2425       809  TIP3  OH2           2.0025327502       12.8439814092        9.3664578571  CLST         809          1.0000000000
      2426       809  TIP3  H1            1.8116242982       11.9418707282        9.0311955829  CLST         809          1.0000000000
      2427       809  TIP3  H2            1.1140461862       13.0315330144        9.0508150054  CLST         809          1.0000000000
      2428       810  TIP3  OH2          -1.8520327808        8.6190633987        8.7647939817  CLST         810          1.0000000000
      2429       810  TIP3  H1           -1.0456476239        8.2112607129        8.4806500724  CLST         810          1.0000000000
      2430       810  TIP3  H2           -1.4877327883        8.4593066260        9.6521529942  CLST         810          1.0000000000
      2431       811  TIP3  OH2          -3.8718966374      -12.3604471256       -9.2941225132  CLST         811          1.0000000000
      2432       811  TIP3  H1           -3.8851634468      -12.9359725324      -10.0260589816  CLST         811          1.0000000000
      2433       811  TIP3  H2           -4.5864603098      -11.6988485645       -9.4778535963  CLST         811          1.0000000000
      2434       812  TIP3  OH2          10.7489309023        4.3217192091      -13.7686219836  CLST         812          1.0000000000
      2435       812  TIP3  H1           11.4717648357        3.6639246443      -13.7380378904  CLST         812          1.0000000000
      2436       812  TIP3  H2           11.4525227718        4.8326469518      -14.2627126709  CLST         812          1.0000000000
      2437       813  TIP3  OH2          -2.3388480592        0.6795207054      -14.0226593593  CLST         813          1.0000000000
      2438       813  TIP3  H1           -2.2324936274        1.4641588251      -14.5836217505  CLST         813          1.0000000000
      2439       813  TIP3  H2           -3.2468091080        0.8653952538      -14.2278559292  CLST         813          1.0000000000
      2440       814  TIP3  OH2          -7.4406368383        8.1280141823       -8.8561226365  CLST         814          1.0000000000
      2441       814  TIP3  H1           -7.0141127514        8.9446964918       -8.5857066502  CLST         814          1.0000000000
      2442       814  TIP3  H2           -6.7328352971        7.6180345865       -8.4960992538  CLST         814          1.0000000000
      2443       815  TIP3  OH2          -5.0812389261        1.0840644917       -8.6209295717  CLST         815          1.0000000000
      2444       815  TIP3  H1           -4.9523442491        1.8335074686       -8.0270714088  CLST         815          1.0000000000
      2445       815  TIP3  H2           -5.7084074414        1.7524625648       -8.9939263273  CLST         815          1.0000000000
      2446       816  TIP3  OH2          -8.3470542150      -13.5818007995        1.4873706938  CLST         816          1.0000000000
      2447       816  TIP3  H1           -8.5820623498      -14.5199725481        1.5741432353  CLST         816          1.0000000000
      2448       816  TIP3  H2           -9.2822464199      -13.4453526280        1.4477848510  CLST         816          1.0000000000
      2449       817  TIP3  OH2           3.5242070001       14.4170523473       10.9216664351  CLST         817          1.0000000000
      2450       817  TIP3  H1            2.9293806003       13.7698489145       10.5432989645  CLST         817          1.0000000000
      2451       817  TIP3  H2            3.2498974222       14.2216035018       11.8003101917  CLST         817          1.0000000000
      2452       818  TIP3  OH2          11.5881919328       -3.4117424509       -5.7560802009  CLST         818          1.0000000000
      2453       818  TIP3  H1           11.5389277002       -2.5892919277       -5.2044882541  CLST         818          1.0000000000
      2454       818  TIP3  H2           10.6398246097       -3.1798641731       -5.8466524289  CLST         818          1.0000000000
      2455       819  TIP3  OH2           0.2121681303        0.2342110605      -10.5466616008  CLST         819          1.0000000000
      2456       819  TIP3  H1            0.6572333992       -0.7299369290      -10.7513954304  CLST         819          1.0000000000
      2457       819  TIP3  H2            1.0689588403       -0.0044349502      -11.3171525865  CLST         819          1.0000000000
      2458       820  TIP3  OH2         -11.1471637780       -7.8330497175       14.4403624985  CLST         820          1.0000000000
      2459       820  TIP3  H1          -11.8522451545       -8.4556774712       14.4259232286  CLST         820          1.0000000000
      2460       820  TIP3  H2          -10.6693637017       -8.6593086218       14.4874223997  CLST         820          1.0000000000
      2461       821  TIP3  OH2          11.9942942491       -0.9783350863       14.8938826329  CLST         821          1.0000000000
      2462       821  TIP3  H1           12.7002691589       -0.5424484016       14.3632279649  CLST         821          1.0000000000
      2463       821  TIP3  H2           12.1586556194       -1.7164999157       14.2735115942  CLST         821          1.0000000000
      2464       822  TIP3  OH2          -7.2552453367       14.1879902822        9.4824434062  CLST         822          1.0000000000
      2465       822  TIP3  H1           -7.0807616029       13.8763462428        8.5775985271  CLST         822          1.0000000000
      2466       822  TIP3  H2           -7.0244203575       13.3156536584        9.7882234265  CLST         822          1.0000000000
      2467       823  TIP3  OH2          -9.1847524859       -1.7761522133        7.6636001055  CLST         823          1.0000000000
      2468       823  TIP3  H1           -9.4696048670       -2.6101870269        8.0795707367  CLST         823          1.0000000000
      2469       823  TIP3  H2           -8.2836793913       -2.0546573060        7.8215926442  CLST         823          1.0000000000
      2470       824  TIP3  OH2          10.9203073905        0.7516743506        7.0607438882  CLST         824          1.0000000000
      2471       824  TIP3  H1           10.6562967724        0.7203213688        6.1302671582  CLST         824          1.0000000000
      2472       824  TIP3  H2           10.8558574751        1.7108366013        6.8856800018  CLST         824          1.0000000000
      2473       825  TIP3  OH2          -4.7268745321      -11.8030444085      -14.0537213081  CLST         825          1.0000000000
      2474       825  TIP3  H1           -5.5743511017      -12.2637505882      -13.9184834467  CLST         825          1.0000000000
      2475       825  TIP3  H2           -5.1619792503      -11.1407768689      -13.4908019914  CLST         825          1.0000000000
      2476       826  TIP3  OH2           4.4199786255      -14.1265998605        2.2499102540  CLST         826          1.0000000000
      2477       826  TIP3  H1            4.3110308330      -15.1037045819        2.4131698745  CLST         826          1.0000000000
      2478       826  TIP3  H2            5.3313987422      -14.3344499734        2.4778309932  CLST         826          1.0000000000
      2479       827  TIP3  OH2         -10.2233592551        8.6266803944       -6.6956540613  CLST         827          1.0000000000
      2480       827  TIP3  H1           -9.3895400765        8.5263529662       -6.2036474680  CLST         827          1.0000000000
      2481       827  TIP3  H2          -10.3075946009        7.7060021955       -6.3217885993  CLST         827          1.0000000000
      2482       828  TIP3  OH2         -10.0120363728       -7.7492824303       11.2778755712  CLST         828          1.0000000000
      2483       828  TIP3  H1           -9.1665103276       -7.8968126865       11.7045215729  CLST         828          1.0000000000
      2484       828  TIP3  H2           -9.6478325692       -6.8473526312       11.1651098684  CLST         828          1.0000000000
      2485       829  TIP3  OH2           3.1381910973       13.5165860057        6.4906424361  CLST         829          1.0000000000
      2486       829  TIP3  H1            3.6733474137       13.8579675810        7.2462592263  CLST         829          1.0000000000
      2487       829  TIP3  H2            2.8560332875       14.3167123911        5.9752010071  CLST         829          1.0000000000
      2488       830  TIP3  OH2          14.0109625073        2.7355639212        9.0598938074  CLST         830          1.0000000000
      2489       830  TIP3  H1           14.4897718777        3.2894012436        9.7094987964  CLST         830          1.0000000000
      2490       830  TIP3  H2           14.6663422061        3.1276001514        8.4847512190  CLST         830          1.0000000000
      2491       831  TIP3  OH2           2.9720238696        2.5052616068        7.9679421932  CLST         831          1.0000000000
      2492       831  TIP3  H1            3.5961843095        3.2018349429        8.0850599379  CLST         831          1.0000000000
      2493       831  TIP3  H2            2.3117407255        3.2752159202        8.0071389226  CLST         831          1.0000000000
      2494       832  TIP3  OH2         -12.7658369977       -2.5365754158        1.1497300044  CLST         832          1.0000000000
      2495       832  TIP3  H1          -12.7493411279       -1.5738080597        1.0335763309  CLST         832          1.0000000000
      2496       832  TIP3  H2          -13.2531598706       -2.3860770866        1.9651072829  CLST         832          1.0000000000
      2497       833  TIP3  OH2           1.2489461635      -11.7168863534        5.4407113479  CLST         833          1.0000000000
      2498       833  TIP3  H1            1.7764460230      -11.2133609649        6.0837396430  CLST         833          1.0000000000
      2499       833  TIP3  H2            2.1182880224      -11.8204404488        5.0134516137  CLST         833          1.0000000000
      2500       834  TIP3  OH2           3.8019064376       -3.2071183971        4.1310769174  CLST         834          1.0000000000
      2501       834  TIP3  H1            3.0550345535       -2.7540727507        3.7396262308  CLST         834          1.0000000000
      2502       834  TIP3  H2            4.2576523781       -2.5209214273        4.6817872587  CLST         834          1.0000000000
      2503       835  TIP3  OH2           4.2970552671        2.6494559864        0.1456986622  CLST         835          1.0000000000
      2504       835  TIP3  H1            3.9533995979        2.6583667036       -0.7980360817  CLST         835          1.0000000000
      2505       835  TIP3  H2            4.1393149578        1.6779054505       -0.0149015448  CLST         835          1.0000000000
      2506       836  TIP3  OH2           7.4428207366       -5.6118608427       -9.4744770069  CLST         836          1.0000000000
      2507       836  TIP3  H1            6.9698937089       -6.2141156598       -8.9055339357  CLST         836          1.0000000000
      2508       836  TIP3  H2            8.0039915568       -6.3816161409       -9.6551017403  CLST         836          1.0000000000
      2509       837  TIP3  OH2           3.2265286801        6.0265791297       -0.6700660634  CLST         837          1.0000000000
      2510       837  TIP3  H1            2.3659946721        5.7150372462       -1.0076551752  CLST         837          1.0000000000
      2511       837  TIP3  H2            2.5929060892        6.6385612864       -0.1792582440  CLST         837          1.0000000000
      2512       838  TIP3  OH2          -1.7447887481      -13.5589310069      -11.1310374078  CLST         838          1.0000000000
      2513       838  TIP3  H1           -1.5986522104      -14.5215840340      -10.9631882008  CLST         838          1.0000000000
      2514       838  TIP3  H2           -2.5923190300      -13.9196773168      -11.3436466084  CLST         838          1.0000000000
      2515       839  TIP3  OH2           1.4748595289       -7.2096681117       -1.3357991813  CLST         839          1.0000000000
      2516       839  TIP3  H1            1.1786313230       -7.6598877955       -0.5136277657  CLST         839          1.0000000000
      2517       839  TIP3  H2            0.5340727591       -7.1342839579       -1.6632161137  CLST         839          1.0000000000
      2518       840  TIP3  OH2          -7.4914794957       11.7465157414       10.6713252691  CLST         840          1.0000000000
      2519       840  TIP3  H1           -7.5582906652       11.2029883738       11.4682145399  CLST         840          1.0000000000
      2520       840  TIP3  H2           -7.0084672694       10.9743828024       10.2741855177  CLST         840          1.0000000000
      2521       841  TIP3  OH2          -8.5157218938       -7.5307658255       -4.1901993803  CLST         841          1.0000000000
      2522       841  TIP3  H1           -8.2664468737       -7.6530113217       -3.2707461656  CLST         841          1.0000000000
      2523       841  TIP3  H2           -7.5837207855       -7.3627642638       -4.3481407287  CLST         841          1.0000000000
      2524       842  TIP3  OH2          11.5281772694      -13.8946374702        0.2435436108  CLST         842          1.0000000000
      2525       842  TIP3  H1           11.2548857829      -14.4762593315        0.9669295065  CLST         842          1.0000000000
      2526       842  TIP3  H2           10.8732006455      -14.4064607288       -0.2094863272  CLST         842          1.0000000000
      2527       843  TIP3  OH2           9.6107725917       13.1788202721        3.7130120273  CLST         843          1.0000000000
      2528       843  TIP3  H1            8.9674521678       12.6522122225        4.2188583233  CLST         843          1.0000000000
      2529       843  TIP3  H2            8.8670021217       13.2373922385        3.0954803016  CLST         843          1.0000000000
      2530       844  TIP3  OH2           1.5948015665      -12.5217478310       -1.9608671207  CLST         844          1.0000000000
      2531       844  TIP3  H1            1.8905983611      -12.8377436718       -1.0907399070  CLST         844          1.0000000000
      2532       844  TIP3  H2            0.7305379021      -12.7339610710       -1.5684478305  CLST         844          1.0000000000
      2533       845  TIP3  OH2         -14.9938551723        4.3947076659       11.0125120660  CLST         845          1.0000000000
      2534       845  TIP3  H1          -14.8646429195        3.5955483777       11.5496355797  CLST         845          1.0000000000
      2535       845  TIP3  H2          -14.1914174116        4.9331788368       11.1774668608  CLST         845          1.0000000000
      2536       846  TIP3  OH2         -11.0616717271       -7.6645376356        2.4991169155  CLST         846          1.0000000000
      2537       846  TIP3  H1          -11.8549036618       -8.1138869890        2.8101001917  CLST         846          1.0000000000
      2538       846  TIP3  H2          -11.6490216213       -6.8876112604        2.3765114227  CLST         846          1.0000000000
      2539       847  TIP3  OH2           4.8418041053        9.6143709932        5.0889681104  CLST         847          1.0000000000
      2540       847  TIP3  H1            4.9166039290       10.5703971084        5.0764702464  CLST         847          1.0000000000
      2541       847  TIP3  H2            5.4646822221        9.7246496115        5.8516769887  CLST         847          1.0000000000
      2542       848  TIP3  OH2          -9.2579251534        5.7786664312       -9.7930268801  CLST         848          1.0000000000
      2543       848  TIP3  H1          -10.1588551593        5.5446289574      -10.1079758695  CLST         848          1.0000000000
      2544       848  TIP3  H2           -9.8099230052        6.5646922084       -9.6232035048  CLST         848          1.0000000000
      2545       849  TIP3  OH2          -1.6345278237        1.8785889129        0.4414364764  CLST         849          1.0000000000
      2546       849  TIP3  H1           -0.7105890925        2.1405681052        0.4670709968  CLST         849          1.0000000000
      2547       849  TIP3  H2           -1.4689221061        2.0330228030       -0.4828754077  CLST         849          1.0000000000
      2548       850  TIP3  OH2           5.4171159178       -6.4965794754        5.8062476069  CLST         850          1.0000000000
      2549       850  TIP3  H1            4.8135973589       -6.3310492825        6.5838022717  CLST         850          1.0000000000
      2550       850  TIP3  H2            5.8145739498       -5.6689602243        6.1410252112  CLST         850          1.0000000000
      2551       851  TIP3  OH2           8.1463926046        6.2475983841        5.3839942413  CLST         851          1.0000000000
      2552       851  TIP3  H1            8.3793103177        6.4804375539        6.2875057013  CLST         851          1.0000000000
      2553       851  TIP3  H2            8.7819319654        6.9209138657        5.1002038681  CLST         851          1.0000000000
      2554       852  TIP3  OH2           9.3246706853        4.0242626433        1.5408664993  CLST         852          1.0000000000
      2555       852  TIP3  H1            9.4136500971        3.9654407949        2.5029098537  CLST         852          1.0000000000
      2556       852  TIP3  H2            8.4066516820        4.1918888443        1.7102147150  CLST         852          1.0000000000
      2557       853  TIP3  OH2           8.8543209998       -5.0668416262       -3.3026996140  CLST         853          1.0000000000
      2558       853  TIP3  H1            8.1957274743       -4.7604525164       -3.9507299207  CLST         853          1.0000000000
      2559       853  TIP3  H2            8.0248799641       -4.9133089296       -2.7439104659  CLST         853          1.0000000000
      2560       854  TIP3  OH2         -10.7956603810       -9.3449144812       -5.9317320148  CLST         854          1.0000000000
      2561       854  TIP3  H1          -10.2257570869       -8.5323277633       -5.7833128196  CLST         854          1.0000000000
      2562       854  TIP3  H2          -10.7172668113       -9.3366998939       -4.9265957313  CLST         854          1.0000000000
      2563       855  TIP3  OH2           2.6654509667       -3.2606442196       -6.8166324439  CLST         855          1.0000000000
      2564       855  TIP3  H1            2.2913368883       -2.6709175564       -6.1179452947  CLST         855          1.0000000000
      2565       855  TIP3  H2            3.0492518997       -2.4423330321       -7.1462216545  CLST         855          1.0000000000
      2566       856  TIP3  OH2           3.1429006846      -12.9994630427        0.1877802615  CLST         856          1.0000000000
      2567       856  TIP3  H1            3.9730787815      -12.4746511432       -0.0109397676  CLST         856          1.0000000000
      2568       856  TIP3  H2            3.5829690624      -13.2156165976        1.0121488044  CLST         856          1.0000000000
      2569       857  TIP3  OH2          -3.1499263647       -5.6684825096       10.9445073435  CLST         857          1.0000000000
      2570       857  TIP3  H1           -3.4426634535       -5.8539332421       11.8591207309  CLST         857          1.0000000000
      2571       857  TIP3  H2           -3.2238183926       -4.7038890570       11.1227281803  CLST         857          1.0000000000
      2572       858  TIP3  OH2           6.1397268354      -14.4076437662       12.8862133218  CLST         858          1.0000000000
      2573       858  TIP3  H1            6.5460347972      -15.1037045819       13.3698107196  CLST         858          1.0000000000
      2574       858  TIP3  H2            5.5205561387      -14.1318162146       13.5264454044  CLST         858          1.0000000000
      2575       859  TIP3  OH2          -8.6946387714       -1.5911547624      -13.0247144860  CLST         859          1.0000000000
      2576       859  TIP3  H1           -7.9110729280       -2.1412891702      -13.0665157808  CLST         859          1.0000000000
      2577       859  TIP3  H2           -8.2197415767       -1.2975193157      -12.2196694869  CLST         859          1.0000000000
      2578       860  TIP3  OH2          -9.6508970829       -6.3690332579       -1.0052261410  CLST         860          1.0000000000
      2579       860  TIP3  H1           -9.3545568387       -5.7566956891       -1.7153941547  CLST         860          1.0000000000
      2580       860  TIP3  H2           -8.8740253764       -6.9247859053       -1.3078332637  CLST         860          1.0000000000
      2581       861  TIP3  OH2           5.0609318233      -10.1387311258       -4.2767946876  CLST         861          1.0000000000
      2582       861  TIP3  H1            4.7022476406      -10.0710433998       -3.3774425470  CLST         861          1.0000000000
      2583       861  TIP3  H2            4.6536104294      -10.9959419219       -4.2329315436  CLST         861          1.0000000000
      2584       862  TIP3  OH2         -11.0705554133       -2.8164680041      -12.7076641894  CLST         862          1.0000000000
      2585       862  TIP3  H1          -10.3072948107       -2.3107487435      -12.9793558097  CLST         862          1.0000000000
      2586       862  TIP3  H2          -10.5548710115       -2.9194705334      -11.9091590419  CLST         862          1.0000000000
      2587       863  TIP3  OH2          10.8516359758      -10.6163162157       -8.6420898105  CLST         863          1.0000000000
      2588       863  TIP3  H1           11.6695547353      -10.4427567533       -8.1977522862  CLST         863          1.0000000000
      2589       863  TIP3  H2           11.3854649916      -10.9108036805       -9.3654018748  CLST         863          1.0000000000
      2590       864  TIP3  OH2         -13.6870598172        3.5823034080        3.0734071842  CLST         864          1.0000000000
      2591       864  TIP3  H1          -14.6460020061        3.4777556525        3.1812348932  CLST         864          1.0000000000
      2592       864  TIP3  H2          -13.8801012392        4.5107239352        3.1692107976  CLST         864          1.0000000000
      2593       865  TIP3  OH2          12.7418527788        8.8241123362      -11.2487684602  CLST         865          1.0000000000
      2594       865  TIP3  H1           13.2044096469        7.9941740937      -11.4282675737  CLST         865          1.0000000000
      2595       865  TIP3  H2           13.1927867510        8.7412763335      -10.4003591892  CLST         865          1.0000000000
      2596       866  TIP3  OH2           6.6322694114      -10.2928169286       -8.2838611084  CLST         866          1.0000000000
      2597       866  TIP3  H1            6.1878687837      -11.0487400678       -7.9729693085  CLST         866          1.0000000000
      2598       866  TIP3  H2            7.0633311394      -10.7630561939       -9.0159292730  CLST         866          1.0000000000
      2599       867  TIP3  OH2          -8.2074549687       12.1800901459       -3.2449406593  CLST         867          1.0000000000
      2600       867  TIP3  H1           -9.0221121917       12.0780190556       -2.6919028810  CLST         867          1.0000000000
      2601       867  TIP3  H2           -7.8668245942       12.9326132725       -2.7539533451  CLST         867          1.0000000000
      2602       868  TIP3  OH2          -9.7187870722       13.1781044204       10.1257307786  CLST         868          1.0000000000
      2603       868  TIP3  H1           -9.0071582234       12.5852521645       10.3975794341  CLST         868          1.0000000000
      2604       868  TIP3  H2           -8.9517722072       13.7122834743        9.8885463670  CLST         868          1.0000000000
      2605       869  TIP3  OH2           3.2708269123       -1.5517838458        1.1818047231  CLST         869          1.0000000000
      2606       869  TIP3  H1            2.3060324216       -1.7087661155        0.8793551811  CLST         869          1.0000000000
      2607       869  TIP3  H2            2.8881382440       -1.2216509280        1.9812783868  CLST         869          1.0000000000
      2608       870  TIP3  OH2          -6.9644551934       -3.6224293832      -12.9149596037  CLST         870          1.0000000000
      2609       870  TIP3  H1           -5.9717415322       -3.6455468357      -12.7924805993  CLST         870          1.0000000000
      2610       870  TIP3  H2           -6.7098926373       -4.1222781869      -13.7196890353  CLST         870          1.0000000000
      2611       871  TIP3  OH2          -7.1833961113        2.2108924023       -9.8499741744  CLST         871          1.0000000000
      2612       871  TIP3  H1           -7.6424689941        2.8782750440      -10.4250050949  CLST         871          1.0000000000
      2613       871  TIP3  H2           -8.0756360420        2.3635266469       -9.4047202431  CLST         871          1.0000000000
      2614       872  TIP3  OH2         -13.1815108445       11.1946295027      -10.0510627081  CLST         872          1.0000000000
      2615       872  TIP3  H1          -12.9760617167       11.5655532374      -10.8607426025  CLST         872          1.0000000000
      2616       872  TIP3  H2          -13.2588355503       10.2941934754      -10.1790827552  CLST         872          1.0000000000
      2617       873  TIP3  OH2          12.0071921858       -4.4036710994       -9.8694866009  CLST         873          1.0000000000
      2618       873  TIP3  H1           11.4420989263       -3.6180450364       -9.9927671071  CLST         873          1.0000000000
      2619       873  TIP3  H2           12.0454809933       -4.3897226696      -10.8560075789  CLST         873          1.0000000000
      2620       874  TIP3  OH2          13.0091214871        8.4886930049       -8.6951924564  CLST         874          1.0000000000
      2621       874  TIP3  H1           13.2441636284        7.7910014232       -7.9942052098  CLST         874          1.0000000000
      2622       874  TIP3  H2           12.0799339913        8.1453722058       -8.6027605110  CLST         874          1.0000000000
      2623       875  TIP3  OH2           1.2320325953       -1.5337664135      -12.3755945116  CLST         875          1.0000000000
      2624       875  TIP3  H1            2.0051144702       -1.9896502443      -12.7095971422  CLST         875          1.0000000000
      2625       875  TIP3  H2            0.8572112975       -1.7777890251      -13.2356876992  CLST         875          1.0000000000
      2626       876  TIP3  OH2           9.0815258038        7.2515321805      -11.9487400504  CLST         876          1.0000000000
      2627       876  TIP3  H1            8.6501929039        6.8362675223      -12.6715953152  CLST         876          1.0000000000
      2628       876  TIP3  H2            8.2645977261        7.2099504536      -11.4614312249  CLST         876          1.0000000000
      2629       877  TIP3  OH2          -7.0660440259      -13.3058046686       -5.0849277145  CLST         877          1.0000000000
      2630       877  TIP3  H1           -7.6026745158      -12.7421250408       -4.5518122070  CLST         877          1.0000000000
      2631       877  TIP3  H2           -6.3643580231      -12.6903400153       -4.8283997059  CLST         877          1.0000000000
      2632       878  TIP3  OH2           5.6322292198      -11.1742367315        7.0310853955  CLST         878          1.0000000000
      2633       878  TIP3  H1            5.4905489766      -11.0826594985        6.0712095650  CLST         878          1.0000000000
      2634       878  TIP3  H2            5.5579648936      -10.2096930982        7.0015489452  CLST         878          1.0000000000
      2635       879  TIP3  OH2           2.8632290097        5.3150811759       -7.0956854437  CLST         879          1.0000000000
      2636       879  TIP3  H1            3.4541369556        6.0873577011       -7.2448003900  CLST         879          1.0000000000
      2637       879  TIP3  H2            3.4343230247        5.3204035684       -6.2951558833  CLST         879          1.0000000000
      2638       880  TIP3  OH2          -5.4562908920       -1.7815653148       14.9297455165  CLST         880          1.0000000000
      2639       880  TIP3  H1           -6.2506220490       -2.3201293792       14.6872554585  CLST         880          1.0000000000
      2640       880  TIP3  H2           -5.9464803981       -1.1577292669       14.3990771860  CLST         880          1.0000000000
      2641       881  TIP3  OH2          -0.4900011387       13.5382107742        8.5660417791  CLST         881          1.0000000000
      2642       881  TIP3  H1           -0.3946270612       13.4827529466        7.5743694684  CLST         881          1.0000000000
      2643       881  TIP3  H2           -1.3620411739       13.2834707719        8.2712270288  CLST         881          1.0000000000
      2644       882  TIP3  OH2          12.0440060906       -2.0426978909       -1.4062555104  CLST         882          1.0000000000
      2645       882  TIP3  H1           11.4347746567       -2.7614294431       -1.7844991041  CLST         882          1.0000000000
      2646       882  TIP3  H2           11.8003026275       -2.5197210077       -0.6063743747  CLST         882          1.0000000000
      2647       883  TIP3  OH2           1.6518185043       -9.7398713084       -4.4628465249  CLST         883          1.0000000000
      2648       883  TIP3  H1            2.4658159843       -9.5319359930       -4.0000903731  CLST         883          1.0000000000
      2649       883  TIP3  H2            2.2477332963       -9.8241315382       -5.2253782729  CLST         883          1.0000000000
      2650       884  TIP3  OH2         -14.2826154511       -5.9264699542      -12.9835472927  CLST         884          1.0000000000
      2651       884  TIP3  H1          -13.7033228850       -6.7008520322      -13.0627796097  CLST         884          1.0000000000
      2652       884  TIP3  H2          -14.8834189821       -6.6659931741      -12.7132328964  CLST         884          1.0000000000
      2653       885  TIP3  OH2           0.7624331838       14.6428382819       -0.7058439267  CLST         885          1.0000000000
      2654       885  TIP3  H1           -0.1489642129       14.7173755537       -0.3772561762  CLST         885          1.0000000000
      2655       885  TIP3  H2            0.7703815965       13.9071068835       -0.0925635428  CLST         885          1.0000000000
      2656       886  TIP3  OH2          11.8274746800       10.0512382238        4.1421920764  CLST         886          1.0000000000
      2657       886  TIP3  H1           12.0365877408        9.4194120290        4.8190467915  CLST         886          1.0000000000
      2658       886  TIP3  H2           11.5284508641       10.5057439222        4.9379388602  CLST         886          1.0000000000
      2659       887  TIP3  OH2          -7.3736970375       -7.9490201964       -1.7608723444  CLST         887          1.0000000000
      2660       887  TIP3  H1           -7.1712172413       -8.9032546179       -1.9207750349  CLST         887          1.0000000000
      2661       887  TIP3  H2           -6.4561070453       -7.9272192377       -1.4371425031  CLST         887          1.0000000000
      2662       888  TIP3  OH2         -12.9037219227       -3.0245063995       10.5088741433  CLST         888          1.0000000000
      2663       888  TIP3  H1          -13.2541695794       -2.9866632044       11.4338953028  CLST         888          1.0000000000
      2664       888  TIP3  H2          -12.5006741233       -2.1342363973       10.8012274946  CLST         888          1.0000000000
      2665       889  TIP3  OH2           4.7285731045      -12.9326351741        8.8116682146  CLST         889          1.0000000000
      2666       889  TIP3  H1            4.9606797625      -12.5244058652        7.9765308423  CLST         889          1.0000000000
      2667       889  TIP3  H2            4.8529335819      -12.0561848889        9.1811125366  CLST         889          1.0000000000
      2668       890  TIP3  OH2         -13.4157506885        5.9021627749       -9.5681330620  CLST         890          1.0000000000
      2669       890  TIP3  H1          -13.3116720764        6.6646237107      -10.1474342473  CLST         890          1.0000000000
      2670       890  TIP3  H2          -14.3242243277        6.1623814925       -9.5904090500  CLST         890          1.0000000000
      2671       891  TIP3  OH2         -12.6212709556       -5.9602271482       10.8949310580  CLST         891          1.0000000000
      2672       891  TIP3  H1          -12.7501321902       -4.9881235155       10.7281762451  CLST         891          1.0000000000
      2673       891  TIP3  H2          -12.4384827472       -5.9238217728        9.9310671563  CLST         891          1.0000000000
      2674       892  TIP3  OH2           3.0473158770       13.7284216228       13.4896153300  CLST         892          1.0000000000
      2675       892  TIP3  H1            3.1113990210       14.3831975499       14.1698036731  CLST         892          1.0000000000
      2676       892  TIP3  H2            3.1958161704       13.1780890461       14.2793989252  CLST         892          1.0000000000
      2677       893  TIP3  OH2          -0.3255715212        7.2728362158        3.2185516672  CLST         893          1.0000000000
      2678       893  TIP3  H1           -0.8452861589        6.4474112602        3.1590239932  CLST         893          1.0000000000
      2679       893  TIP3  H2           -0.9952997176        7.5178242460        2.5521739844  CLST         893          1.0000000000
      2680       894  TIP3  OH2           9.4069877832       11.2287431576        0.4867996733  CLST         894          1.0000000000
      2681       894  TIP3  H1            9.8618079309       11.8919738664        1.0005861803  CLST         894          1.0000000000
      2682       894  TIP3  H2            8.6783250454       11.7526621364        0.1773851115  CLST         894          1.0000000000
      2683       895  TIP3  OH2          -9.9121179898       10.4198320173      -10.6904110128  CLST         895          1.0000000000
      2684       895  TIP3  H1          -10.2860606832       11.2359209648      -10.3021599502  CLST         895          1.0000000000
      2685       895  TIP3  H2           -9.2103173443       11.0525789278      -10.8718191245  CLST         895          1.0000000000
      2686       896  TIP3  OH2           7.9698704676       -6.6240846125       -0.4071955427  CLST         896          1.0000000000
      2687       896  TIP3  H1            7.4047118252       -6.8447645807       -1.1907941774  CLST         896          1.0000000000
      2688       896  TIP3  H2            8.5797147639       -7.1995187076       -0.9124977819  CLST         896          1.0000000000
      2689       897  TIP3  OH2           9.6950935759       -2.4343449157       -9.1106359979  CLST         897          1.0000000000
      2690       897  TIP3  H1            9.4607787665       -2.7703336111       -8.2188944033  CLST         897          1.0000000000
      2691       897  TIP3  H2            9.5781347322       -1.5759361270       -8.6900209206  CLST         897          1.0000000000
      2692       898  TIP3  OH2          13.8626515960        6.0116691109      -11.8320729672  CLST         898          1.0000000000
      2693       898  TIP3  H1           14.1326800061        5.1480472183      -11.4411255072  CLST         898          1.0000000000
      2694       898  TIP3  H2           12.9638051319        5.8912492170      -11.3756157588  CLST         898          1.0000000000
      2695       899  TIP3  OH2          14.2836832660       -6.6439022308        1.6316644292  CLST         899          1.0000000000
      2696       899  TIP3  H1           14.1985169682       -7.5774819177        1.4349381727  CLST         899          1.0000000000
      2697       899  TIP3  H2           13.8164213806       -6.6717309929        2.4881720917  CLST         899          1.0000000000
      2698       900  TIP3  OH2          -9.8143856960      -10.1586196226       10.0552601244  CLST         900          1.0000000000
      2699       900  TIP3  H1          -10.0092101063       -9.2605175340       10.3846082046  CLST         900          1.0000000000
      2700       900  TIP3  H2           -9.0133094573       -9.6348045703        9.7586679682  CLST         900          1.0000000000
      2701       901  TIP3  OH2          10.3197554794        8.6111653885       -8.5898997821  CLST         901          1.0000000000
      2702       901  TIP3  H1           10.2097130464        9.2596961301       -9.3119850472  CLST         901          1.0000000000
      2703       901  TIP3  H2            9.3568867672        8.5202903279       -8.5305088443  CLST         901          1.0000000000
      2704       902  TIP3  OH2           3.7380521468        0.3936194389        9.8300737399  CLST         902          1.0000000000
      2705       902  TIP3  H1            4.0568146436       -0.0930910595        9.0663450418  CLST         902          1.0000000000
      2706       902  TIP3  H2            3.4152340650        1.1327870975        9.2776132016  CLST         902          1.0000000000
      2707       903  TIP3  OH2          -1.0510687411        0.6017276984       -8.2373658149  CLST         903          1.0000000000
      2708       903  TIP3  H1           -0.8494426109        0.5836897438       -9.1867104468  CLST         903          1.0000000000
      2709       903  TIP3  H2           -0.2878334336        0.0392326360       -8.2072156693  CLST         903          1.0000000000
