* Geometry rescue: EQUI at step 1000
*
        2709  EXT
         1         1  TIP3  OH2           5.5042929419        0.7213016480       -3.7174666203  CLST           1          1.0000000000
         2         1  TIP3  H1            5.3123478135        0.7224328703       -2.7531112850  CLST           1          1.0000000000
         3         1  TIP3  H2            4.6128501319        0.9631079152       -4.0288338732  CLST           1          1.0000000000
         4         2  TIP3  OH2          14.9657231268       -2.2696172369       -1.6024709048  CLST           2          1.0000000000
         5         2  TIP3  H1           14.0511797738       -2.1379856533       -1.3330495571  CLST           2          1.0000000000
         6         2  TIP3  H2           15.0933349557       -3.1903521968       -1.2442776061  CLST           2          1.0000000000
         7         3  TIP3  OH2          -8.6073220535       -6.6601823204       -7.5345363834  CLST           3          1.0000000000
         8         3  TIP3  H1           -9.4558046971       -6.1359048102       -7.5221467773  CLST           3          1.0000000000
         9         3  TIP3  H2           -8.4716960162       -6.7199926260       -8.5197009874  CLST           3          1.0000000000
        10         4  TIP3  OH2          -9.5212991064       -3.9867749188       12.8634345721  CLST           4          1.0000000000
        11         4  TIP3  H1          -10.2178037069       -4.6106773126       13.0245096711  CLST           4          1.0000000000
        12         4  TIP3  H2           -9.2737244367       -4.1793773362       11.9227247989  CLST           4          1.0000000000
        13         5  TIP3  OH2          -3.4137114767      -10.2223609678       14.3104540007  CLST           5          1.0000000000
        14         5  TIP3  H1           -3.8913926552      -10.8484959674       14.8832742968  CLST           5          1.0000000000
        15         5  TIP3  H2           -3.5976820836      -10.4760319766       13.3897187371  CLST           5          1.0000000000
        16         6  TIP3  OH2          -3.3971900411        9.4936927953       14.2365865775  CLST           6          1.0000000000
        17         6  TIP3  H1           -2.6093170375        9.9003857439       13.8390774710  CLST           6          1.0000000000
        18         6  TIP3  H2           -2.9701951402        9.3143290530       15.0894749775  CLST           6          1.0000000000
        19         7  TIP3  OH2          -5.1502422688       -1.3554817184        8.8225779919  CLST           7          1.0000000000
        20         7  TIP3  H1           -4.5562914245       -1.0117517647        8.1265569389  CLST           7          1.0000000000
        21         7  TIP3  H2           -5.2813005911       -2.2240032871        8.3951472322  CLST           7          1.0000000000
        22         8  TIP3  OH2          -7.2407627615       -4.6651599551       -1.0931113801  CLST           8          1.0000000000
        23         8  TIP3  H1           -7.2147600065       -4.9407875575       -0.1154858831  CLST           8          1.0000000000
        24         8  TIP3  H2           -6.2979651750       -4.8652040422       -1.2906946705  CLST           8          1.0000000000
        25         9  TIP3  OH2         -13.0970721961       -5.2713038853        0.1747309291  CLST           9          1.0000000000
        26         9  TIP3  H1          -14.0638737329       -5.1479052844        0.0228029938  CLST           9          1.0000000000
        27         9  TIP3  H2          -12.8885614644       -4.2924186321        0.2976422319  CLST           9          1.0000000000
        28        10  TIP3  OH2          -4.3109535520        8.1066365539       -8.7739507571  CLST          10          1.0000000000
        29        10  TIP3  H1           -4.4552601012        9.0727036167       -8.7390389989  CLST          10          1.0000000000
        30        10  TIP3  H2           -3.3273058734        8.0726352795       -8.9030457594  CLST          10          1.0000000000
        31        11  TIP3  OH2           5.9215731821       12.7550969345       10.7449978151  CLST          11          1.0000000000
        32        11  TIP3  H1            5.1423363894       13.3649654762       10.8285461369  CLST          11          1.0000000000
        33        11  TIP3  H2            5.4931693564       11.9146239838       11.1314076434  CLST          11          1.0000000000
        34        12  TIP3  OH2         -11.8115626534      -13.2112555080       -3.1924423064  CLST          12          1.0000000000
        35        12  TIP3  H1          -12.3223237229      -12.4836032796       -2.7760606968  CLST          12          1.0000000000
        36        12  TIP3  H2          -12.2197280782      -13.3292196868       -4.0814060879  CLST          12          1.0000000000
        37        13  TIP3  OH2          -0.7464845781      -10.9325230597        3.2737853474  CLST          13          1.0000000000
        38        13  TIP3  H1            0.1621466207      -11.1708369522        2.9322486494  CLST          13          1.0000000000
        39        13  TIP3  H2           -0.4210198186      -10.3633428626        4.0007899490  CLST          13          1.0000000000
        40        14  TIP3  OH2          -1.6754233149        5.3410090613        7.9472262206  CLST          14          1.0000000000
        41        14  TIP3  H1           -1.7773832133        5.0860007811        8.8905210046  CLST          14          1.0000000000
        42        14  TIP3  H2           -0.7452839476        5.0022310039        7.8256326778  CLST          14          1.0000000000
        43        15  TIP3  OH2           1.0464259992       -1.1905193453       -4.7658143637  CLST          15          1.0000000000
        44        15  TIP3  H1            0.3231960927       -0.7110998730       -4.2793435091  CLST          15          1.0000000000
        45        15  TIP3  H2            1.2452862125       -1.8645133004       -4.0385968615  CLST          15          1.0000000000
        46        16  TIP3  OH2          -4.6400821299       -6.1603311711       13.6532728217  CLST          16          1.0000000000
        47        16  TIP3  H1           -3.9826716036       -6.8532378495       13.8540759202  CLST          16          1.0000000000
        48        16  TIP3  H2           -5.2092480226       -6.1530093890       14.4631391311  CLST          16          1.0000000000
        49        17  TIP3  OH2           8.4266963684       -0.5457599565        2.4454179719  CLST          17          1.0000000000
        50        17  TIP3  H1            7.8305726893       -1.3059410094        2.7535480803  CLST          17          1.0000000000
        51        17  TIP3  H2            9.1673694772       -1.1676558878        2.2102792966  CLST          17          1.0000000000
        52        18  TIP3  OH2           2.6673421068       -8.3051300783       -8.6461561907  CLST          18          1.0000000000
        53        18  TIP3  H1            2.7950331123       -7.5183426230       -8.0644466820  CLST          18          1.0000000000
        54        18  TIP3  H2            2.8726260769       -9.0020526887       -7.9499838849  CLST          18          1.0000000000
        55        19  TIP3  OH2           7.0164707281        7.7779710036       14.3579857738  CLST          19          1.0000000000
        56        19  TIP3  H1            7.4599443071        7.0602281655       14.8634885083  CLST          19          1.0000000000
        57        19  TIP3  H2            6.8952766500        8.4116030188       15.0933349557  CLST          19          1.0000000000
        58        20  TIP3  OH2           4.0935395365        9.3256211178        9.0834989557  CLST          20          1.0000000000
        59        20  TIP3  H1            3.4476817013        9.9271922998        8.6236202122  CLST          20          1.0000000000
        60        20  TIP3  H2            3.6351954685        8.5147211967        8.7261958156  CLST          20          1.0000000000
        61        21  TIP3  OH2           0.4645341506       -8.3667021779        1.1673373503  CLST          21          1.0000000000
        62        21  TIP3  H1            0.4710607388       -8.1226329208        2.1111315306  CLST          21          1.0000000000
        63        21  TIP3  H2           -0.4931539807       -8.5408258678        1.0179675823  CLST          21          1.0000000000
        64        22  TIP3  OH2          11.4826944433       -9.4463250869       10.3878326059  CLST          22          1.0000000000
        65        22  TIP3  H1           11.0341476155       -9.1448908313        9.5567944088  CLST          22          1.0000000000
        66        22  TIP3  H2           10.7935449326      -10.0474729724       10.7492899066  CLST          22          1.0000000000
        67        23  TIP3  OH2          12.3930917567      -14.3389053306      -10.9478290053  CLST          23          1.0000000000
        68        23  TIP3  H1           12.1585164366      -15.0933349557      -10.3916424901  CLST          23          1.0000000000
        69        23  TIP3  H2           13.2334503311      -14.0794543474      -10.5222714512  CLST          23          1.0000000000
        70        24  TIP3  OH2          12.8970397989       -7.3210921176       14.4166079511  CLST          24          1.0000000000
        71        24  TIP3  H1           12.3537420445       -7.5212841081       13.6526816151  CLST          24          1.0000000000
        72        24  TIP3  H2           12.2056645173       -7.1788519600       15.0933349557  CLST          24          1.0000000000
        73        25  TIP3  OH2           0.1348367662       -5.6494569748        5.6290686171  CLST          25          1.0000000000
        74        25  TIP3  H1           -0.4022421147       -5.4349079916        4.8276652175  CLST          25          1.0000000000
        75        25  TIP3  H2           -0.0836240468       -6.5845972902        5.8543075076  CLST          25          1.0000000000
        76        26  TIP3  OH2          -5.5863688341       -5.4792343797       -7.9856175719  CLST          26          1.0000000000
        77        26  TIP3  H1           -6.4966157124       -5.8499613178       -8.1118751578  CLST          26          1.0000000000
        78        26  TIP3  H2           -5.2337202445       -5.7560043102       -8.8834926279  CLST          26          1.0000000000
        79        27  TIP3  OH2           4.0972962972       12.2860042108       -0.8994799596  CLST          27          1.0000000000
        80        27  TIP3  H1            4.9980116696       12.1050362033       -0.5260268721  CLST          27          1.0000000000
        81        27  TIP3  H2            4.0379807607       13.2666812615       -0.9813020687  CLST          27          1.0000000000
        82        28  TIP3  OH2          -5.1513055898       -6.2251882189        6.7057013245  CLST          28          1.0000000000
        83        28  TIP3  H1           -4.1633675790       -6.4276326359        6.6734538759  CLST          28          1.0000000000
        84        28  TIP3  H2           -5.3321584713       -6.6040376501        5.7905028953  CLST          28          1.0000000000
        85        29  TIP3  OH2           4.1660574180      -10.0792627520       13.1580346965  CLST          29          1.0000000000
        86        29  TIP3  H1            5.0408738896       -9.6375777461       13.1491133461  CLST          29          1.0000000000
        87        29  TIP3  H2            3.5942117354       -9.2805868139       13.1704502725  CLST          29          1.0000000000
        88        30  TIP3  OH2          -0.9186419037       -3.4847646277       11.9885658721  CLST          30          1.0000000000
        89        30  TIP3  H1           -1.3688377828       -4.0097977354       12.7000091617  CLST          30          1.0000000000
        90        30  TIP3  H2           -0.2862428171       -2.9841257266       12.5733969928  CLST          30          1.0000000000
        91        31  TIP3  OH2          -5.5754938754      -10.2462063382       -9.8034246734  CLST          31          1.0000000000
        92        31  TIP3  H1           -6.5112628926      -10.1459177850       -9.4931102919  CLST          31          1.0000000000
        93        31  TIP3  H2           -5.1548388431       -9.5447124818       -9.2481935112  CLST          31          1.0000000000
        94        32  TIP3  OH2           4.4181704378        6.4245803072       15.0326216476  CLST          32          1.0000000000
        95        32  TIP3  H1            5.2006216507        6.6543570945       14.5190662200  CLST          32          1.0000000000
        96        32  TIP3  H2            3.6520190636        6.4264249278       14.4036375604  CLST          32          1.0000000000
        97        33  TIP3  OH2           1.8513530579       -5.2394941910       11.9890565804  CLST          33          1.0000000000
        98        33  TIP3  H1            1.8571536802       -4.5392275925       12.6457896503  CLST          33          1.0000000000
        99        33  TIP3  H2            1.9861810259       -4.7949679192       11.1470559482  CLST          33          1.0000000000
       100        34  TIP3  OH2         -12.3984417221       -6.7282601918        5.6105359613  CLST          34          1.0000000000
       101        34  TIP3  H1          -12.1559241903       -6.2902008830        4.7749818936  CLST          34          1.0000000000
       102        34  TIP3  H2          -13.3536494497       -6.4741704705        5.6036589196  CLST          34          1.0000000000
       103        35  TIP3  OH2         -12.7370214384        9.3939817431       14.5075307236  CLST          35          1.0000000000
       104        35  TIP3  H1          -13.0872029672        9.9133926361       13.7622539106  CLST          35          1.0000000000
       105        35  TIP3  H2          -13.5012282150        8.9863116693       14.9267631011  CLST          35          1.0000000000
       106        36  TIP3  OH2           6.7479833210       -8.7220735610      -11.6585351700  CLST          36          1.0000000000
       107        36  TIP3  H1            7.4036946415       -9.1076208362      -11.0087243779  CLST          36          1.0000000000
       108        36  TIP3  H2            7.1330892384       -9.1114319912      -12.4937977172  CLST          36          1.0000000000
       109        37  TIP3  OH2          10.4852319100      -11.9517918619        6.4517733245  CLST          37          1.0000000000
       110        37  TIP3  H1            9.6727285124      -11.6734392322        6.9442596551  CLST          37          1.0000000000
       111        37  TIP3  H2           10.9629667386      -12.3122566078        7.2407217805  CLST          37          1.0000000000
       112        38  TIP3  OH2           5.7648459469      -12.1859171562       -0.5669448280  CLST          38          1.0000000000
       113        38  TIP3  H1            6.4719212288      -12.5968928506       -0.0239536991  CLST          38          1.0000000000
       114        38  TIP3  H2            5.7385836640      -12.6222469986       -1.4243438259  CLST          38          1.0000000000
       115        39  TIP3  OH2          13.3958724737        6.3479101634       -6.7120829616  CLST          39          1.0000000000
       116        39  TIP3  H1           13.6425344444        5.4624076215       -7.0572200881  CLST          39          1.0000000000
       117        39  TIP3  H2           12.5864383458        6.0868085212       -6.2312323607  CLST          39          1.0000000000
       118        40  TIP3  OH2          -4.7516518050       14.4004889802       -5.9258745068  CLST          40          1.0000000000
       119        40  TIP3  H1           -5.3821665538       14.7338922882       -5.2481930564  CLST          40          1.0000000000
       120        40  TIP3  H2           -4.1747067430       13.7680828945       -5.4235814251  CLST          40          1.0000000000
       121        41  TIP3  OH2          11.2113639240        5.5882642418      -11.1486499111  CLST          41          1.0000000000
       122        41  TIP3  H1           11.0039758435        4.9841839795      -11.9351852004  CLST          41          1.0000000000
       123        41  TIP3  H2           10.5430233604        6.2834461261      -11.3826644502  CLST          41          1.0000000000
       124        42  TIP3  OH2          -1.2154134924       -6.9037463641       -2.2399708278  CLST          42          1.0000000000
       125        42  TIP3  H1           -1.4578081363       -6.0944462029       -2.7374635405  CLST          42          1.0000000000
       126        42  TIP3  H2           -1.3161101368       -7.5992162321       -2.9307728471  CLST          42          1.0000000000
       127        43  TIP3  OH2           9.8969425611      -11.0808295488       -1.8260902629  CLST          43          1.0000000000
       128        43  TIP3  H1            9.8416136594      -11.3104107815       -0.8618680145  CLST          43          1.0000000000
       129        43  TIP3  H2            9.4483395411      -11.8650547059       -2.2279857518  CLST          43          1.0000000000
       130        44  TIP3  OH2           0.6111324612       -3.1488625316        6.6448649773  CLST          44          1.0000000000
       131        44  TIP3  H1           -0.0161828261       -3.2256378819        7.3874067356  CLST          44          1.0000000000
       132        44  TIP3  H2            0.3670542921       -3.9588494590        6.1344262734  CLST          44          1.0000000000
       133        45  TIP3  OH2           4.8872022451       -6.2422620112        9.2234354857  CLST          45          1.0000000000
       134        45  TIP3  H1            4.4833833544       -5.3726825183        9.1559636777  CLST          45          1.0000000000
       135        45  TIP3  H2            5.1629234675       -6.2639638022       10.1739218552  CLST          45          1.0000000000
       136        46  TIP3  OH2           7.6709770191        4.8746610978       -8.2121124911  CLST          46          1.0000000000
       137        46  TIP3  H1            7.0172573260        5.1634272832       -7.5251713390  CLST          46          1.0000000000
       138        46  TIP3  H2            7.1323270001        4.9480793465       -9.0231098000  CLST          46          1.0000000000
       139        47  TIP3  OH2         -10.9280601960      -10.9745603020        3.2525384212  CLST          47          1.0000000000
       140        47  TIP3  H1          -11.4243797322      -10.3501504055        3.8865865390  CLST          47          1.0000000000
       141        47  TIP3  H2          -10.6976381289      -11.5758098959        4.0342249555  CLST          47          1.0000000000
       142        48  TIP3  OH2         -14.3005053414        9.4259228686        8.7788774726  CLST          48          1.0000000000
       143        48  TIP3  H1          -14.3958278901        9.8064612914        7.8982985627  CLST          48          1.0000000000
       144        48  TIP3  H2          -13.3717522070        9.6905260163        8.9780567511  CLST          48          1.0000000000
       145        49  TIP3  OH2           8.7491053188       -4.3996819699        4.0812390606  CLST          49          1.0000000000
       146        49  TIP3  H1            7.7757275179       -4.5602062626        4.1054684291  CLST          49          1.0000000000
       147        49  TIP3  H2            8.8480822108       -4.3839566085        3.0921498099  CLST          49          1.0000000000
       148        50  TIP3  OH2          11.2432894133        5.6867419229       -5.1321964372  CLST          50          1.0000000000
       149        50  TIP3  H1           11.4750866756        5.0034971221       -4.4694835099  CLST          50          1.0000000000
       150        50  TIP3  H2           10.2471690015        5.4652428890       -5.0407405397  CLST          50          1.0000000000
       151        51  TIP3  OH2          12.7913971477       -1.2962024400      -10.5933266820  CLST          51          1.0000000000
       152        51  TIP3  H1           13.3353258179       -1.9579329309      -11.1026536976  CLST          51          1.0000000000
       153        51  TIP3  H2           12.5595136443       -0.7430364906      -11.3898000070  CLST          51          1.0000000000
       154        52  TIP3  OH2          -1.5874585722       -1.4033467350       10.2283069192  CLST          52          1.0000000000
       155        52  TIP3  H1           -2.3984898454       -0.8917919814       10.4451928867  CLST          52          1.0000000000
       156        52  TIP3  H2           -1.5146263137       -2.0091381680       11.0056702029  CLST          52          1.0000000000
       157        53  TIP3  OH2         -10.9912888234       14.2820240857       -6.9350481107  CLST          53          1.0000000000
       158        53  TIP3  H1          -11.6609420650       14.9917193350       -6.9077949435  CLST          53          1.0000000000
       159        53  TIP3  H2          -10.1697354521       14.8317318319       -6.8740458864  CLST          53          1.0000000000
       160        54  TIP3  OH2         -13.8750264976       -5.4708419875       -8.1010653890  CLST          54          1.0000000000
       161        54  TIP3  H1          -12.8895678610       -5.2857883836       -8.0873546415  CLST          54          1.0000000000
       162        54  TIP3  H2          -14.0652349485       -5.0569413741       -8.9930823619  CLST          54          1.0000000000
       163        55  TIP3  OH2           0.4171787179        9.5927119030      -10.6468286167  CLST          55          1.0000000000
       164        55  TIP3  H1           -0.4606444394        9.9069365051      -10.9133296759  CLST          55          1.0000000000
       165        55  TIP3  H2            0.8164126187       10.3901013465      -10.2260941466  CLST          55          1.0000000000
       166        56  TIP3  OH2          -1.5285904630       -5.1740272101       14.1138918404  CLST          56          1.0000000000
       167        56  TIP3  H1           -2.1901924307       -4.7148507872       14.6810182729  CLST          56          1.0000000000
       168        56  TIP3  H2           -1.8481612045       -6.0872438982       14.0754766855  CLST          56          1.0000000000
       169        57  TIP3  OH2         -10.4641348501       11.3981146422       -1.4526586233  CLST          57          1.0000000000
       170        57  TIP3  H1          -10.9729518605       11.7399855467       -0.6841491135  CLST          57          1.0000000000
       171        57  TIP3  H2          -11.1917325206       11.4884484938       -2.1002073831  CLST          57          1.0000000000
       172        58  TIP3  OH2           9.8556628604        1.4332130798        0.1830333689  CLST          58          1.0000000000
       173        58  TIP3  H1            8.9313450637        1.0697533479        0.2528462559  CLST          58          1.0000000000
       174        58  TIP3  H2            9.7144267133        2.2994995120        0.6261101067  CLST          58          1.0000000000
       175        59  TIP3  OH2         -13.0493526353       13.1788549937        5.2956518556  CLST          59          1.0000000000
       176        59  TIP3  H1          -12.9455682150       13.5167889096        4.3957349256  CLST          59          1.0000000000
       177        59  TIP3  H2          -12.2626831835       12.5711847267        5.2044580767  CLST          59          1.0000000000
       178        60  TIP3  OH2          -3.9331201532        3.1059645310        7.1306950229  CLST          60          1.0000000000
       179        60  TIP3  H1           -3.5150017657        2.3067515751        7.5617418133  CLST          60          1.0000000000
       180        60  TIP3  H2           -3.2488218719        3.7791145901        7.2272832643  CLST          60          1.0000000000
       181        61  TIP3  OH2           0.3735259195       -1.8432657547        0.4367368980  CLST          61          1.0000000000
       182        61  TIP3  H1           -0.0920409421       -1.5040029416        1.2630834854  CLST          61          1.0000000000
       183        61  TIP3  H2            0.1284151411       -2.7967484625        0.5412276779  CLST          61          1.0000000000
       184        62  TIP3  OH2          -3.8639641308        8.8127421485        4.4439157332  CLST          62          1.0000000000
       185        62  TIP3  H1           -3.3377576963        8.2231114936        5.0498855178  CLST          62          1.0000000000
       186        62  TIP3  H2           -3.1761998973        9.4092169325        4.0845992577  CLST          62          1.0000000000
       187        63  TIP3  OH2          -0.3448110662        7.5873076976       -3.0024676386  CLST          63          1.0000000000
       188        63  TIP3  H1           -0.6144756574        8.2516589254       -3.6611767631  CLST          63          1.0000000000
       189        63  TIP3  H2           -1.0156119946        7.7215386183       -2.2841269063  CLST          63          1.0000000000
       190        64  TIP3  OH2         -13.5255332767        3.4498081263       -3.5117427456  CLST          64          1.0000000000
       191        64  TIP3  H1          -12.7150787582        3.9752442088       -3.5658193450  CLST          64          1.0000000000
       192        64  TIP3  H2          -14.2720017477        4.0852982319       -3.5073243153  CLST          64          1.0000000000
       193        65  TIP3  OH2          -9.3098285451      -12.1350772745      -11.7600611760  CLST          65          1.0000000000
       194        65  TIP3  H1           -9.3025786063      -12.3992966357      -10.7972526705  CLST          65          1.0000000000
       195        65  TIP3  H2          -10.2765780243      -11.9802935232      -11.7520780367  CLST          65          1.0000000000
       196        66  TIP3  OH2          12.9883796563       -7.9350882247        3.6755916115  CLST          66          1.0000000000
       197        66  TIP3  H1           13.3814690235       -8.5926698961        3.0420160016  CLST          66          1.0000000000
       198        66  TIP3  H2           12.7684647405       -8.5348566265        4.4245368357  CLST          66          1.0000000000
       199        67  TIP3  OH2           7.4938381350       -0.7048404309       -6.3127433039  CLST          67          1.0000000000
       200        67  TIP3  H1            7.9671600457       -1.3605378147       -5.7581913216  CLST          67          1.0000000000
       201        67  TIP3  H2            8.2533103199       -0.2951657738       -6.8072779166  CLST          67          1.0000000000
       202        68  TIP3  OH2          -7.0372454698        1.0888587818        0.7979062411  CLST          68          1.0000000000
       203        68  TIP3  H1           -7.7203795272        0.5767515727        1.3067010185  CLST          68          1.0000000000
       204        68  TIP3  H2           -6.8055984504        1.7228932249        1.5310382819  CLST          68          1.0000000000
       205        69  TIP3  OH2         -11.7837046564       -0.6967174055        7.1206209116  CLST          69          1.0000000000
       206        69  TIP3  H1          -10.8711725954       -0.9079772396        7.4534281087  CLST          69          1.0000000000
       207        69  TIP3  H2          -11.7347975155        0.2971280964        7.2217977188  CLST          69          1.0000000000
       208        70  TIP3  OH2          -1.7885033835        7.4332953511       -8.2169048125  CLST          70          1.0000000000
       209        70  TIP3  H1           -0.8256625619        7.2268289883       -8.3763672768  CLST          70          1.0000000000
       210        70  TIP3  H2           -1.6258823713        8.1854832338       -7.6135268786  CLST          70          1.0000000000
       211        71  TIP3  OH2         -13.5580222568       -1.5553530285       -5.6046422052  CLST          71          1.0000000000
       212        71  TIP3  H1          -12.9803517622       -1.4655503926       -4.8029399912  CLST          71          1.0000000000
       213        71  TIP3  H2          -13.5437325306       -0.6024850192       -5.8901007983  CLST          71          1.0000000000
       214        72  TIP3  OH2          11.1192338235       -2.7047445546        4.9881707293  CLST          72          1.0000000000
       215        72  TIP3  H1           10.6060222991       -2.8774695421        4.1481656606  CLST          72          1.0000000000
       216        72  TIP3  H2           11.5555318128       -1.8567146760        4.6937379003  CLST          72          1.0000000000
       217        73  TIP3  OH2          -3.6665051661      -13.5492637303       -6.6683490130  CLST          73          1.0000000000
       218        73  TIP3  H1           -3.9373750318      -13.4656167898       -7.6091070978  CLST          73          1.0000000000
       219        73  TIP3  H2           -3.8838356603      -14.4291430139       -6.3693410068  CLST          73          1.0000000000
       220        74  TIP3  OH2          -4.6492643042       12.3564578876       -1.5233864271  CLST          74          1.0000000000
       221        74  TIP3  H1           -5.2384614201       11.7123874063       -1.9981554075  CLST          74          1.0000000000
       222        74  TIP3  H2           -5.3159658685       13.1006963637       -1.4528552064  CLST          74          1.0000000000
       223        75  TIP3  OH2          -9.6289303806        4.8000302630        5.4334378763  CLST          75          1.0000000000
       224        75  TIP3  H1           -8.8088345546        5.2417813390        5.7632149595  CLST          75          1.0000000000
       225        75  TIP3  H2          -10.2258408463        5.1763769017        6.0972970497  CLST          75          1.0000000000
       226        76  TIP3  OH2           8.3567024233       13.4696573737       -9.2157572881  CLST          76          1.0000000000
       227        76  TIP3  H1            8.5069885787       13.6556534294      -10.1937770389  CLST          76          1.0000000000
       228        76  TIP3  H2            9.3464733260       13.3521537656       -9.1028904154  CLST          76          1.0000000000
       229        77  TIP3  OH2           0.4474682735       -5.2256360211       -5.4335085323  CLST          77          1.0000000000
       230        77  TIP3  H1            0.6234034718       -5.0266396944       -6.3820617187  CLST          77          1.0000000000
       231        77  TIP3  H2           -0.4578713730       -5.6205999923       -5.5314945757  CLST          77          1.0000000000
       232        78  TIP3  OH2          -5.4345013348       -8.2767386312        1.4333222079  CLST          78          1.0000000000
       233        78  TIP3  H1           -5.2773498977       -7.8112443412        0.5687651163  CLST          78          1.0000000000
       234        78  TIP3  H2           -6.2016817590       -8.8287261266        1.1153921874  CLST          78          1.0000000000
       235        79  TIP3  OH2           6.7504085672      -14.3230618061       10.2220985721  CLST          79          1.0000000000
       236        79  TIP3  H1            6.3991311888      -14.4851351145       11.0945354183  CLST          79          1.0000000000
       237        79  TIP3  H2            5.9639815755      -14.0775065435        9.6721366976  CLST          79          1.0000000000
       238        80  TIP3  OH2           6.5207749992       -0.1388047879      -13.1670344544  CLST          80          1.0000000000
       239        80  TIP3  H1            6.8016392113        0.4000507171      -13.9629847363  CLST          80          1.0000000000
       240        80  TIP3  H2            7.3982619372       -0.2046817769      -12.7157099590  CLST          80          1.0000000000
       241        81  TIP3  OH2          -7.3396593859        1.0852192538        6.0928244955  CLST          81          1.0000000000
       242        81  TIP3  H1           -8.2595355878        1.4564553849        5.9584559326  CLST          81          1.0000000000
       243        81  TIP3  H2           -6.9141058088        1.9270850802        5.7732211072  CLST          81          1.0000000000
       244        82  TIP3  OH2           2.1311615986       -1.8798337061       10.7882629577  CLST          82          1.0000000000
       245        82  TIP3  H1            2.5957005600       -1.1466278248       10.3150267357  CLST          82          1.0000000000
       246        82  TIP3  H2            2.8667506144       -2.5473715066       10.6301453508  CLST          82          1.0000000000
       247        83  TIP3  OH2          10.2577045345        8.2558813994       -5.0555871901  CLST          83          1.0000000000
       248        83  TIP3  H1           10.7855785062        7.4675837046       -5.3399241140  CLST          83          1.0000000000
       249        83  TIP3  H2           10.4403059933        8.1343942118       -4.0944730713  CLST          83          1.0000000000
       250        84  TIP3  OH2         -13.4940484969        8.0747757321       -1.2942115431  CLST          84          1.0000000000
       251        84  TIP3  H1          -14.2080286639        7.5716134695       -0.8028271779  CLST          84          1.0000000000
       252        84  TIP3  H2          -12.7554789712        7.5557053615       -0.8753110869  CLST          84          1.0000000000
       253        85  TIP3  OH2           2.4166009208       -1.4790067835        7.6922877899  CLST          85          1.0000000000
       254        85  TIP3  H1            1.8387335076       -2.2194222870        7.4021959921  CLST          85          1.0000000000
       255        85  TIP3  H2            3.2741234397       -1.9459093681        7.7262058438  CLST          85          1.0000000000
       256        86  TIP3  OH2           8.0600285097       -9.2415848407        9.8305372694  CLST          86          1.0000000000
       257        86  TIP3  H1            8.4732077074       -8.5195916621       10.3147845648  CLST          86          1.0000000000
       258        86  TIP3  H2            7.1940996037       -9.3570769601       10.2719424286  CLST          86          1.0000000000
       259        87  TIP3  OH2           0.4239063729       -1.3202151115       12.9028705799  CLST          87          1.0000000000
       260        87  TIP3  H1            0.9356804131       -1.3241872395       12.0489388804  CLST          87          1.0000000000
       261        87  TIP3  H2            0.2652922686       -0.3359601333       12.9405959979  CLST          87          1.0000000000
       262        88  TIP3  OH2          14.4483975390      -11.3299582711        8.1862759246  CLST          88          1.0000000000
       263        88  TIP3  H1           13.5219824430      -11.5163769152        8.4764072655  CLST          88          1.0000000000
       264        88  TIP3  H2           14.8208689797      -12.1044236843        8.6798733535  CLST          88          1.0000000000
       265        89  TIP3  OH2           6.7161274886       11.7355235565       -3.9625368673  CLST          89          1.0000000000
       266        89  TIP3  H1            5.7329101045       11.8067166406       -3.9653674905  CLST          89          1.0000000000
       267        89  TIP3  H2            6.8036304616       10.8540779646       -3.5127535414  CLST          89          1.0000000000
       268        90  TIP3  OH2          14.4268899751       -4.7031262355       -0.2641938933  CLST          90          1.0000000000
       269        90  TIP3  H1           14.0024788510       -4.9831441818       -1.1195026082  CLST          90          1.0000000000
       270        90  TIP3  H2           14.1484584761       -5.4632641639        0.3338426779  CLST          90          1.0000000000
       271        91  TIP3  OH2          11.4965968442       10.6921229493       -5.7009219360  CLST          91          1.0000000000
       272        91  TIP3  H1           11.0185438075        9.8312772327       -5.6486257696  CLST          91          1.0000000000
       273        91  TIP3  H2           10.8716197050       11.2297324663       -5.1762299442  CLST          91          1.0000000000
       274        92  TIP3  OH2          -6.1464158094        3.6175228875        8.5713815169  CLST          92          1.0000000000
       275        92  TIP3  H1           -5.5846542458        3.4156024065        7.7848149028  CLST          92          1.0000000000
       276        92  TIP3  H2           -6.3794327291        2.7111495590        8.8947721675  CLST          92          1.0000000000
       277        93  TIP3  OH2           5.1844497096       -6.4792273297       11.9439592354  CLST          93          1.0000000000
       278        93  TIP3  H1            5.3677975639       -5.7368732034       12.5885497906  CLST          93          1.0000000000
       279        93  TIP3  H2            5.9104061679       -7.0700353586       12.2709280799  CLST          93          1.0000000000
       280        94  TIP3  OH2          -6.1029871572       12.1041695192        4.4178339929  CLST          94          1.0000000000
       281        94  TIP3  H1           -5.9761398910       12.0019851926        3.4238644090  CLST          94          1.0000000000
       282        94  TIP3  H2           -6.4203327073       11.1537009008        4.5407085244  CLST          94          1.0000000000
       283        95  TIP3  OH2           6.6557408922       11.2046757319       -0.3458295388  CLST          95          1.0000000000
       284        95  TIP3  H1            6.8170542042       10.8838299485       -1.2620823681  CLST          95          1.0000000000
       285        95  TIP3  H2            6.2996650707       10.3685408569        0.0457380002  CLST          95          1.0000000000
       286        96  TIP3  OH2          14.7456974641       -0.7150714141       12.3431751451  CLST          96          1.0000000000
       287        96  TIP3  H1           15.0933349557       -1.5722071025       12.7099318865  CLST          96          1.0000000000
       288        96  TIP3  H2           13.8186636216       -1.0656506559       12.1044198023  CLST          96          1.0000000000
       289        97  TIP3  OH2          -8.3835519240        9.5371854311       12.9813092567  CLST          97          1.0000000000
       290        97  TIP3  H1           -8.0779942868        9.0668392932       12.1490712106  CLST          97          1.0000000000
       291        97  TIP3  H2           -7.5341306207        9.4072462254       13.4568494363  CLST          97          1.0000000000
       292        98  TIP3  OH2           1.6104915881        4.2110477542       14.0574489945  CLST          98          1.0000000000
       293        98  TIP3  H1            2.1854241839        4.6481750047       13.3777419268  CLST          98          1.0000000000
       294        98  TIP3  H2            2.0201025093        3.3364328801       14.0942658650  CLST          98          1.0000000000
       295        99  TIP3  OH2         -12.6549121469       12.5356252376       -5.4892067972  CLST          99          1.0000000000
       296        99  TIP3  H1          -13.3556661281       12.5116827383       -6.1577836171  CLST          99          1.0000000000
       297        99  TIP3  H2          -11.9476882067       13.1480596019       -5.8234012004  CLST          99          1.0000000000
       298       100  TIP3  OH2           9.2277209707       -3.8876759267       -6.8785143075  CLST         100          1.0000000000
       299       100  TIP3  H1            8.3663668645       -3.9428135837       -6.4837735383  CLST         100          1.0000000000
       300       100  TIP3  H2            9.3273939855       -4.7899050046       -6.9590230888  CLST         100          1.0000000000
       301       101  TIP3  OH2          11.4278258823        2.1574408162      -10.2795681534  CLST         101          1.0000000000
       302       101  TIP3  H1           11.2247067074        2.9522125267       -9.8106996688  CLST         101          1.0000000000
       303       101  TIP3  H2           11.8663574264        1.7140832514       -9.5478999670  CLST         101          1.0000000000
       304       102  TIP3  OH2          -7.1112400466        2.3032357374      -12.9617994163  CLST         102          1.0000000000
       305       102  TIP3  H1           -7.8041024863        2.0479993571      -13.4708977212  CLST         102          1.0000000000
       306       102  TIP3  H2           -7.4156022940        3.1777137229      -12.8276589881  CLST         102          1.0000000000
       307       103  TIP3  OH2          -4.5267081333      -14.0195132227      -11.3340714378  CLST         103          1.0000000000
       308       103  TIP3  H1           -4.5646148606      -14.9441911643      -11.6566342372  CLST         103          1.0000000000
       309       103  TIP3  H2           -5.4192180447      -13.9678107433      -11.6197747069  CLST         103          1.0000000000
       310       104  TIP3  OH2         -10.9639670067      -11.5253660894        7.8134921458  CLST         104          1.0000000000
       311       104  TIP3  H1          -10.3243587163      -11.0588903741        7.3079746330  CLST         104          1.0000000000
       312       104  TIP3  H2          -10.5438658394      -11.2656353820        8.5963466062  CLST         104          1.0000000000
       313       105  TIP3  OH2           4.6164996933       -0.5061825644       14.3260207735  CLST         105          1.0000000000
       314       105  TIP3  H1            4.2781163225       -1.3934751406       14.2041112045  CLST         105          1.0000000000
       315       105  TIP3  H2            5.0653845941       -0.6461977118       13.5055199884  CLST         105          1.0000000000
       316       106  TIP3  OH2          14.2244076492       -1.5297615007        4.8464223181  CLST         106          1.0000000000
       317       106  TIP3  H1           14.7378453398       -0.8635321350        5.3589354340  CLST         106          1.0000000000
       318       106  TIP3  H2           13.8093937325       -0.8289369077        4.4280594728  CLST         106          1.0000000000
       319       107  TIP3  OH2           1.6901811759      -12.5216221555       -7.3363387104  CLST         107          1.0000000000
       320       107  TIP3  H1            0.7647635428      -12.3619572372       -7.2652952849  CLST         107          1.0000000000
       321       107  TIP3  H2            1.7664157388      -12.6825758743       -6.4177215493  CLST         107          1.0000000000
       322       108  TIP3  OH2          -7.0162824817       -3.9249424001       14.3031476760  CLST         108          1.0000000000
       323       108  TIP3  H1           -7.2319841483       -4.8326404448       14.4926692259  CLST         108          1.0000000000
       324       108  TIP3  H2           -7.8814805699       -3.7261992462       13.9591745825  CLST         108          1.0000000000
       325       109  TIP3  OH2          -4.1332376474       -1.1125477989       11.4546582554  CLST         109          1.0000000000
       326       109  TIP3  H1           -4.2347376427       -1.9829979026       11.8255166490  CLST         109          1.0000000000
       327       109  TIP3  H2           -4.6996727609       -1.2198528000       10.6347021516  CLST         109          1.0000000000
       328       110  TIP3  OH2           1.2812441770       -3.5878012054       -3.3384260263  CLST         110          1.0000000000
       329       110  TIP3  H1            1.0001294403       -4.1377479599       -4.1207407376  CLST         110          1.0000000000
       330       110  TIP3  H2            0.4121531036       -3.5470129308       -2.9228692236  CLST         110          1.0000000000
       331       111  TIP3  OH2          -5.0379846472       -0.9605819822       -6.1721637198  CLST         111          1.0000000000
       332       111  TIP3  H1           -4.5802354991       -0.7143371263       -7.0529002692  CLST         111          1.0000000000
       333       111  TIP3  H2           -4.5356852064       -1.8620240951       -6.7168096787  CLST         111          1.0000000000
       334       112  TIP3  OH2           2.2392924926      -12.2826386180       -4.4652220275  CLST         112          1.0000000000
       335       112  TIP3  H1            1.8180233168      -12.3990761745       -3.5980176401  CLST         112          1.0000000000
       336       112  TIP3  H2            1.9588771784      -11.3944795513       -4.4573288380  CLST         112          1.0000000000
       337       113  TIP3  OH2          14.1743038342        5.9403772356       12.6171724791  CLST         113          1.0000000000
       338       113  TIP3  H1           14.3479068452        6.8683972990       12.2890054166  CLST         113          1.0000000000
       339       113  TIP3  H2           14.7132782424        5.6809424988       11.8849456796  CLST         113          1.0000000000
       340       114  TIP3  OH2          -4.8157152198      -11.4374616010       -4.7340239185  CLST         114          1.0000000000
       341       114  TIP3  H1           -4.6845933958      -10.5409666560       -5.0681089388  CLST         114          1.0000000000
       342       114  TIP3  H2           -4.4853808630      -11.8604941561       -5.5159795595  CLST         114          1.0000000000
       343       115  TIP3  OH2           4.7024276784      -13.9081485319       -9.0547510258  CLST         115          1.0000000000
       344       115  TIP3  H1            4.1141587737      -14.3259607201       -9.8907822106  CLST         115          1.0000000000
       345       115  TIP3  H2            4.4341946151      -13.3509440466       -9.9714274282  CLST         115          1.0000000000
       346       116  TIP3  OH2           8.3782851587        5.7730456676      -14.2190533019  CLST         116          1.0000000000
       347       116  TIP3  H1            9.1700738178        5.2761462876      -14.1868129312  CLST         116          1.0000000000
       348       116  TIP3  H2            7.8768932802        5.1975281219      -13.6610229955  CLST         116          1.0000000000
       349       117  TIP3  OH2          -0.0542027567        1.4572988268       13.0970025316  CLST         117          1.0000000000
       350       117  TIP3  H1           -0.6046361245        2.0114171996       13.6448236417  CLST         117          1.0000000000
       351       117  TIP3  H2            0.7234194170        2.0091183842       13.1717909884  CLST         117          1.0000000000
       352       118  TIP3  OH2          12.8250894651       -9.7484392050       -6.7535787653  CLST         118          1.0000000000
       353       118  TIP3  H1           12.2472453150       -9.6456010933       -6.0412724003  CLST         118          1.0000000000
       354       118  TIP3  H2           13.1486811408       -8.8668165017       -6.5965867522  CLST         118          1.0000000000
       355       119  TIP3  OH2         -11.9521637143       -1.3656687586        4.4797464605  CLST         119          1.0000000000
       356       119  TIP3  H1          -11.0549031761       -1.2247503738        4.2844153693  CLST         119          1.0000000000
       357       119  TIP3  H2          -11.9223274541       -1.2416451077        5.4499310248  CLST         119          1.0000000000
       358       120  TIP3  OH2         -11.7486145352        4.0128233116       -7.8458928667  CLST         120          1.0000000000
       359       120  TIP3  H1          -12.2508597980        4.5643281823       -8.4004334901  CLST         120          1.0000000000
       360       120  TIP3  H2          -12.5201112022        3.8733800894       -7.2528262195  CLST         120          1.0000000000
       361       121  TIP3  OH2          -5.8685385621       -6.9693828362        3.9477101706  CLST         121          1.0000000000
       362       121  TIP3  H1           -5.7073789718       -7.3295517157        3.0446072819  CLST         121          1.0000000000
       363       121  TIP3  H2           -6.6817622539       -6.5213159895        3.6811335840  CLST         121          1.0000000000
       364       122  TIP3  OH2           9.2847751963       -7.1095207597       -6.7474845506  CLST         122          1.0000000000
       365       122  TIP3  H1            9.0675880060       -8.0274757464       -6.7863583714  CLST         122          1.0000000000
       366       122  TIP3  H2           10.0606520724       -7.2607406041       -7.2519868160  CLST         122          1.0000000000
       367       123  TIP3  OH2          -6.9691849193      -10.3926448629        0.2913254812  CLST         123          1.0000000000
       368       123  TIP3  H1           -7.1646650276      -10.4502821267       -0.6334360815  CLST         123          1.0000000000
       369       123  TIP3  H2           -7.9034689876      -10.2003509212        0.4877980092  CLST         123          1.0000000000
       370       124  TIP3  OH2         -13.0402586878       -2.0583455204       -9.8241989481  CLST         124          1.0000000000
       371       124  TIP3  H1          -13.9456266860       -2.2825947583       -9.6872091099  CLST         124          1.0000000000
       372       124  TIP3  H2          -12.9850372993       -2.8362728852      -10.3683989503  CLST         124          1.0000000000
       373       125  TIP3  OH2           6.6750220945        2.7803740442       -5.2786209426  CLST         125          1.0000000000
       374       125  TIP3  H1            6.5081786225        2.0159661170       -4.7037524245  CLST         125          1.0000000000
       375       125  TIP3  H2            5.9434709480        2.5581528588       -5.8421595845  CLST         125          1.0000000000
       376       126  TIP3  OH2          12.3476859818       -9.8624921440        5.5491298526  CLST         126          1.0000000000
       377       126  TIP3  H1           12.1125561496      -10.7917404860        5.3957088576  CLST         126          1.0000000000
       378       126  TIP3  H2           12.5084330226       -9.8154155227        6.4755880464  CLST         126          1.0000000000
       379       127  TIP3  OH2         -10.4074274564       -5.8982948686       -5.0828033753  CLST         127          1.0000000000
       380       127  TIP3  H1          -10.0385347385       -5.2577134822       -4.4893147924  CLST         127          1.0000000000
       381       127  TIP3  H2           -9.6657443698       -6.4889046543       -4.8621511344  CLST         127          1.0000000000
       382       128  TIP3  OH2          -6.3499451299       -3.5697904820        7.0279134471  CLST         128          1.0000000000
       383       128  TIP3  H1           -5.8346292616       -4.3558350707        7.0818992213  CLST         128          1.0000000000
       384       128  TIP3  H2           -6.1756152223       -3.1664537559        6.2172984171  CLST         128          1.0000000000
       385       129  TIP3  OH2         -11.9567845316      -14.5122287375      -10.6908008336  CLST         129          1.0000000000
       386       129  TIP3  H1          -11.1531120496      -14.3103287799      -10.1926627928  CLST         129          1.0000000000
       387       129  TIP3  H2          -12.3861481350      -14.6038468967       -9.8252473655  CLST         129          1.0000000000
       388       130  TIP3  OH2           8.9725393487       -1.0787357798       14.1587776798  CLST         130          1.0000000000
       389       130  TIP3  H1            8.7905003178       -1.7166223759       14.8885836901  CLST         130          1.0000000000
       390       130  TIP3  H2            8.2190799088       -0.5973824760       14.5654836260  CLST         130          1.0000000000
       391       131  TIP3  OH2          -9.7749982027      -11.2125824377       -1.1615862398  CLST         131          1.0000000000
       392       131  TIP3  H1           -9.0013200821      -11.5814429561       -0.7220904630  CLST         131          1.0000000000
       393       131  TIP3  H2          -10.3483008311      -11.8351468979       -0.7158678349  CLST         131          1.0000000000
       394       132  TIP3  OH2           9.2690146831       -2.4710075341        9.4244778981  CLST         132          1.0000000000
       395       132  TIP3  H1           10.1112472727       -2.1019393275        9.1515276346  CLST         132          1.0000000000
       396       132  TIP3  H2            9.1668933530       -1.6006972377        9.8687402891  CLST         132          1.0000000000
       397       133  TIP3  OH2          -9.5881307252       -7.8288618232        7.6329259605  CLST         133          1.0000000000
       398       133  TIP3  H1           -8.7769505094       -8.2708682005        7.7510734530  CLST         133          1.0000000000
       399       133  TIP3  H2           -9.2277635206       -7.1331159435        7.1193496187  CLST         133          1.0000000000
       400       134  TIP3  OH2          -8.8868340364      -12.5090577649       14.3314829061  CLST         134          1.0000000000
       401       134  TIP3  H1           -9.5437198056      -12.4794659495       13.6685940200  CLST         134          1.0000000000
       402       134  TIP3  H2           -8.8597916013      -11.5655270429       14.5941962525  CLST         134          1.0000000000
       403       135  TIP3  OH2          -9.1196226341       10.9085155328        3.3137439896  CLST         135          1.0000000000
       404       135  TIP3  H1           -8.8993910775       10.6294703825        2.3929055154  CLST         135          1.0000000000
       405       135  TIP3  H2           -8.1365802121       10.9802608361        3.3657957089  CLST         135          1.0000000000
       406       136  TIP3  OH2          -5.1177595365       13.3304633577      -11.5428060759  CLST         136          1.0000000000
       407       136  TIP3  H1           -5.0755369814       13.3269246197      -10.6063256773  CLST         136          1.0000000000
       408       136  TIP3  H2           -5.9742009153       13.7063443635      -11.5144088545  CLST         136          1.0000000000
       409       137  TIP3  OH2          -5.7443264524      -11.1058357549        7.6708019888  CLST         137          1.0000000000
       410       137  TIP3  H1           -5.2854403714      -10.8277980440        6.8949102028  CLST         137          1.0000000000
       411       137  TIP3  H2           -5.0678350041      -11.6490689401        7.8627774467  CLST         137          1.0000000000
       412       138  TIP3  OH2          10.0228868108        8.4514706962       11.0647727713  CLST         138          1.0000000000
       413       138  TIP3  H1            9.8966120275        7.8872235379       11.8279496190  CLST         138          1.0000000000
       414       138  TIP3  H2           10.8424289662        8.8346867792       11.2850940632  CLST         138          1.0000000000
       415       139  TIP3  OH2           2.1209763686        9.6580014442       12.4742637795  CLST         139          1.0000000000
       416       139  TIP3  H1            3.0420809582        9.7613210495       12.2736749479  CLST         139          1.0000000000
       417       139  TIP3  H2            2.2990210525        9.0038004024       13.1074444770  CLST         139          1.0000000000
       418       140  TIP3  OH2          -3.1721965025       -1.3542748418       -8.0021320219  CLST         140          1.0000000000
       419       140  TIP3  H1           -2.1905563760       -1.0074178648       -8.0710742794  CLST         140          1.0000000000
       420       140  TIP3  H2           -2.6277302635       -2.0248564576       -7.5199235994  CLST         140          1.0000000000
       421       141  TIP3  OH2         -13.0004433185        5.5453523021       12.6591703518  CLST         141          1.0000000000
       422       141  TIP3  H1          -12.3444949621        6.1970932809       12.5257160390  CLST         141          1.0000000000
       423       141  TIP3  H2          -12.9226129109        5.4627865148       13.5887756942  CLST         141          1.0000000000
       424       142  TIP3  OH2          14.8902933449       -6.6208188181        5.2484354587  CLST         142          1.0000000000
       425       142  TIP3  H1           14.4118976946       -6.8456700744        4.4051104913  CLST         142          1.0000000000
       426       142  TIP3  H2           14.7037930865       -7.3974011649        5.7604635766  CLST         142          1.0000000000
       427       143  TIP3  OH2           6.5454494701       -6.9223488446        1.8630434995  CLST         143          1.0000000000
       428       143  TIP3  H1            7.0133651254       -7.2144597361        1.0521382757  CLST         143          1.0000000000
       429       143  TIP3  H2            5.7085445166       -6.9542290431        1.3499487424  CLST         143          1.0000000000
       430       144  TIP3  OH2          -1.4794966326      -13.9876784359        7.7616811747  CLST         144          1.0000000000
       431       144  TIP3  H1           -1.3964645022      -14.1737903771        6.8416557149  CLST         144          1.0000000000
       432       144  TIP3  H2           -1.0882219473      -14.7825577730        7.9561320094  CLST         144          1.0000000000
       433       145  TIP3  OH2           2.0003643049        7.1744519797       13.8955105861  CLST         145          1.0000000000
       434       145  TIP3  H1            1.1006514195        7.4244872827       14.2259265995  CLST         145          1.0000000000
       435       145  TIP3  H2            1.7094511734        6.9695484643       12.9818467024  CLST         145          1.0000000000
       436       146  TIP3  OH2          -5.9609153688       10.5392501904       -8.4056379054  CLST         146          1.0000000000
       437       146  TIP3  H1           -5.4980667626       11.3806238657       -8.4095996041  CLST         146          1.0000000000
       438       146  TIP3  H2           -6.7378361002       10.9723428399       -8.0650549389  CLST         146          1.0000000000
       439       147  TIP3  OH2           1.0385531754        2.9368339018       -4.4971306031  CLST         147          1.0000000000
       440       147  TIP3  H1            0.1777298938        3.2513224709       -4.2521856063  CLST         147          1.0000000000
       441       147  TIP3  H2            0.2102171372        3.1935871432       -5.3065336455  CLST         147          1.0000000000
       442       148  TIP3  OH2           7.4102813767        6.5823885685       -3.4106782325  CLST         148          1.0000000000
       443       148  TIP3  H1            7.8682452805        5.7900400429       -3.4218651581  CLST         148          1.0000000000
       444       148  TIP3  H2            7.0739670943        6.3526545807       -2.5820566034  CLST         148          1.0000000000
       445       149  TIP3  OH2          -4.1426088461      -13.3080354240       11.3334562798  CLST         149          1.0000000000
       446       149  TIP3  H1           -4.0170016629      -12.4714322840       11.6991742078  CLST         149          1.0000000000
       447       149  TIP3  H2           -3.6686684809      -13.6129351933       12.1182624301  CLST         149          1.0000000000
       448       150  TIP3  OH2          10.7383488996        1.1564622245       -2.4376473507  CLST         150          1.0000000000
       449       150  TIP3  H1           10.3922073991        1.2130567876       -1.5337510984  CLST         150          1.0000000000
       450       150  TIP3  H2            9.9289287664        0.8519480145       -2.8132611773  CLST         150          1.0000000000
       451       151  TIP3  OH2           3.7696555753      -12.1658956587        4.0652121251  CLST         151          1.0000000000
       452       151  TIP3  H1            3.7174313123      -12.8439508492        3.3547271540  CLST         151          1.0000000000
       453       151  TIP3  H2            3.4143397240      -11.8358408051        2.9379084421  CLST         151          1.0000000000
       454       152  TIP3  OH2           0.5435608504        6.0350097956       -5.9797330329  CLST         152          1.0000000000
       455       152  TIP3  H1            0.8820815341        6.9491771156       -5.8807032457  CLST         152          1.0000000000
       456       152  TIP3  H2            1.3717930356        5.9360281346       -6.5634619474  CLST         152          1.0000000000
       457       153  TIP3  OH2          -1.4493725117       10.1539236483       -7.6341703170  CLST         153          1.0000000000
       458       153  TIP3  H1           -1.3721727409       10.9051524491       -7.0571260925  CLST         153          1.0000000000
       459       153  TIP3  H2           -1.3211933165       10.7177908603       -8.4068366644  CLST         153          1.0000000000
       460       154  TIP3  OH2         -12.0970647332       -7.8639967942       -0.4849598841  CLST         154          1.0000000000
       461       154  TIP3  H1          -12.5132933966       -6.9774057609       -0.2506460238  CLST         154          1.0000000000
       462       154  TIP3  H2          -11.2407026044       -7.4419612565       -0.6405297758  CLST         154          1.0000000000
       463       155  TIP3  OH2          10.4805491131       -5.0146744757       14.4228662893  CLST         155          1.0000000000
       464       155  TIP3  H1           11.2970982378       -4.1740449236       14.2204663580  CLST         155          1.0000000000
       465       155  TIP3  H2           10.7279434882       -4.8299395774       13.6863978561  CLST         155          1.0000000000
       466       156  TIP3  OH2          13.9686431997        1.9895544289        0.1174552681  CLST         156          1.0000000000
       467       156  TIP3  H1           14.5166708852        1.2628689941        0.4319085160  CLST         156          1.0000000000
       468       156  TIP3  H2           14.1532715731        1.7182774781       -0.8457341429  CLST         156          1.0000000000
       469       157  TIP3  OH2           0.2404876406       -5.0845789854       -8.3928837779  CLST         157          1.0000000000
       470       157  TIP3  H1            1.0105192379       -4.9361280605       -8.9188321260  CLST         157          1.0000000000
       471       157  TIP3  H2            0.0863392509       -5.9839344402       -8.7968415717  CLST         157          1.0000000000
       472       158  TIP3  OH2          -6.9433989322       -1.5493244072       -2.2657604909  CLST         158          1.0000000000
       473       158  TIP3  H1           -7.7907519949       -1.7893159627       -2.6444860754  CLST         158          1.0000000000
       474       158  TIP3  H2           -6.5850142767       -2.3819485590       -2.6562458039  CLST         158          1.0000000000
       475       159  TIP3  OH2           8.1760864076      -11.4101000679        7.9992375167  CLST         159          1.0000000000
       476       159  TIP3  H1            7.4429660924      -11.2769932501        7.4415850609  CLST         159          1.0000000000
       477       159  TIP3  H2            8.1554246747      -10.6259934614        8.6060617844  CLST         159          1.0000000000
       478       160  TIP3  OH2           4.6226891324       -9.2434854353        2.0794177021  CLST         160          1.0000000000
       479       160  TIP3  H1            4.2740607075       -8.7869469958        2.8462287608  CLST         160          1.0000000000
       480       160  TIP3  H2            5.1577996738       -9.7875963391        2.6842122359  CLST         160          1.0000000000
       481       161  TIP3  OH2           3.7746820415       -6.9942450261       -3.0007446729  CLST         161          1.0000000000
       482       161  TIP3  H1            4.4318030431       -7.4274536872       -2.5723975593  CLST         161          1.0000000000
       483       161  TIP3  H2            3.0490711814       -7.3526253205       -2.4278708705  CLST         161          1.0000000000
       484       162  TIP3  OH2           6.6875416076      -10.6520919080        3.0308821679  CLST         162          1.0000000000
       485       162  TIP3  H1            7.4018728031      -11.1671705621        3.3581717680  CLST         162          1.0000000000
       486       162  TIP3  H2            7.0430328923       -9.8991888881        3.4485964994  CLST         162          1.0000000000
       487       163  TIP3  OH2         -13.2533329988        0.1906361226        2.8115629718  CLST         163          1.0000000000
       488       163  TIP3  H1          -13.7193560238        0.6241149980        3.5189522977  CLST         163          1.0000000000
       489       163  TIP3  H2          -12.6581670521       -0.2028202107        3.4195711365  CLST         163          1.0000000000
       490       164  TIP3  OH2           8.5510606883        2.9842298799       10.0783635113  CLST         164          1.0000000000
       491       164  TIP3  H1            8.4348176304        3.4920367769        9.2531557039  CLST         164          1.0000000000
       492       164  TIP3  H2            9.4935964675        2.9126422622        9.9104164196  CLST         164          1.0000000000
       493       165  TIP3  OH2          14.2491636648        3.8669758128        5.0209931142  CLST         165          1.0000000000
       494       165  TIP3  H1           13.2851102928        4.4742094202        4.5149024447  CLST         165          1.0000000000
       495       165  TIP3  H2           13.5100299974        3.4731881241        4.4211893274  CLST         165          1.0000000000
       496       166  TIP3  OH2          -6.4415094906      -12.8556157157        5.2153396980  CLST         166          1.0000000000
       497       166  TIP3  H1           -6.4274230731      -12.1292448402        4.5511829149  CLST         166          1.0000000000
       498       166  TIP3  H2           -7.1831226807      -12.2461378242        5.5461807110  CLST         166          1.0000000000
       499       167  TIP3  OH2           0.0180955904       -7.7617567646       -9.4416898603  CLST         167          1.0000000000
       500       167  TIP3  H1           -0.0174825670       -7.8177880006      -10.3325377376  CLST         167          1.0000000000
       501       167  TIP3  H2            0.8941246444       -8.1516791527       -9.2617950700  CLST         167          1.0000000000
       502       168  TIP3  OH2          -2.5402622461       -2.4635063655        1.7512532677  CLST         168          1.0000000000
       503       168  TIP3  H1           -2.9051480900       -3.2362814946        2.1460344025  CLST         168          1.0000000000
       504       168  TIP3  H2           -2.5024993492       -3.0302928375        0.9350462558  CLST         168          1.0000000000
       505       169  TIP3  OH2           0.7176035290       12.0669776359       12.6235574946  CLST         169          1.0000000000
       506       169  TIP3  H1            1.5243471789       11.3017202511       12.5119171384  CLST         169          1.0000000000
       507       169  TIP3  H2            1.5358361300       12.4263383274       12.8790515683  CLST         169          1.0000000000
       508       170  TIP3  OH2         -14.5706573601      -12.3718079860        4.8587253720  CLST         170          1.0000000000
       509       170  TIP3  H1          -13.8771760733      -12.8989279066        5.2677322165  CLST         170          1.0000000000
       510       170  TIP3  H2          -14.9106551599      -12.0949682155        5.6862078388  CLST         170          1.0000000000
       511       171  TIP3  OH2          -9.7792044779        2.4767677809        2.6365022262  CLST         171          1.0000000000
       512       171  TIP3  H1           -8.9477032555        2.9602409740        2.6206117780  CLST         171          1.0000000000
       513       171  TIP3  H2           -9.5659183761        1.9845810160        3.4444317671  CLST         171          1.0000000000
       514       172  TIP3  OH2          13.9153613325       -6.9931598889      -11.7459354930  CLST         172          1.0000000000
       515       172  TIP3  H1           13.8678733713       -7.0396669761      -10.8009222463  CLST         172          1.0000000000
       516       172  TIP3  H2           13.3258924486       -7.7451462027      -11.7792855528  CLST         172          1.0000000000
       517       173  TIP3  OH2         -12.8160763178       -5.5611785552        2.9557870036  CLST         173          1.0000000000
       518       173  TIP3  H1          -13.1716589232       -4.7019782050        3.1347878908  CLST         173          1.0000000000
       519       173  TIP3  H2          -13.0788776307       -5.6073145671        1.9750630256  CLST         173          1.0000000000
       520       174  TIP3  OH2           5.6694556899      -14.1758407260        5.8707232375  CLST         174          1.0000000000
       521       174  TIP3  H1            5.2791014840      -14.4028331180        6.7370081653  CLST         174          1.0000000000
       522       174  TIP3  H2            4.7422351191      -13.9224158206        5.7440834418  CLST         174          1.0000000000
       523       175  TIP3  OH2           4.3205021662       -3.6807883890        7.6257886976  CLST         175          1.0000000000
       524       175  TIP3  H1            3.8490493913       -4.3533821126        7.0497538216  CLST         175          1.0000000000
       525       175  TIP3  H2            5.1686381513       -3.9716262398        7.2345679199  CLST         175          1.0000000000
       526       176  TIP3  OH2           8.3281738847        2.6865770741      -10.8262004636  CLST         176          1.0000000000
       527       176  TIP3  H1            8.5991385326        2.2402350827      -10.0340335768  CLST         176          1.0000000000
       528       176  TIP3  H2            8.8928450883        2.1428258839      -11.4112938976  CLST         176          1.0000000000
       529       177  TIP3  OH2          -4.1858307356       10.9065442568        7.2118433287  CLST         177          1.0000000000
       530       177  TIP3  H1           -3.4974654579       10.9060621093        6.5064590655  CLST         177          1.0000000000
       531       177  TIP3  H2           -4.5387876300       10.0228927066        7.0207346347  CLST         177          1.0000000000
       532       178  TIP3  OH2           4.1263579352       -6.4265031132        0.8063464278  CLST         178          1.0000000000
       533       178  TIP3  H1            3.2683364451       -6.0152996438        0.7786069593  CLST         178          1.0000000000
       534       178  TIP3  H2            3.9304537212       -6.8098550579       -0.0145908858  CLST         178          1.0000000000
       535       179  TIP3  OH2           2.6899650275       -9.9172267784        0.2165613521  CLST         179          1.0000000000
       536       179  TIP3  H1            1.9897687939       -9.3461046830        0.4757142507  CLST         179          1.0000000000
       537       179  TIP3  H2            3.2737555046       -9.6647828255        0.9438066529  CLST         179          1.0000000000
       538       180  TIP3  OH2          -1.8279530331       -3.6284103611        8.2701417906  CLST         180          1.0000000000
       539       180  TIP3  H1           -1.8464257608       -2.7183623503        8.6137567712  CLST         180          1.0000000000
       540       180  TIP3  H2           -2.5139012985       -3.5748287868        7.6009089640  CLST         180          1.0000000000
       541       181  TIP3  OH2         -12.0456049130        0.1417706079      -11.2581287508  CLST         181          1.0000000000
       542       181  TIP3  H1          -11.1560557133        0.0392994289      -10.9578462276  CLST         181          1.0000000000
       543       181  TIP3  H2          -12.3161584859       -0.5814514157      -10.6862152352  CLST         181          1.0000000000
       544       182  TIP3  OH2         -10.4604558112      -12.8612337636        5.3450037724  CLST         182          1.0000000000
       545       182  TIP3  H1          -11.2295954048      -12.9645682679        5.9219738180  CLST         182          1.0000000000
       546       182  TIP3  H2          -10.1599677027      -12.3019515259        6.0720047355  CLST         182          1.0000000000
       547       183  TIP3  OH2          11.7689734237        5.5904525901        4.5356424098  CLST         183          1.0000000000
       548       183  TIP3  H1           11.6852303213        5.5588283182        3.5429173145  CLST         183          1.0000000000
       549       183  TIP3  H2           11.3177828432        6.4309827124        4.4945457483  CLST         183          1.0000000000
       550       184  TIP3  OH2          -0.3111360940       -0.6748128935        8.0024312725  CLST         184          1.0000000000
       551       184  TIP3  H1            0.6841910037       -0.5746811567        8.0035254636  CLST         184          1.0000000000
       552       184  TIP3  H2           -0.4987332063       -0.8137242202        8.9494624802  CLST         184          1.0000000000
       553       185  TIP3  OH2           9.3057038824       12.9419687554       -3.7750128085  CLST         185          1.0000000000
       554       185  TIP3  H1            8.4357402886       12.4238920987       -3.6749789212  CLST         185          1.0000000000
       555       185  TIP3  H2            8.9098013230       13.6157010485       -4.2680829529  CLST         185          1.0000000000
       556       186  TIP3  OH2          11.7234739096       -0.1320652276        4.1989720455  CLST         186          1.0000000000
       557       186  TIP3  H1           12.0993243332       -0.0335888501        3.3328643613  CLST         186          1.0000000000
       558       186  TIP3  H2           10.9300109109        0.3635816040        3.9763781599  CLST         186          1.0000000000
       559       187  TIP3  OH2          -9.9765383043       -7.5643037003      -11.2960721855  CLST         187          1.0000000000
       560       187  TIP3  H1          -10.4683256164       -7.5085306997      -10.5128692751  CLST         187          1.0000000000
       561       187  TIP3  H2          -10.0842963109       -6.6595090485      -11.4636171698  CLST         187          1.0000000000
       562       188  TIP3  OH2         -15.0933349557       -0.3896631784        0.8861045152  CLST         188          1.0000000000
       563       188  TIP3  H1          -14.3867170193       -0.4847580061        1.4878664481  CLST         188          1.0000000000
       564       188  TIP3  H2          -14.8507618236       -0.9827985188        0.1097276956  CLST         188          1.0000000000
       565       189  TIP3  OH2          14.1691025692        0.6684474616       14.2567637751  CLST         189          1.0000000000
       566       189  TIP3  H1           14.5768276746        0.6403862995       15.0933349557  CLST         189          1.0000000000
       567       189  TIP3  H2           14.9366816081        0.6246321491       13.6948084636  CLST         189          1.0000000000
       568       190  TIP3  OH2           0.3789236580       -7.7744365069        3.9468054357  CLST         190          1.0000000000
       569       190  TIP3  H1            0.8385417452       -8.4161733111        4.5189337704  CLST         190          1.0000000000
       570       190  TIP3  H2            1.1378728851       -7.1175316966        3.9075452812  CLST         190          1.0000000000
       571       191  TIP3  OH2          -0.8813525316       14.2498351852       -3.9998332785  CLST         191          1.0000000000
       572       191  TIP3  H1           -1.7784295305       13.8752857041       -4.2183912855  CLST         191          1.0000000000
       573       191  TIP3  H2           -1.3493447178       15.0893878048       -3.8191557970  CLST         191          1.0000000000
       574       192  TIP3  OH2          -5.0641363629       -0.2709421973       -0.7615885212  CLST         192          1.0000000000
       575       192  TIP3  H1           -5.8087084473       -0.4421286498       -1.3619031632  CLST         192          1.0000000000
       576       192  TIP3  H2           -5.7404257347        0.2156066255       -0.1914501611  CLST         192          1.0000000000
       577       193  TIP3  OH2         -12.8569572328      -13.1443989724        6.9309887728  CLST         193          1.0000000000
       578       193  TIP3  H1          -12.9253245194      -13.7960789150        7.6183079247  CLST         193          1.0000000000
       579       193  TIP3  H2          -12.3058329186      -12.6490810227        7.5796730147  CLST         193          1.0000000000
       580       194  TIP3  OH2          12.7435273490       12.5095268077      -11.1393025923  CLST         194          1.0000000000
       581       194  TIP3  H1           12.7499767948       13.2682077993      -11.7189439172  CLST         194          1.0000000000
       582       194  TIP3  H2           13.4447135099       12.0654327068      -11.5677967028  CLST         194          1.0000000000
       583       195  TIP3  OH2           4.9530254240        2.7720227773        3.5300470250  CLST         195          1.0000000000
       584       195  TIP3  H1            4.3213056546        2.7306583305        2.8792765100  CLST         195          1.0000000000
       585       195  TIP3  H2            4.5659960118        1.7417494905        3.1617338738  CLST         195          1.0000000000
       586       196  TIP3  OH2           7.1251495318        6.3693735523       11.9467476302  CLST         196          1.0000000000
       587       196  TIP3  H1            8.0214977783        6.5269811304       12.2875383537  CLST         196          1.0000000000
       588       196  TIP3  H2            6.9124108363        7.0189099811       12.5684490946  CLST         196          1.0000000000
       589       197  TIP3  OH2          -4.3736474618       -9.3726513852        3.7072860079  CLST         197          1.0000000000
       590       197  TIP3  H1           -4.7058740369       -9.0738707162        2.8592184446  CLST         197          1.0000000000
       591       197  TIP3  H2           -3.7723877899       -8.6199231514        3.8360860379  CLST         197          1.0000000000
       592       198  TIP3  OH2          -4.4405748537       -8.8998250753       -6.0369306583  CLST         198          1.0000000000
       593       198  TIP3  H1           -3.8872267602       -8.6427184304       -6.7729348694  CLST         198          1.0000000000
       594       198  TIP3  H2           -5.2289228577       -8.8835654021       -6.5540706028  CLST         198          1.0000000000
       595       199  TIP3  OH2          11.5111930694        7.6440435863       -2.5446502960  CLST         199          1.0000000000
       596       199  TIP3  H1           11.0790832293        8.3732555128       -2.1405968024  CLST         199          1.0000000000
       597       199  TIP3  H2           12.2168072473        7.7258014460       -1.9382067005  CLST         199          1.0000000000
       598       200  TIP3  OH2          -4.6766861494       -7.4722041545       -1.1233900680  CLST         200          1.0000000000
       599       200  TIP3  H1           -3.7680132935       -7.7142379675       -1.1821596107  CLST         200          1.0000000000
       600       200  TIP3  H2           -4.6053193771       -6.7555924032       -1.7835616117  CLST         200          1.0000000000
       601       201  TIP3  OH2          13.9093430751      -10.2930044708       11.8537674837  CLST         201          1.0000000000
       602       201  TIP3  H1           14.5201945346      -10.0516450120       11.2018882050  CLST         201          1.0000000000
       603       201  TIP3  H2           13.0204034736      -10.0824505736       11.5238901281  CLST         201          1.0000000000
       604       202  TIP3  OH2          -2.8676091523       -9.5445908101        7.9556116030  CLST         202          1.0000000000
       605       202  TIP3  H1           -2.2692035170      -10.0958848979        8.5403588502  CLST         202          1.0000000000
       606       202  TIP3  H2           -2.4836142399      -10.1411185482        7.3072343757  CLST         202          1.0000000000
       607       203  TIP3  OH2          10.3055283130        4.2490185400       13.6737937934  CLST         203          1.0000000000
       608       203  TIP3  H1            9.4405586175        3.8302101636       13.2895803014  CLST         203          1.0000000000
       609       203  TIP3  H2           10.4092724567        3.8335026834       14.5486264143  CLST         203          1.0000000000
       610       204  TIP3  OH2          -5.3025236951        6.1101455051        6.0461643061  CLST         204          1.0000000000
       611       204  TIP3  H1           -5.9912018237        6.7750339002        5.9792771497  CLST         204          1.0000000000
       612       204  TIP3  H2           -4.8162099417        6.6170899203        6.7024697526  CLST         204          1.0000000000
       613       205  TIP3  OH2          -2.1926060690        1.4224733671       -4.9621946614  CLST         205          1.0000000000
       614       205  TIP3  H1           -1.4975082347        1.6693904582       -5.5644074929  CLST         205          1.0000000000
       615       205  TIP3  H2           -2.7467249038        2.0525756927       -5.4815296848  CLST         205          1.0000000000
       616       206  TIP3  OH2          -8.7319235252       -1.2333515930        4.5812433202  CLST         206          1.0000000000
       617       206  TIP3  H1           -8.9395268260       -1.5131565418        5.5043590410  CLST         206          1.0000000000
       618       206  TIP3  H2           -8.1523811805       -0.5277280247        5.0347694456  CLST         206          1.0000000000
       619       207  TIP3  OH2          -7.7087868760        9.5420829343        0.3667370588  CLST         207          1.0000000000
       620       207  TIP3  H1           -7.1519361189        8.7634750192        0.4282629992  CLST         207          1.0000000000
       621       207  TIP3  H2           -8.3757510795        9.0156046981        0.7963685920  CLST         207          1.0000000000
       622       208  TIP3  OH2           9.3016821462       14.2515489725      -11.6090899264  CLST         208          1.0000000000
       623       208  TIP3  H1            9.2535050011       13.9199645650      -12.4807859295  CLST         208          1.0000000000
       624       208  TIP3  H2            9.9596161624       14.9218281167      -11.5952799906  CLST         208          1.0000000000
       625       209  TIP3  OH2          -6.5217742015       -6.3413004601      -14.4433104819  CLST         209          1.0000000000
       626       209  TIP3  H1           -7.4428290305       -6.3006250602      -14.1138854800  CLST         209          1.0000000000
       627       209  TIP3  H2           -6.3875052705       -6.8459365418      -13.6702205530  CLST         209          1.0000000000
       628       210  TIP3  OH2          -2.0739488497        1.2398005622        8.0645154239  CLST         210          1.0000000000
       629       210  TIP3  H1           -1.3987134851        0.6280739204        7.8696286871  CLST         210          1.0000000000
       630       210  TIP3  H2           -1.8668458834        1.2753070646        9.0341647109  CLST         210          1.0000000000
       631       211  TIP3  OH2          -0.6061124291       -0.0080824508       -2.8954444590  CLST         211          1.0000000000
       632       211  TIP3  H1           -1.2901727902       -0.4349716823       -2.3806284920  CLST         211          1.0000000000
       633       211  TIP3  H2           -1.2218883841        0.4605180231       -3.4701477046  CLST         211          1.0000000000
       634       212  TIP3  OH2           6.8533543504        3.0243729248        5.6142210023  CLST         212          1.0000000000
       635       212  TIP3  H1            6.3980379823        2.1142804581        5.7456266571  CLST         212          1.0000000000
       636       212  TIP3  H2            6.0117164769        2.6737345189        4.9265562806  CLST         212          1.0000000000
       637       213  TIP3  OH2           2.0923287413       -4.8196525311       -0.4242306485  CLST         213          1.0000000000
       638       213  TIP3  H1            1.9337864335       -4.0043328440       -0.9231918661  CLST         213          1.0000000000
       639       213  TIP3  H2            1.8144296203       -5.2435463991       -1.3154825813  CLST         213          1.0000000000
       640       214  TIP3  OH2           2.2793902566       -7.1971969601      -11.8809184613  CLST         214          1.0000000000
       641       214  TIP3  H1            2.6740526960       -7.9911072817      -11.5281561835  CLST         214          1.0000000000
       642       214  TIP3  H2            2.7732458078       -6.6878745643      -11.2268470223  CLST         214          1.0000000000
       643       215  TIP3  OH2         -12.6535761249        2.7857440398      -11.0459328474  CLST         215          1.0000000000
       644       215  TIP3  H1          -11.8149172104        2.7454125856      -10.6873004268  CLST         215          1.0000000000
       645       215  TIP3  H2          -12.6376991482        1.8435312606      -11.2322659662  CLST         215          1.0000000000
       646       216  TIP3  OH2          11.6356260894       -6.4398316670       -4.4819687147  CLST         216          1.0000000000
       647       216  TIP3  H1           11.0225408936       -7.1387628591       -4.4118572363  CLST         216          1.0000000000
       648       216  TIP3  H2           10.9703555876       -5.9318520412       -4.8939024261  CLST         216          1.0000000000
       649       217  TIP3  OH2          -6.5554718087        9.4431214944        4.1854690150  CLST         217          1.0000000000
       650       217  TIP3  H1           -5.5846873064        9.2879863320        4.3620676635  CLST         217          1.0000000000
       651       217  TIP3  H2           -6.7672936341        8.5747503430        3.7683223809  CLST         217          1.0000000000
       652       218  TIP3  OH2           5.8230968319       -7.4146496308       -8.3862057084  CLST         218          1.0000000000
       653       218  TIP3  H1            6.0522160677       -8.3724803204       -8.2839183183  CLST         218          1.0000000000
       654       218  TIP3  H2            5.5491417283       -7.3466163319       -7.4239899367  CLST         218          1.0000000000
       655       219  TIP3  OH2           2.5563599788      -13.5870825178        7.5215324061  CLST         219          1.0000000000
       656       219  TIP3  H1            2.0695422521      -13.3511603441        8.2256471080  CLST         219          1.0000000000
       657       219  TIP3  H2            3.4152522263      -13.6025844478        7.9579781743  CLST         219          1.0000000000
       658       220  TIP3  OH2           2.5161328850        1.4532320150      -11.1259832466  CLST         220          1.0000000000
       659       220  TIP3  H1            2.6844388999        1.9346078705      -11.8869037146  CLST         220          1.0000000000
       660       220  TIP3  H2            3.4260922119        1.1333239599      -11.0980376096  CLST         220          1.0000000000
       661       221  TIP3  OH2           1.6105537351       -0.4634280383        3.0746110987  CLST         221          1.0000000000
       662       221  TIP3  H1            0.6605447757       -0.2740449189        3.2081542352  CLST         221          1.0000000000
       663       221  TIP3  H2            1.8599378125        0.3947737938        3.2656853527  CLST         221          1.0000000000
       664       222  TIP3  OH2          12.0337302494        0.5845173858        1.6601579074  CLST         222          1.0000000000
       665       222  TIP3  H1           12.6051636388        0.4221916442        0.9148885501  CLST         222          1.0000000000
       666       222  TIP3  H2           11.2138058871        0.5974148671        1.0910850091  CLST         222          1.0000000000
       667       223  TIP3  OH2           1.1930461447      -10.4545812442      -13.2483666424  CLST         223          1.0000000000
       668       223  TIP3  H1            0.8184046452      -10.6934129029      -12.3490795835  CLST         223          1.0000000000
       669       223  TIP3  H2            0.6240914291       -9.7304390363      -13.2316354723  CLST         223          1.0000000000
       670       224  TIP3  OH2          -9.1009060479        6.8709744800      -13.0061265363  CLST         224          1.0000000000
       671       224  TIP3  H1           -9.6216592781        5.9670119474      -12.5768321267  CLST         224          1.0000000000
       672       224  TIP3  H2           -8.6567623668        5.8487243336      -13.0180496418  CLST         224          1.0000000000
       673       225  TIP3  OH2          13.2134877054        3.7289102684       -7.5854341638  CLST         225          1.0000000000
       674       225  TIP3  H1           12.3314627513        3.8303835372       -8.0145327473  CLST         225          1.0000000000
       675       225  TIP3  H2           12.8285225369        3.3266311936       -6.7512293351  CLST         225          1.0000000000
       676       226  TIP3  OH2           5.2265065139        4.8827935384       10.8032475714  CLST         226          1.0000000000
       677       226  TIP3  H1            6.0143436545        5.3886347363       10.9692781652  CLST         226          1.0000000000
       678       226  TIP3  H2            5.5835603589        4.2189236141       11.3110982144  CLST         226          1.0000000000
       679       227  TIP3  OH2          -6.0405404990        1.1479648746        9.8402792663  CLST         227          1.0000000000
       680       227  TIP3  H1           -6.7607174833        0.8091492819       10.3971226537  CLST         227          1.0000000000
       681       227  TIP3  H2           -5.8123493523        0.2226237084        9.5828483752  CLST         227          1.0000000000
       682       228  TIP3  OH2          -8.6569900978       -5.1469419721       10.4689529635  CLST         228          1.0000000000
       683       228  TIP3  H1           -8.3160080782       -4.6360660857        9.7592274031  CLST         228          1.0000000000
       684       228  TIP3  H2           -7.8267744076       -5.5571237012       10.6906411139  CLST         228          1.0000000000
       685       229  TIP3  OH2          11.2422822542        8.0211887620      -15.0209356239  CLST         229          1.0000000000
       686       229  TIP3  H1           11.2357404885        8.4148919316      -14.1919734628  CLST         229          1.0000000000
       687       229  TIP3  H2           11.8750593031        7.3847038129      -14.7624322905  CLST         229          1.0000000000
       688       230  TIP3  OH2         -10.7482925400       -3.5621789057        8.6777499701  CLST         230          1.0000000000
       689       230  TIP3  H1          -10.9178630603       -4.4462375572        8.4877285798  CLST         230          1.0000000000
       690       230  TIP3  H2          -11.4660600731       -3.4127731290        9.2650050578  CLST         230          1.0000000000
       691       231  TIP3  OH2          -0.3849420730        3.0459435413      -12.0801345196  CLST         231          1.0000000000
       692       231  TIP3  H1            0.3283734012        2.7641034109      -11.5223873208  CLST         231          1.0000000000
       693       231  TIP3  H2            0.0963096431        2.8167855351      -12.8523307792  CLST         231          1.0000000000
       694       232  TIP3  OH2           1.8101805259      -15.0933349557      -12.1114851945  CLST         232          1.0000000000
       695       232  TIP3  H1            1.6993453273      -14.5274917660      -11.4021621510  CLST         232          1.0000000000
       696       232  TIP3  H2            2.0121076897      -14.4167877563      -12.7216142408  CLST         232          1.0000000000
       697       233  TIP3  OH2         -12.3069626377        9.7501031011        2.0977202255  CLST         233          1.0000000000
       698       233  TIP3  H1          -12.8134163649        9.6026199337        2.8732246186  CLST         233          1.0000000000
       699       233  TIP3  H2          -13.0861653443        9.8807255913        1.5978788597  CLST         233          1.0000000000
       700       234  TIP3  OH2          -2.2612196800        4.5047837445       -8.1743221451  CLST         234          1.0000000000
       701       234  TIP3  H1           -2.4501769522        5.4699680932       -8.1320249667  CLST         234          1.0000000000
       702       234  TIP3  H2           -2.1528772619        4.4742471721       -9.1312669731  CLST         234          1.0000000000
       703       235  TIP3  OH2         -10.4287104484        5.0205855514       -5.6269804323  CLST         235          1.0000000000
       704       235  TIP3  H1          -10.7813768588        4.6511115666       -6.4247998803  CLST         235          1.0000000000
       705       235  TIP3  H2           -9.5727569810        4.7768454460       -5.7557013872  CLST         235          1.0000000000
       706       236  TIP3  OH2         -12.4413791671      -10.7613302852       13.5124322545  CLST         236          1.0000000000
       707       236  TIP3  H1          -11.7678981195      -11.2604223721       13.1889606995  CLST         236          1.0000000000
       708       236  TIP3  H2          -12.3916560576      -10.0817630519       12.7951625185  CLST         236          1.0000000000
       709       237  TIP3  OH2          -6.1977975907       -6.3136847809       10.5850890681  CLST         237          1.0000000000
       710       237  TIP3  H1           -5.9498671638       -6.8668243574        9.8601780592  CLST         237          1.0000000000
       711       237  TIP3  H2           -5.3786497698       -6.2155441649       11.0556689451  CLST         237          1.0000000000
       712       238  TIP3  OH2          -0.9185384853        3.6608074150       -2.6394841139  CLST         238          1.0000000000
       713       238  TIP3  H1           -1.3651019164        4.3467431944       -3.0989803485  CLST         238          1.0000000000
       714       238  TIP3  H2           -1.7083574274        3.3110987818       -2.3621727775  CLST         238          1.0000000000
       715       239  TIP3  OH2           8.1114441402        7.5060535412       -0.0432270225  CLST         239          1.0000000000
       716       239  TIP3  H1            8.4452791065        6.6923792615       -0.4265523310  CLST         239          1.0000000000
       717       239  TIP3  H2            9.0399636541        7.6619406669        0.1850660552  CLST         239          1.0000000000
       718       240  TIP3  OH2          -9.8174898706        8.4786632703        1.7909023808  CLST         240          1.0000000000
       719       240  TIP3  H1          -10.6712612099        8.9517075000        1.8509070286  CLST         240          1.0000000000
       720       240  TIP3  H2          -10.3113734724        7.7148658081        1.9600630855  CLST         240          1.0000000000
       721       241  TIP3  OH2          10.9954990292       -4.4871630073       -1.7051293927  CLST         241          1.0000000000
       722       241  TIP3  H1           10.2901266082       -4.7984171137       -2.2444139769  CLST         241          1.0000000000
       723       241  TIP3  H2           11.6343224250       -4.8145194877       -2.3444181013  CLST         241          1.0000000000
       724       242  TIP3  OH2           9.4166743371       -1.6847052259       -4.4832742893  CLST         242          1.0000000000
       725       242  TIP3  H1           10.1910562520       -1.2676984563       -4.1740648113  CLST         242          1.0000000000
       726       242  TIP3  H2            9.5213150536       -2.2747735193       -3.7409569989  CLST         242          1.0000000000
       727       243  TIP3  OH2           5.0917068272        9.4788980729      -12.2562524931  CLST         243          1.0000000000
       728       243  TIP3  H1            4.5880553356       10.0446180980      -11.6463686532  CLST         243          1.0000000000
       729       243  TIP3  H2            5.0977658881        8.8037914745      -11.5357215103  CLST         243          1.0000000000
       730       244  TIP3  OH2          -9.1867591904       -6.5881614294      -14.3063872729  CLST         244          1.0000000000
       731       244  TIP3  H1           -9.5647596181       -6.0197919812      -13.6446013520  CLST         244          1.0000000000
       732       244  TIP3  H2           -9.9919798928       -6.7763486819      -14.7548521906  CLST         244          1.0000000000
       733       245  TIP3  OH2         -13.2296996404        6.1596097032        2.2869441197  CLST         245          1.0000000000
       734       245  TIP3  H1          -13.1509841996        6.7291618410        3.0101956625  CLST         245          1.0000000000
       735       245  TIP3  H2          -12.2895988972        5.9179513819        2.3057562996  CLST         245          1.0000000000
       736       246  TIP3  OH2          -9.2072500481        6.3655241588       -1.8771863912  CLST         246          1.0000000000
       737       246  TIP3  H1          -10.1179607904        6.4160251126       -2.0970593908  CLST         246          1.0000000000
       738       246  TIP3  H2           -9.1204609168        7.2865399481       -2.1092388949  CLST         246          1.0000000000
       739       247  TIP3  OH2          -4.5459186779        8.0065117523        7.9624861246  CLST         247          1.0000000000
       740       247  TIP3  H1           -3.5835166140        8.0906679877        8.0983812755  CLST         247          1.0000000000
       741       247  TIP3  H2           -4.6614710610        7.6616051007        8.8587999868  CLST         247          1.0000000000
       742       248  TIP3  OH2           9.9694398754       -8.2261344982        7.9174684577  CLST         248          1.0000000000
       743       248  TIP3  H1            9.1166977695       -8.4957346573        7.5187587774  CLST         248          1.0000000000
       744       248  TIP3  H2           10.2532101257       -8.0767143865        6.9904255867  CLST         248          1.0000000000
       745       249  TIP3  OH2           9.7068377030        5.6169015554       -1.2954096312  CLST         249          1.0000000000
       746       249  TIP3  H1           10.3819302538        5.0126520944       -1.0573361007  CLST         249          1.0000000000
       747       249  TIP3  H2           10.2378748749        6.0361611160       -1.9218991596  CLST         249          1.0000000000
       748       250  TIP3  OH2           5.8530072026       -4.7124864046        3.3959141868  CLST         250          1.0000000000
       749       250  TIP3  H1            5.8332484951       -5.4345314826        2.8244240676  CLST         250          1.0000000000
       750       250  TIP3  H2            5.2599842726       -4.9898672807        4.0041800063  CLST         250          1.0000000000
       751       251  TIP3  OH2         -14.5132319242      -11.7278248626        1.7948558911  CLST         251          1.0000000000
       752       251  TIP3  H1          -14.3283267923      -12.4773908644        1.3424234901  CLST         251          1.0000000000
       753       251  TIP3  H2          -14.3572264493      -12.0546900598        2.6678548461  CLST         251          1.0000000000
       754       252  TIP3  OH2          -7.2048520451      -14.8146077599      -11.9711312070  CLST         252          1.0000000000
       755       252  TIP3  H1           -8.1240921316      -14.9466457261      -11.8589684723  CLST         252          1.0000000000
       756       252  TIP3  H2           -7.3500768394      -13.9910437467      -12.4319142258  CLST         252          1.0000000000
       757       253  TIP3  OH2           0.7710945174        7.4122050965        7.9038166289  CLST         253          1.0000000000
       758       253  TIP3  H1            0.4483149961        7.2587707888        7.0007959719  CLST         253          1.0000000000
       759       253  TIP3  H2            1.6872116830        7.4590732423        7.6038135554  CLST         253          1.0000000000
       760       254  TIP3  OH2         -11.5024896728        1.4402262378      -14.5196679452  CLST         254          1.0000000000
       761       254  TIP3  H1          -12.1638221426        0.7947999437      -14.2798144278  CLST         254          1.0000000000
       762       254  TIP3  H2          -12.1611123085        2.0644746759      -14.6797307903  CLST         254          1.0000000000
       763       255  TIP3  OH2           4.1560809007       -0.0404372580       -0.7689770029  CLST         255          1.0000000000
       764       255  TIP3  H1            4.1128650625       -0.7440797684       -0.1619783225  CLST         255          1.0000000000
       765       255  TIP3  H2            3.2557850625       -0.2239114672       -1.1024461887  CLST         255          1.0000000000
       766       256  TIP3  OH2          14.1519205625       -3.1502606850      -12.1983201231  CLST         256          1.0000000000
       767       256  TIP3  H1           14.7420871703       -3.2057605079      -12.9352700585  CLST         256          1.0000000000
       768       256  TIP3  H2           13.4209653593       -3.6749357854      -12.5959425840  CLST         256          1.0000000000
       769       257  TIP3  OH2          -6.5855918356      -13.4780876557       10.2088605503  CLST         257          1.0000000000
       770       257  TIP3  H1           -6.6236051350      -14.4006563155        9.9292803052  CLST         257          1.0000000000
       771       257  TIP3  H2           -5.8724120542      -13.7328608199       10.7903051894  CLST         257          1.0000000000
       772       258  TIP3  OH2         -10.3151996454      -11.8592014416       -6.5640617654  CLST         258          1.0000000000
       773       258  TIP3  H1           -9.9653068632      -11.7698864114       -5.6962996796  CLST         258          1.0000000000
       774       258  TIP3  H2          -10.5904148767      -10.9183786459       -6.5361933458  CLST         258          1.0000000000
       775       259  TIP3  OH2           2.6883121182        1.6290235259       14.1018442470  CLST         259          1.0000000000
       776       259  TIP3  H1            2.8991133658        0.6999215154       14.0266956671  CLST         259          1.0000000000
       777       259  TIP3  H2            2.8032876406        1.5753288955       15.0555669420  CLST         259          1.0000000000
       778       260  TIP3  OH2         -10.6882039600      -10.3435317277       -9.5865769648  CLST         260          1.0000000000
       779       260  TIP3  H1          -11.4008111300      -10.8619142301       -9.9867806968  CLST         260          1.0000000000
       780       260  TIP3  H2          -11.2697039317       -9.8402660892       -9.0546207492  CLST         260          1.0000000000
       781       261  TIP3  OH2           7.1073228030        1.0819187176       -0.1307041215  CLST         261          1.0000000000
       782       261  TIP3  H1            7.0604188098        1.7308272185       -0.8728530900  CLST         261          1.0000000000
       783       261  TIP3  H2            6.2482662398        1.1332661934        0.2034358670  CLST         261          1.0000000000
       784       262  TIP3  OH2          -1.8620849656       14.3698539248        3.1094969661  CLST         262          1.0000000000
       785       262  TIP3  H1           -2.3756272614       13.9184548686        3.8529410939  CLST         262          1.0000000000
       786       262  TIP3  H2           -1.3582360539       13.5156532892        3.3536139797  CLST         262          1.0000000000
       787       263  TIP3  OH2           6.7212657367        3.8765219244        1.8103514085  CLST         263          1.0000000000
       788       263  TIP3  H1            6.3306578016        3.2142042230        1.2981448221  CLST         263          1.0000000000
       789       263  TIP3  H2            6.4774842149        3.3980321132        2.6386980271  CLST         263          1.0000000000
       790       264  TIP3  OH2          -3.0404249516       10.2590487337       10.3033605257  CLST         264          1.0000000000
       791       264  TIP3  H1           -2.7060602461       11.1217719221       10.5216289512  CLST         264          1.0000000000
       792       264  TIP3  H2           -2.1747372629       10.1241374833        9.9726252041  CLST         264          1.0000000000
       793       265  TIP3  OH2         -12.7999084561       12.6873105940       -0.1992318629  CLST         265          1.0000000000
       794       265  TIP3  H1          -13.1989722230       13.0188261220       -0.9743372300  CLST         265          1.0000000000
       795       265  TIP3  H2          -13.2762176728       11.8361156877       -0.1328789714  CLST         265          1.0000000000
       796       266  TIP3  OH2          -3.9696657655        1.7052506831        4.0761242319  CLST         266          1.0000000000
       797       266  TIP3  H1           -4.2142776917        0.8480804667        3.5897992411  CLST         266          1.0000000000
       798       266  TIP3  H2           -3.6965073371        2.1296529238        3.3123086711  CLST         266          1.0000000000
       799       267  TIP3  OH2          -7.1069419059       11.6485625741       -5.3775448192  CLST         267          1.0000000000
       800       267  TIP3  H1           -7.7880783262       11.6137881817       -6.0692774937  CLST         267          1.0000000000
       801       267  TIP3  H2           -7.7525232827       12.1874929669       -4.9136470404  CLST         267          1.0000000000
       802       268  TIP3  OH2           4.9610427788        3.4629886279      -14.0849915536  CLST         268          1.0000000000
       803       268  TIP3  H1            5.5991632592        3.6303748359      -13.3782414267  CLST         268          1.0000000000
       804       268  TIP3  H2            4.9600474972        4.3500377667      -14.4140354129  CLST         268          1.0000000000
       805       269  TIP3  OH2           9.2806862520       -0.3549139931       11.2458075758  CLST         269          1.0000000000
       806       269  TIP3  H1           10.1155771028        0.2473124088       11.7061288495  CLST         269          1.0000000000
       807       269  TIP3  H2            9.4192352017       -0.4765902358       12.1705189680  CLST         269          1.0000000000
       808       270  TIP3  OH2          -8.1554281471       -5.8993542771        6.3589981446  CLST         270          1.0000000000
       809       270  TIP3  H1           -8.1572278523       -5.9124223948        5.3762618499  CLST         270          1.0000000000
       810       270  TIP3  H2           -7.2517533445       -5.7698739902        6.4916161155  CLST         270          1.0000000000
       811       271  TIP3  OH2         -11.7367809828       12.3500043686       11.5290589972  CLST         271          1.0000000000
       812       271  TIP3  H1          -11.2467166579       12.3031554500       12.3660028385  CLST         271          1.0000000000
       813       271  TIP3  H2          -11.1004878131       12.8017116115       11.0220560348  CLST         271          1.0000000000
       814       272  TIP3  OH2           7.0344787723      -14.1031609779        3.1607826510  CLST         272          1.0000000000
       815       272  TIP3  H1            7.7791214510      -13.4879236915        3.4686906679  CLST         272          1.0000000000
       816       272  TIP3  H2            6.6317079106      -13.9968652672        4.0343286848  CLST         272          1.0000000000
       817       273  TIP3  OH2          -8.5373949778       10.9446160860       -7.6471193749  CLST         273          1.0000000000
       818       273  TIP3  H1           -9.2754072992       11.5200088085       -7.8730155101  CLST         273          1.0000000000
       819       273  TIP3  H2           -9.0914935837       10.2204307460       -7.7776265176  CLST         273          1.0000000000
       820       274  TIP3  OH2          -6.7420523547        0.5837309378       13.8456402422  CLST         274          1.0000000000
       821       274  TIP3  H1           -7.6206764899        0.8552379102       14.2516652731  CLST         274          1.0000000000
       822       274  TIP3  H2           -7.1693733315        0.5000205977       12.9990848900  CLST         274          1.0000000000
       823       275  TIP3  OH2           3.7363072682      -15.0933349557       -0.8054012863  CLST         275          1.0000000000
       824       275  TIP3  H1            3.1364416718      -14.3695798642       -0.7036264809  CLST         275          1.0000000000
       825       275  TIP3  H2            4.2723119464      -14.6180199252       -1.4225255565  CLST         275          1.0000000000
       826       276  TIP3  OH2           2.3478671999      -10.0487538120        7.2009880497  CLST         276          1.0000000000
       827       276  TIP3  H1            2.1026030769      -10.3623172016        8.0353827786  CLST         276          1.0000000000
       828       276  TIP3  H2            3.1460406181       -9.7026870505        7.5782583977  CLST         276          1.0000000000
       829       277  TIP3  OH2          -7.1355947948        7.0463855422        2.8696735256  CLST         277          1.0000000000
       830       277  TIP3  H1           -7.9338618579        6.9104053278        2.3798929184  CLST         277          1.0000000000
       831       277  TIP3  H2           -6.8510029097        6.1534972338        2.6700845604  CLST         277          1.0000000000
       832       278  TIP3  OH2           5.0971745393      -10.4051153578        9.9783126301  CLST         278          1.0000000000
       833       278  TIP3  H1            4.8504732518       -9.5347874304        9.5492800850  CLST         278          1.0000000000
       834       278  TIP3  H2            4.5530263361      -10.2202545721       10.7734473112  CLST         278          1.0000000000
       835       279  TIP3  OH2          11.9481950778       -5.7880363515        7.3980236103  CLST         279          1.0000000000
       836       279  TIP3  H1           11.3919845730       -6.2461829393        6.7392230710  CLST         279          1.0000000000
       837       279  TIP3  H2           12.6435689837       -5.4546705477        6.7958654688  CLST         279          1.0000000000
       838       280  TIP3  OH2           6.7805026398       -8.9392734223       12.7188654944  CLST         280          1.0000000000
       839       280  TIP3  H1            6.9439195835       -9.8698604066       12.8309697341  CLST         280          1.0000000000
       840       280  TIP3  H2            7.6515601009       -8.6321853139       12.5642988086  CLST         280          1.0000000000
       841       281  TIP3  OH2          -1.5121903804        4.5769035401       10.7166236358  CLST         281          1.0000000000
       842       281  TIP3  H1           -2.2395948818        3.9373456749       10.7490880646  CLST         281          1.0000000000
       843       281  TIP3  H2           -1.4387750917        4.8361106026       11.5820871497  CLST         281          1.0000000000
       844       282  TIP3  OH2          10.5666123494       10.8182247803      -10.9259911736  CLST         282          1.0000000000
       845       282  TIP3  H1           11.1574904706       10.2154182562      -11.3792101157  CLST         282          1.0000000000
       846       282  TIP3  H2           11.3145016111       11.4251271255      -10.8952334801  CLST         282          1.0000000000
       847       283  TIP3  OH2          -3.0608161534       -4.4147929504       -0.1606231809  CLST         283          1.0000000000
       848       283  TIP3  H1           -3.7270217358       -4.6166571292       -0.7903335059  CLST         283          1.0000000000
       849       283  TIP3  H2           -3.0544348033       -5.3139540237        0.1605724723  CLST         283          1.0000000000
       850       284  TIP3  OH2           4.1294411079       10.6931728756        2.0445519063  CLST         284          1.0000000000
       851       284  TIP3  H1            4.4991676085        9.9036104936        1.7311941192  CLST         284          1.0000000000
       852       284  TIP3  H2            3.5982729284       10.2539156456        2.6917652009  CLST         284          1.0000000000
       853       285  TIP3  OH2         -11.6385399653       -6.2438014915        8.3081309100  CLST         285          1.0000000000
       854       285  TIP3  H1          -10.7627927682       -6.6209642940        8.1809869124  CLST         285          1.0000000000
       855       285  TIP3  H2          -11.9664578598       -6.3688403088        7.3670851666  CLST         285          1.0000000000
       856       286  TIP3  OH2          -2.6749725378       -9.8066628373      -10.6549471517  CLST         286          1.0000000000
       857       286  TIP3  H1           -2.5061114132       -9.5329545692      -11.5977218958  CLST         286          1.0000000000
       858       286  TIP3  H2           -3.1867174902      -10.4892309225      -11.1716868002  CLST         286          1.0000000000
       859       287  TIP3  OH2           2.7769116420       -0.8100710671       -8.0079557639  CLST         287          1.0000000000
       860       287  TIP3  H1            2.7652428829        0.1819658792       -8.0393547668  CLST         287          1.0000000000
       861       287  TIP3  H2            3.7504534262       -0.7374632842       -8.1474746562  CLST         287          1.0000000000
       862       288  TIP3  OH2          13.7456303744      -14.4528745893       -8.3988671966  CLST         288          1.0000000000
       863       288  TIP3  H1           13.4075752922      -13.8315607961       -7.7124257601  CLST         288          1.0000000000
       864       288  TIP3  H2           14.4904185648      -14.5474040726       -7.8887103820  CLST         288          1.0000000000
       865       289  TIP3  OH2          14.1485464491        3.7007724744      -10.1914592401  CLST         289          1.0000000000
       866       289  TIP3  H1           14.0095304832        3.7098081898       -9.2550297857  CLST         289          1.0000000000
       867       289  TIP3  H2           14.9576664862        3.2582220217      -10.1468923744  CLST         289          1.0000000000
       868       290  TIP3  OH2          11.7600004222        0.9717148914       11.9711346797  CLST         290          1.0000000000
       869       290  TIP3  H1           11.7939712920        1.2917304785       12.9461834496  CLST         290          1.0000000000
       870       290  TIP3  H2           11.8298005541        1.8889680843       11.7068010686  CLST         290          1.0000000000
       871       291  TIP3  OH2         -11.3025836869       -9.5502693259       -2.7219526701  CLST         291          1.0000000000
       872       291  TIP3  H1          -10.6826531705      -10.0943279984       -2.2381425136  CLST         291          1.0000000000
       873       291  TIP3  H2          -11.5835261571       -9.2038987298       -1.8874192213  CLST         291          1.0000000000
       874       292  TIP3  OH2           9.1292709454       -1.9089041019      -11.6324708759  CLST         292          1.0000000000
       875       292  TIP3  H1            8.3919812391       -2.5090968422      -11.6546012489  CLST         292          1.0000000000
       876       292  TIP3  H2            9.4772767824       -2.2246730362      -10.8239064438  CLST         292          1.0000000000
       877       293  TIP3  OH2           2.3622871533        2.7648099969      -13.5728084888  CLST         293          1.0000000000
       878       293  TIP3  H1            1.9028210087        3.5710091296      -13.7941631506  CLST         293          1.0000000000
       879       293  TIP3  H2            3.2278951081        3.1885485433      -13.6354843405  CLST         293          1.0000000000
       880       294  TIP3  OH2           1.8122452410        7.8891895498        0.8225413245  CLST         294          1.0000000000
       881       294  TIP3  H1            1.5100788937        7.1183173893        1.6738403814  CLST         294          1.0000000000
       882       294  TIP3  H2            2.1697226736        7.9599790144        1.8085747927  CLST         294          1.0000000000
       883       295  TIP3  OH2           3.8532423508       12.9217137361       -4.3295841380  CLST         295          1.0000000000
       884       295  TIP3  H1            3.3540085279       13.4895029660       -3.7158704426  CLST         295          1.0000000000
       885       295  TIP3  H2            3.7657756983       13.6514466712       -5.0150610027  CLST         295          1.0000000000
       886       296  TIP3  OH2           2.6510559118        5.7092322234      -11.2638826197  CLST         296          1.0000000000
       887       296  TIP3  H1            2.1707064145        5.7860072510      -12.1030947357  CLST         296          1.0000000000
       888       296  TIP3  H2            1.6762431781        5.2426708204      -11.1701006080  CLST         296          1.0000000000
       889       297  TIP3  OH2          13.5085424139        0.1591375704        8.9687720345  CLST         297          1.0000000000
       890       297  TIP3  H1           13.8697955892        1.0368529352        8.9067295193  CLST         297          1.0000000000
       891       297  TIP3  H2           14.3964487324       -0.1710346003        8.8711129191  CLST         297          1.0000000000
       892       298  TIP3  OH2          12.1801394428       -5.2312462669      -12.6060750488  CLST         298          1.0000000000
       893       298  TIP3  H1           11.5451962904       -5.7845378996      -12.9760912157  CLST         298          1.0000000000
       894       298  TIP3  H2           12.8884320730       -5.8309540846      -12.6378442962  CLST         298          1.0000000000
       895       299  TIP3  OH2           3.4275169978       -5.7740541411       -7.5212108648  CLST         299          1.0000000000
       896       299  TIP3  H1            2.8729737635       -4.9263833484       -7.4072545701  CLST         299          1.0000000000
       897       299  TIP3  H2            3.4246784783       -5.9603637559       -6.6003463133  CLST         299          1.0000000000
       898       300  TIP3  OH2          10.2688217798       -6.8000774266      -13.8619707823  CLST         300          1.0000000000
       899       300  TIP3  H1           10.0018569922       -6.2040399994      -14.5386951501  CLST         300          1.0000000000
       900       300  TIP3  H2            9.4530066762       -6.6012753738      -13.3436166442  CLST         300          1.0000000000
       901       301  TIP3  OH2          11.2851997046       -6.6038108379        0.3989154830  CLST         301          1.0000000000
       902       301  TIP3  H1           11.3304370352       -5.8784552830       -0.2195902022  CLST         301          1.0000000000
       903       301  TIP3  H2           10.9276294247       -7.1898053135       -0.2662232062  CLST         301          1.0000000000
       904       302  TIP3  OH2          11.7207459972       -7.3271707829       12.1153794467  CLST         302          1.0000000000
       905       302  TIP3  H1           12.0916903029       -6.5720204130       11.6472962181  CLST         302          1.0000000000
       906       302  TIP3  H2           11.8351377710       -8.0227357154       11.4315637945  CLST         302          1.0000000000
       907       303  TIP3  OH2          -8.8941832920       11.7014728499        6.8653473202  CLST         303          1.0000000000
       908       303  TIP3  H1           -9.2523489570       12.0290019034        6.0686442639  CLST         303          1.0000000000
       909       303  TIP3  H2           -8.2097344346       12.3592713060        6.9580084167  CLST         303          1.0000000000
       910       304  TIP3  OH2          -1.8867889101        8.1691925306       -0.7200420149  CLST         304          1.0000000000
       911       304  TIP3  H1           -2.4802969986        7.7572271645       -0.1002570421  CLST         304          1.0000000000
       912       304  TIP3  H2           -2.4806026326        8.8837780358       -0.9007157843  CLST         304          1.0000000000
       913       305  TIP3  OH2          -2.4521889677       -6.1865035984      -10.3833476252  CLST         305          1.0000000000
       914       305  TIP3  H1           -1.7882259273       -5.2822694036      -10.7331579455  CLST         305          1.0000000000
       915       305  TIP3  H2           -1.6660189958       -6.3730996503      -10.7702742225  CLST         305          1.0000000000
       916       306  TIP3  OH2          -8.5655883372      -14.5388059347       -6.9796276173  CLST         306          1.0000000000
       917       306  TIP3  H1           -7.6646381065      -14.7750164637       -7.0693489378  CLST         306          1.0000000000
       918       306  TIP3  H2           -8.3544189941      -13.8972468919       -6.2771036855  CLST         306          1.0000000000
       919       307  TIP3  OH2           0.7851180703       10.1617712251      -14.4824480354  CLST         307          1.0000000000
       920       307  TIP3  H1            1.1057063954       10.7224510626      -13.7946041428  CLST         307          1.0000000000
       921       307  TIP3  H2            1.5064514827        9.5501956910      -14.2349713637  CLST         307          1.0000000000
       922       308  TIP3  OH2          12.4973200687       -3.4394281915       13.2952595922  CLST         308          1.0000000000
       923       308  TIP3  H1           12.7435453142       -3.2003446535       12.4264177413  CLST         308          1.0000000000
       924       308  TIP3  H2           13.2400664885       -4.0339196935       13.4010062379  CLST         308          1.0000000000
       925       309  TIP3  OH2          12.8207941004       12.5550504935       14.8643386074  CLST         309          1.0000000000
       926       309  TIP3  H1           12.2586683042       12.0614565834       14.2318678679  CLST         309          1.0000000000
       927       309  TIP3  H2           13.0179769712       13.0113002211       14.0283442590  CLST         309          1.0000000000
       928       310  TIP3  OH2           4.4403523409       14.6183053957       -6.4129460748  CLST         310          1.0000000000
       929       310  TIP3  H1            4.5704008010       14.7783352962       -7.3914990283  CLST         310          1.0000000000
       930       310  TIP3  H2            3.4471320353       14.3773128445       -6.8997646066  CLST         310          1.0000000000
       931       311  TIP3  OH2          -5.7704084620        5.9854815073       -5.2648393552  CLST         311          1.0000000000
       932       311  TIP3  H1           -6.5825292635        5.5341666604       -5.0233386098  CLST         311          1.0000000000
       933       311  TIP3  H2           -6.0714820089        5.8737476694       -6.1868457840  CLST         311          1.0000000000
       934       312  TIP3  OH2           4.9874280126       -8.7711986802        7.9510011641  CLST         312          1.0000000000
       935       312  TIP3  H1            4.9233308040       -7.8376778168        8.3297782459  CLST         312          1.0000000000
       936       312  TIP3  H2            5.9527718680       -8.6377974811        7.7678461137  CLST         312          1.0000000000
       937       313  TIP3  OH2          -2.3501568071        7.9025312377       11.0335002402  CLST         313          1.0000000000
       938       313  TIP3  H1           -2.9186182398        8.6214660264       10.7761650957  CLST         313          1.0000000000
       939       313  TIP3  H2           -3.2539209882        7.4742389205       11.2163245116  CLST         313          1.0000000000
       940       314  TIP3  OH2           9.5747728876       -2.3970340652       -1.9192025411  CLST         314          1.0000000000
       941       314  TIP3  H1            9.3763273462       -3.2717520400       -1.7010699982  CLST         314          1.0000000000
       942       314  TIP3  H2            8.9009141235       -2.0674200823       -1.3348715747  CLST         314          1.0000000000
       943       315  TIP3  OH2           4.5527220885       10.1116494726       -2.6780358646  CLST         315          1.0000000000
       944       315  TIP3  H1            3.8856297436        9.4592411673       -2.5243169334  CLST         315          1.0000000000
       945       315  TIP3  H2            4.1586314625       10.8380446242       -2.0979723975  CLST         315          1.0000000000
       946       316  TIP3  OH2          13.8569070146       -6.5450422332       -5.9208664131  CLST         316          1.0000000000
       947       316  TIP3  H1           12.9815031037       -6.3209447236       -5.6479982912  CLST         316          1.0000000000
       948       316  TIP3  H2           13.9433731817       -5.7617353889       -6.4790038531  CLST         316          1.0000000000
       949       317  TIP3  OH2          -3.0454367829       -9.8580882420       -2.5478754826  CLST         317          1.0000000000
       950       317  TIP3  H1           -3.4862831175      -10.0820768639       -3.4084892655  CLST         317          1.0000000000
       951       317  TIP3  H2           -2.2793988744       -9.6605040083       -3.1856930453  CLST         317          1.0000000000
       952       318  TIP3  OH2          -1.2235891354        9.7649946998       -4.7379269905  CLST         318          1.0000000000
       953       318  TIP3  H1           -1.9619835919        9.4086558120       -5.2819190686  CLST         318          1.0000000000
       954       318  TIP3  H2           -1.4173971979       10.6467299852       -4.8613569946  CLST         318          1.0000000000
       955       319  TIP3  OH2           6.1619007015       -7.9780233056       -2.1068759847  CLST         319          1.0000000000
       956       319  TIP3  H1            6.7855064787       -8.4022228374       -2.6644851531  CLST         319          1.0000000000
       957       319  TIP3  H2            6.3011628198       -8.5744132201       -1.3945481722  CLST         319          1.0000000000
       958       320  TIP3  OH2           5.7846289077       12.8080829345      -12.3547665674  CLST         320          1.0000000000
       959       320  TIP3  H1            5.9479430745       12.5302392659      -13.2125775517  CLST         320          1.0000000000
       960       320  TIP3  H2            6.5897529142       12.2433799785      -12.0361188768  CLST         320          1.0000000000
       961       321  TIP3  OH2           1.3591708022      -11.3781115512        9.2593129101  CLST         321          1.0000000000
       962       321  TIP3  H1            1.4497218535      -12.0850711719        9.9457385874  CLST         321          1.0000000000
       963       321  TIP3  H2            1.6665760010      -10.7916780443        9.9706775591  CLST         321          1.0000000000
       964       322  TIP3  OH2           0.8636313937        5.6889424217        9.8689937324  CLST         322          1.0000000000
       965       322  TIP3  H1            0.5852742051        6.3941037866        9.3444114318  CLST         322          1.0000000000
       966       322  TIP3  H2            0.0870401328        5.6578385477       10.3551201007  CLST         322          1.0000000000
       967       323  TIP3  OH2           8.0323749417        3.2817831722       12.8539822794  CLST         323          1.0000000000
       968       323  TIP3  H1            7.0958794271        3.2142084960       12.9738766313  CLST         323          1.0000000000
       969       323  TIP3  H2            8.1250421403        3.1283681739       11.8986322341  CLST         323          1.0000000000
       970       324  TIP3  OH2           6.4799328304        3.1420682243       -1.7643355370  CLST         324          1.0000000000
       971       324  TIP3  H1            6.3126770027        4.0577407738       -1.7205370585  CLST         324          1.0000000000
       972       324  TIP3  H2            6.5117454465        3.0605602929       -2.6854769103  CLST         324          1.0000000000
       973       325  TIP3  OH2         -12.6652280292       -8.4997298850       11.9245526934  CLST         325          1.0000000000
       974       325  TIP3  H1          -12.8452731019       -7.7762189502       11.3960769257  CLST         325          1.0000000000
       975       325  TIP3  H2          -11.8115827248       -8.1182362037       12.1735474311  CLST         325          1.0000000000
       976       326  TIP3  OH2         -12.2640182537        9.1921858821       -5.1445734099  CLST         326          1.0000000000
       977       326  TIP3  H1          -12.3871593746       10.0971424768       -5.4248256033  CLST         326          1.0000000000
       978       326  TIP3  H2          -11.5510085815        9.0897649165       -5.7687925055  CLST         326          1.0000000000
       979       327  TIP3  OH2          12.5121969352       -5.7312524007       10.0263784645  CLST         327          1.0000000000
       980       327  TIP3  H1           12.2628914471       -6.1052917549        9.1915029204  CLST         327          1.0000000000
       981       327  TIP3  H2           13.2321394283       -5.2471840682        9.6327349039  CLST         327          1.0000000000
       982       328  TIP3  OH2         -12.3398622117       -8.0948461788      -12.6813762259  CLST         328          1.0000000000
       983       328  TIP3  H1          -11.4957523457       -8.0278998933      -12.2623946035  CLST         328          1.0000000000
       984       328  TIP3  H2          -12.1924596558       -9.0193704116      -12.8364059092  CLST         328          1.0000000000
       985       329  TIP3  OH2           6.7834291888       -4.4839089917       -1.5957796874  CLST         329          1.0000000000
       986       329  TIP3  H1            6.0179067130       -4.0950169208       -1.1454704864  CLST         329          1.0000000000
       987       329  TIP3  H2            5.6558677790       -4.3601132905       -2.1045430779  CLST         329          1.0000000000
       988       330  TIP3  OH2          13.0085583770        5.8886997470      -14.4071633035  CLST         330          1.0000000000
       989       330  TIP3  H1           13.7381919748        5.7395019694      -14.9383270335  CLST         330          1.0000000000
       990       330  TIP3  H2           13.6001970832        5.6398517576      -13.6137236171  CLST         330          1.0000000000
       991       331  TIP3  OH2          -4.5154959383       -0.1392983293        6.0671046441  CLST         331          1.0000000000
       992       331  TIP3  H1           -4.2988362987        0.5758394103        5.4572945206  CLST         331          1.0000000000
       993       331  TIP3  H2           -5.4193468926        0.1267010324        6.2994960631  CLST         331          1.0000000000
       994       332  TIP3  OH2          -8.8083229861        9.1200001091       -2.0820799841  CLST         332          1.0000000000
       995       332  TIP3  H1           -9.5741110973        9.7254681708       -1.9748792590  CLST         332          1.0000000000
       996       332  TIP3  H2           -8.5382076217        9.2012661599       -1.1621460647  CLST         332          1.0000000000
       997       333  TIP3  OH2          -6.9698672185       -8.7763594842       -6.8167778143  CLST         333          1.0000000000
       998       333  TIP3  H1           -7.6394018570       -9.1636106240       -7.3716477597  CLST         333          1.0000000000
       999       333  TIP3  H2           -7.4006811806       -7.8918206228       -6.8967184553  CLST         333          1.0000000000
      1000       334  TIP3  OH2         -10.6906883259        8.2036602108       -9.3990118793  CLST         334          1.0000000000
      1001       334  TIP3  H1          -10.4737968306        9.1310200881       -9.5157045733  CLST         334          1.0000000000
      1002       334  TIP3  H2          -10.0945411253        8.2179657855       -8.6799795359  CLST         334          1.0000000000
      1003       335  TIP3  OH2           1.4964948387        0.0044099996       -1.2580680443  CLST         335          1.0000000000
      1004       335  TIP3  H1            0.9743818244       -0.6792197077       -0.7850418413  CLST         335          1.0000000000
      1005       335  TIP3  H2            0.8302518396        0.0480085726       -1.9454001949  CLST         335          1.0000000000
      1006       336  TIP3  OH2          11.7876623716        5.5723126183        1.5895565073  CLST         336          1.0000000000
      1007       336  TIP3  H1           10.9381276321        5.1504965497        1.4467497272  CLST         336          1.0000000000
      1008       336  TIP3  H2           11.3825502431        6.3790488243        1.3387677042  CLST         336          1.0000000000
      1009       337  TIP3  OH2           2.1038164493      -14.9245295539        5.2814282361  CLST         337          1.0000000000
      1010       337  TIP3  H1            1.9966874879      -14.1022108948        5.8120195859  CLST         337          1.0000000000
      1011       337  TIP3  H2            1.6545312195      -14.4011280337        4.5647722554  CLST         337          1.0000000000
      1012       338  TIP3  OH2          -4.4593874954        2.6532176299      -11.6198280308  CLST         338          1.0000000000
      1013       338  TIP3  H1           -5.3768349119        2.6127396126      -12.0097222988  CLST         338          1.0000000000
      1014       338  TIP3  H2           -4.3569801248        1.9086594547      -12.1797142886  CLST         338          1.0000000000
      1015       339  TIP3  OH2           5.1125513525        2.2208262888       -7.9340130337  CLST         339          1.0000000000
      1016       339  TIP3  H1            4.1378672497        2.2607431926       -7.9687897353  CLST         339          1.0000000000
      1017       339  TIP3  H2            5.1918999271        2.9829992745       -8.4672405442  CLST         339          1.0000000000
      1018       340  TIP3  OH2         -10.8276569087       12.0857373290       -8.6938861714  CLST         340          1.0000000000
      1019       340  TIP3  H1          -11.7582785985       12.0263647357       -8.8900226140  CLST         340          1.0000000000
      1020       340  TIP3  H2          -10.8421212850       12.7710536513       -7.9811450718  CLST         340          1.0000000000
      1021       341  TIP3  OH2          -1.8322680500       14.1309194018       -0.7109444296  CLST         341          1.0000000000
      1022       341  TIP3  H1           -1.8162601548       13.3415687888       -1.2727293840  CLST         341          1.0000000000
      1023       341  TIP3  H2           -2.4697381846       14.5177810234       -1.3156715051  CLST         341          1.0000000000
      1024       342  TIP3  OH2         -11.6758504202        3.5028568130        9.6547604118  CLST         342          1.0000000000
      1025       342  TIP3  H1          -12.1943237443        2.9344186078       10.2148362264  CLST         342          1.0000000000
      1026       342  TIP3  H2          -11.2278453080        3.8535925051       10.3568506992  CLST         342          1.0000000000
      1027       343  TIP3  OH2          -0.6888729310       -1.4574010028      -14.1414380517  CLST         343          1.0000000000
      1028       343  TIP3  H1           -1.1929916147       -0.7087013211      -13.9402730026  CLST         343          1.0000000000
      1029       343  TIP3  H2           -0.6641138896       -1.3410410189      -15.0616035814  CLST         343          1.0000000000
      1030       344  TIP3  OH2           8.9738755497        4.1011428571        4.1452434438  CLST         344          1.0000000000
      1031       344  TIP3  H1            8.6590465030        4.9742586749        4.3057226796  CLST         344          1.0000000000
      1032       344  TIP3  H2            8.3770837590        3.7378288763        4.7811641577  CLST         344          1.0000000000
      1033       345  TIP3  OH2           0.1589286048        9.8640800633       -0.3199086386  CLST         345          1.0000000000
      1034       345  TIP3  H1            0.8824287530        9.2097987043       -0.1452682409  CLST         345          1.0000000000
      1035       345  TIP3  H2           -0.4024318815        9.0783607525       -0.2392399880  CLST         345          1.0000000000
      1036       346  TIP3  OH2          -4.7936340964      -14.6517106879        6.1931048369  CLST         346          1.0000000000
      1037       346  TIP3  H1           -5.1057611859      -13.7957938200        5.9767915178  CLST         346          1.0000000000
      1038       346  TIP3  H2           -4.3253889293      -13.7924100132        6.7273926298  CLST         346          1.0000000000
      1039       347  TIP3  OH2         -13.8264037617      -11.7008717617       -1.9816197923  CLST         347          1.0000000000
      1040       347  TIP3  H1          -14.0944544310      -11.1417190207       -2.6407471223  CLST         347          1.0000000000
      1041       347  TIP3  H2          -13.5469047856      -11.0269441555       -1.3670186253  CLST         347          1.0000000000
      1042       348  TIP3  OH2           4.2051007060        7.6098399471       -7.5290556513  CLST         348          1.0000000000
      1043       348  TIP3  H1            4.9648152941        7.2960370697       -7.1318229330  CLST         348          1.0000000000
      1044       348  TIP3  H2            4.3881909016        7.7769590989       -6.4074851601  CLST         348          1.0000000000
      1045       349  TIP3  OH2           8.1305726236       10.0314812189        2.6722818611  CLST         349          1.0000000000
      1046       349  TIP3  H1            8.5587584793       10.3848271570        1.9158763361  CLST         349          1.0000000000
      1047       349  TIP3  H2            7.6140532040        9.4814867162        2.1097749205  CLST         349          1.0000000000
      1048       350  TIP3  OH2          -8.7258609690        1.0031223528      -14.6205515701  CLST         350          1.0000000000
      1049       350  TIP3  H1           -8.9618540459        0.2851711192      -14.0579662359  CLST         350          1.0000000000
      1050       350  TIP3  H2           -9.6985361437        1.2336327149      -14.6479506798  CLST         350          1.0000000000
      1051       351  TIP3  OH2          10.3337185714        3.1951105718        6.1819109134  CLST         351          1.0000000000
      1052       351  TIP3  H1           10.8005512606        3.9505145727        5.9891854070  CLST         351          1.0000000000
      1053       351  TIP3  H2           10.2198900892        3.0788871795        5.2279705623  CLST         351          1.0000000000
      1054       352  TIP3  OH2           5.4726644786       -0.4384625306       -8.2689078901  CLST         352          1.0000000000
      1055       352  TIP3  H1            6.0046551536       -0.8016136085       -7.5083754033  CLST         352          1.0000000000
      1056       352  TIP3  H2            5.6823545922        0.4607019353       -7.9270872573  CLST         352          1.0000000000
      1057       353  TIP3  OH2          -1.5052543512        9.5360190348      -12.7635195328  CLST         353          1.0000000000
      1058       353  TIP3  H1           -0.8203224953        9.3468448738      -13.4087249333  CLST         353          1.0000000000
      1059       353  TIP3  H2           -1.8565331377        8.6678650095      -12.6835175037  CLST         353          1.0000000000
      1060       354  TIP3  OH2         -11.7582493139      -10.9927400858      -14.1703985990  CLST         354          1.0000000000
      1061       354  TIP3  H1          -12.2544135005      -11.1240755772      -14.9484821149  CLST         354          1.0000000000
      1062       354  TIP3  H2          -10.9803046396      -11.2334075008      -14.7067506500  CLST         354          1.0000000000
      1063       355  TIP3  OH2           1.6953788599      -13.6558369417       -9.8091466254  CLST         355          1.0000000000
      1064       355  TIP3  H1            1.7584963760      -13.1972497555       -9.0002302884  CLST         355          1.0000000000
      1065       355  TIP3  H2            1.2373883962      -12.8948860588      -10.2002949134  CLST         355          1.0000000000
      1066       356  TIP3  OH2         -12.9642446257       -5.0670622284       -3.1146343595  CLST         356          1.0000000000
      1067       356  TIP3  H1          -13.0312645612       -5.9679290132       -3.2874627190  CLST         356          1.0000000000
      1068       356  TIP3  H2          -13.4135349245       -4.7712637335       -3.9219270361  CLST         356          1.0000000000
      1069       357  TIP3  OH2          -6.6931718237       -9.4680959852        5.0798964499  CLST         357          1.0000000000
      1070       357  TIP3  H1           -5.9454814029       -9.8159626743        4.5423644830  CLST         357          1.0000000000
      1071       357  TIP3  H2           -6.2962230858       -8.6368685427        4.6951676046  CLST         357          1.0000000000
      1072       358  TIP3  OH2          -2.3547805671       -7.4952525999        4.1113933054  CLST         358          1.0000000000
      1073       358  TIP3  H1           -1.4736139723       -7.8500503640        4.1019330536  CLST         358          1.0000000000
      1074       358  TIP3  H2           -2.3242508409       -7.1675560064        4.9891705380  CLST         358          1.0000000000
      1075       359  TIP3  OH2          10.3266916493        9.9484391213       -1.8244897691  CLST         359          1.0000000000
      1076       359  TIP3  H1           10.1819168989       10.2133759601       -0.8653253449  CLST         359          1.0000000000
      1077       359  TIP3  H2           10.5125463405       10.8838837047       -1.9933570502  CLST         359          1.0000000000
      1078       360  TIP3  OH2           7.5421946998       12.8990455914       12.9058622157  CLST         360          1.0000000000
      1079       360  TIP3  H1            8.3124537747       13.2441416337       12.5332402514  CLST         360          1.0000000000
      1080       360  TIP3  H2            6.9877653540       13.0798200975       12.1258461452  CLST         360          1.0000000000
      1081       361  TIP3  OH2          -6.0314348550      -10.7947499413       10.5220601008  CLST         361          1.0000000000
      1082       361  TIP3  H1           -6.0953995279      -11.4895882155        9.5043039033  CLST         361          1.0000000000
      1083       361  TIP3  H2           -6.1366717419      -11.7999235523       10.4295083273  CLST         361          1.0000000000
      1084       362  TIP3  OH2           4.4772669285       -3.5066115428       10.3730371153  CLST         362          1.0000000000
      1085       362  TIP3  H1            4.7210871244       -3.3399544648        9.4753350841  CLST         362          1.0000000000
      1086       362  TIP3  H2            5.3991151949       -3.6570979656       10.6617056048  CLST         362          1.0000000000
      1087       363  TIP3  OH2           4.9116826249       -4.6455029342       14.1079147266  CLST         363          1.0000000000
      1088       363  TIP3  H1            4.7756271250       -4.5623457924       15.0116935667  CLST         363          1.0000000000
      1089       363  TIP3  H2            5.7492766655       -4.2449584068       14.0463448980  CLST         363          1.0000000000
      1090       364  TIP3  OH2          -1.1046787445        4.9018271981       13.4559001494  CLST         364          1.0000000000
      1091       364  TIP3  H1           -0.0991151103        4.7484689878       13.5516941342  CLST         364          1.0000000000
      1092       364  TIP3  H2           -0.8122778050        5.8407094001       13.6663227595  CLST         364          1.0000000000
      1093       365  TIP3  OH2          -7.6628620018        4.9493776706      -11.6838729050  CLST         365          1.0000000000
      1094       365  TIP3  H1           -8.1277618986        5.0976851387      -10.8932956241  CLST         365          1.0000000000
      1095       365  TIP3  H2           -6.8423564764        5.3763466796      -11.4134774916  CLST         365          1.0000000000
      1096       366  TIP3  OH2         -10.1638254352       -2.8071692064        0.7466532718  CLST         366          1.0000000000
      1097       366  TIP3  H1          -11.1074113509       -2.8432937847        0.9778008444  CLST         366          1.0000000000
      1098       366  TIP3  H2          -10.4562253052       -2.7469005531       -0.2210102789  CLST         366          1.0000000000
      1099       367  TIP3  OH2          13.7335789254       10.4799404583       11.8584130036  CLST         367          1.0000000000
      1100       367  TIP3  H1           13.3863786524       11.2730603727       11.4116437588  CLST         367          1.0000000000
      1101       367  TIP3  H2           12.9291936741       10.5734407232       12.3485104181  CLST         367          1.0000000000
      1102       368  TIP3  OH2          -9.8253886707       -1.1806448005       13.0523077452  CLST         368          1.0000000000
      1103       368  TIP3  H1          -10.6682459915       -1.3857491534       12.6328509028  CLST         368          1.0000000000
      1104       368  TIP3  H2           -9.6855093455       -2.1725325422       13.2046810499  CLST         368          1.0000000000
      1105       369  TIP3  OH2           7.6454699437        9.5337874106       -2.5665950691  CLST         369          1.0000000000
      1106       369  TIP3  H1            8.5934015598        9.5617829003       -2.4053029360  CLST         369          1.0000000000
      1107       369  TIP3  H2            7.5766291188        8.6049162466       -2.2794528459  CLST         369          1.0000000000
      1108       370  TIP3  OH2          -6.8533736917      -12.9838496611       -1.0494719264  CLST         370          1.0000000000
      1109       370  TIP3  H1           -5.9906755671      -13.2949197320       -0.8924215672  CLST         370          1.0000000000
      1110       370  TIP3  H2           -7.1546858630      -13.3465959519       -0.1741948518  CLST         370          1.0000000000
      1111       371  TIP3  OH2           8.7104690400       12.2744160954        9.8400813001  CLST         371          1.0000000000
      1112       371  TIP3  H1            8.8045921750       12.1088541268        8.8972951024  CLST         371          1.0000000000
      1113       371  TIP3  H2            7.8047900127       12.2920014660        9.9373101082  CLST         371          1.0000000000
      1114       372  TIP3  OH2          -1.2668047906       11.6356644205       -1.9988540251  CLST         372          1.0000000000
      1115       372  TIP3  H1           -2.0536421110       11.0727070312       -2.1929188266  CLST         372          1.0000000000
      1116       372  TIP3  H2           -0.8783789713       11.0224370789       -1.4159587495  CLST         372          1.0000000000
      1117       373  TIP3  OH2           8.7789827266       -5.5231613354        8.5133204821  CLST         373          1.0000000000
      1118       373  TIP3  H1            9.0170852007       -6.4868378386        8.6046832493  CLST         373          1.0000000000
      1119       373  TIP3  H2            9.7292890811       -5.3615884520        8.3367915578  CLST         373          1.0000000000
      1120       374  TIP3  OH2          11.2818409056       -9.7421638141       -4.5661526500  CLST         374          1.0000000000
      1121       374  TIP3  H1           10.9656697683       -9.8565501684       -3.6409746240  CLST         374          1.0000000000
      1122       374  TIP3  H2           10.7387704957      -10.5187867163       -4.7458016237  CLST         374          1.0000000000
      1123       375  TIP3  OH2           1.5432712012       13.4274713782       -2.8241674252  CLST         375          1.0000000000
      1124       375  TIP3  H1            1.5623449974       14.0132599507       -2.0452963440  CLST         375          1.0000000000
      1125       375  TIP3  H2            0.7605847451       13.8610641537       -3.1220137201  CLST         375          1.0000000000
      1126       376  TIP3  OH2          10.8291963820        4.4214507088       -8.6920380425  CLST         376          1.0000000000
      1127       376  TIP3  H1            9.9433034705        4.7680357679       -8.4206660046  CLST         376          1.0000000000
      1128       376  TIP3  H2           10.9163540899        5.0194540928       -9.4872588699  CLST         376          1.0000000000
      1129       377  TIP3  OH2           7.9223388506       11.0951133882      -11.8574810283  CLST         377          1.0000000000
      1130       377  TIP3  H1            8.2396134853       10.4006573735      -12.4023329719  CLST         377          1.0000000000
      1131       377  TIP3  H2            8.7533361985       10.9981297728      -11.3162017232  CLST         377          1.0000000000
      1132       378  TIP3  OH2           6.5537242271        9.3977788836        7.5328498434  CLST         378          1.0000000000
      1133       378  TIP3  H1            6.8898019816        8.5784813242        7.9421831633  CLST         378          1.0000000000
      1134       378  TIP3  H2            5.7082913186        9.4464193271        8.0237952935  CLST         378          1.0000000000
      1135       379  TIP3  OH2          -6.7612878530      -10.6262103912       -2.4020766754  CLST         379          1.0000000000
      1136       379  TIP3  H1           -7.0604300863      -10.7709504211       -3.2600011504  CLST         379          1.0000000000
      1137       379  TIP3  H2           -6.6764055636      -11.5312145501       -2.1407955892  CLST         379          1.0000000000
      1138       380  TIP3  OH2           7.4558922063       11.6090333664        4.8424484818  CLST         380          1.0000000000
      1139       380  TIP3  H1            6.5991550928       11.8639664666        4.3849725733  CLST         380          1.0000000000
      1140       380  TIP3  H2            7.3970448577       10.9282864051        4.0966124616  CLST         380          1.0000000000
      1141       381  TIP3  OH2          -7.5383632773       -6.8046039617      -10.0985480776  CLST         381          1.0000000000
      1142       381  TIP3  H1           -8.1531072073       -6.6366111327      -10.7770489638  CLST         381          1.0000000000
      1143       381  TIP3  H2           -6.7095540726       -6.6633184420      -10.5304452383  CLST         381          1.0000000000
      1144       382  TIP3  OH2          -3.6155623703        2.4162402687       -2.0510921200  CLST         382          1.0000000000
      1145       382  TIP3  H1           -4.0020320812        2.6418619431       -2.9269426568  CLST         382          1.0000000000
      1146       382  TIP3  H2           -3.9763728743        1.5376689105       -2.3565703011  CLST         382          1.0000000000
      1147       383  TIP3  OH2          -7.5586972425       -9.4168417683        8.6817863335  CLST         383          1.0000000000
      1148       383  TIP3  H1           -6.6357057818       -9.3796725338        9.0269816694  CLST         383          1.0000000000
      1149       383  TIP3  H2           -7.0830512385       -9.8052444111        7.9443918589  CLST         383          1.0000000000
      1150       384  TIP3  OH2         -11.8246510656       -5.4143449973       13.3620668222  CLST         384          1.0000000000
      1151       384  TIP3  H1          -11.7624592473       -6.2246631293       13.8068837788  CLST         384          1.0000000000
      1152       384  TIP3  H2          -12.2644739114       -5.8133458424       12.5779810189  CLST         384          1.0000000000
      1153       385  TIP3  OH2           7.8523969242        0.5407360950        9.0152682589  CLST         385          1.0000000000
      1154       385  TIP3  H1            7.9212820931        1.4444390846        9.2321596606  CLST         385          1.0000000000
      1155       385  TIP3  H2            8.5208840499        0.5405572359        9.9489685924  CLST         385          1.0000000000
      1156       386  TIP3  OH2         -12.5282603772       -8.7347254987        8.3587797765  CLST         386          1.0000000000
      1157       386  TIP3  H1          -11.9928518389       -7.9626710487        8.3877221353  CLST         386          1.0000000000
      1158       386  TIP3  H2          -12.4271319059       -8.9745907203        9.2730754633  CLST         386          1.0000000000
      1159       387  TIP3  OH2          -1.1625987914      -12.7211606962       -1.0696886394  CLST         387          1.0000000000
      1160       387  TIP3  H1           -1.4691724806      -13.0898774103       -0.1936433453  CLST         387          1.0000000000
      1161       387  TIP3  H2           -1.3164235149      -11.9012887102       -0.5665161701  CLST         387          1.0000000000
      1162       388  TIP3  OH2           3.3978846333        7.2447228986        7.1091573920  CLST         388          1.0000000000
      1163       388  TIP3  H1            2.8999831604        6.9305319326        6.3430364587  CLST         388          1.0000000000
      1164       388  TIP3  H2            4.0557927322        7.5886385393        6.4579774026  CLST         388          1.0000000000
      1165       389  TIP3  OH2          -3.7821103966      -10.9667724298       -0.1745802450  CLST         389          1.0000000000
      1166       389  TIP3  H1           -4.6664251230      -10.5722241809       -0.1277377783  CLST         389          1.0000000000
      1167       389  TIP3  H2           -3.6287792007      -10.6093768540       -1.0676095107  CLST         389          1.0000000000
      1168       390  TIP3  OH2          -1.0535293201        4.9580088233        4.6418602132  CLST         390          1.0000000000
      1169       390  TIP3  H1           -0.4853128497        4.6172129678        5.3539743458  CLST         390          1.0000000000
      1170       390  TIP3  H2           -0.7784497866        4.0763289886        4.1494569040  CLST         390          1.0000000000
      1171       391  TIP3  OH2          -6.1030267438       -4.8690148725        1.5277275821  CLST         391          1.0000000000
      1172       391  TIP3  H1           -5.7238026404       -3.9975390289        1.5006748310  CLST         391          1.0000000000
      1173       391  TIP3  H2           -6.8916911813       -4.5339555670        1.8956276749  CLST         391          1.0000000000
      1174       392  TIP3  OH2           4.9491831436        9.2339538303       -5.3218371585  CLST         392          1.0000000000
      1175       392  TIP3  H1            5.7884293809        8.8864162848       -5.0320929357  CLST         392          1.0000000000
      1176       392  TIP3  H2            4.6189184942        9.5574667381       -4.4911393986  CLST         392          1.0000000000
      1177       393  TIP3  OH2          13.3015432837       11.0707885504       -7.9039783533  CLST         393          1.0000000000
      1178       393  TIP3  H1           13.3069781255       10.0929906069       -8.0871016246  CLST         393          1.0000000000
      1179       393  TIP3  H2           12.5918771667       10.9465991557       -7.1857789256  CLST         393          1.0000000000
      1180       394  TIP3  OH2           1.2255960387        6.8094666226        5.2931014327  CLST         394          1.0000000000
      1181       394  TIP3  H1            0.6533241651        6.9958764043        4.5318885997  CLST         394          1.0000000000
      1182       394  TIP3  H2            1.6215589281        6.1225050389        4.8113978300  CLST         394          1.0000000000
      1183       395  TIP3  OH2          -6.1024142093        7.2878026942        0.1288005992  CLST         395          1.0000000000
      1184       395  TIP3  H1           -5.7956289972        6.5133983239        0.6460814644  CLST         395          1.0000000000
      1185       395  TIP3  H2           -5.2345040705        7.6618682590        0.3432812934  CLST         395          1.0000000000
      1186       396  TIP3  OH2          -3.5107313070        9.5218537106       -2.4297053266  CLST         396          1.0000000000
      1187       396  TIP3  H1           -3.4358119113        8.6072952121       -2.6804232463  CLST         396          1.0000000000
      1188       396  TIP3  H2           -4.4459822708        9.4950231878       -2.7024575645  CLST         396          1.0000000000
      1189       397  TIP3  OH2           2.5845059908      -12.8087747965      -13.5405441345  CLST         397          1.0000000000
      1190       397  TIP3  H1            1.9896389164      -12.0670106220      -13.7958069753  CLST         397          1.0000000000
      1191       397  TIP3  H2            2.8745077863      -12.2703414195      -12.8160488575  CLST         397          1.0000000000
      1192       398  TIP3  OH2           8.7759131680       -4.4138394808        0.9091365924  CLST         398          1.0000000000
      1193       398  TIP3  H1            8.3421831618       -5.2688320885        0.4463444531  CLST         398          1.0000000000
      1194       398  TIP3  H2            8.2788061797       -4.3202795887        0.2635110287  CLST         398          1.0000000000
      1195       399  TIP3  OH2         -14.4367666225       -2.9913789206       13.4703223799  CLST         399          1.0000000000
      1196       399  TIP3  H1          -15.0933349557       -3.4503836086       13.9790517265  CLST         399          1.0000000000
      1197       399  TIP3  H2          -13.7069282533       -3.5213867017       13.7933001166  CLST         399          1.0000000000
      1198       400  TIP3  OH2         -13.2574550243        8.6626155167        4.3781162751  CLST         400          1.0000000000
      1199       400  TIP3  H1          -13.5541339965        9.2148486805        5.0691889719  CLST         400          1.0000000000
      1200       400  TIP3  H2          -13.0936035902        7.9828612042        4.9966274963  CLST         400          1.0000000000
      1201       401  TIP3  OH2           1.3188682470        5.4096650870      -13.7391035233  CLST         401          1.0000000000
      1202       401  TIP3  H1            1.1715159765        5.0869766181      -14.6215456803  CLST         401          1.0000000000
      1203       401  TIP3  H2            1.2253302898        6.3282033919      -13.8803319888  CLST         401          1.0000000000
      1204       402  TIP3  OH2          14.5621636018       -5.1406149714       14.1769765878  CLST         402          1.0000000000
      1205       402  TIP3  H1           14.1552363460       -6.0033858385       13.8931315952  CLST         402          1.0000000000
      1206       402  TIP3  H2           14.8767537134       -5.4628105010       15.0311972593  CLST         402          1.0000000000
      1207       403  TIP3  OH2         -13.2596141705       12.0870187600       -2.7729433397  CLST         403          1.0000000000
      1208       403  TIP3  H1          -14.1472145021       12.1333386567       -3.1130126223  CLST         403          1.0000000000
      1209       403  TIP3  H2          -12.7724374097       12.2292494643       -3.6507440167  CLST         403          1.0000000000
      1210       404  TIP3  OH2           5.4265860484       -3.2296612990        0.3012308904  CLST         404          1.0000000000
      1211       404  TIP3  H1            4.6240445626       -2.9137291096        0.7183492793  CLST         404          1.0000000000
      1212       404  TIP3  H2            5.6385345122       -3.7873895045        1.0151867478  CLST         404          1.0000000000
      1213       405  TIP3  OH2           2.4694715126        8.3969016412       -3.1067372932  CLST         405          1.0000000000
      1214       405  TIP3  H1            2.0078105069        9.2592314301       -3.2102253822  CLST         405          1.0000000000
      1215       405  TIP3  H2            1.6152033336        7.9660047979       -2.8136959305  CLST         405          1.0000000000
      1216       406  TIP3  OH2          -9.0793823006       -2.5377155734       -7.3859455257  CLST         406          1.0000000000
      1217       406  TIP3  H1           -8.6148748408       -1.7667216541       -7.1206339912  CLST         406          1.0000000000
      1218       406  TIP3  H2           -9.9413636316       -2.2699553786       -7.0132251922  CLST         406          1.0000000000
      1219       407  TIP3  OH2           5.3790558194        5.5514690501        4.8527191702  CLST         407          1.0000000000
      1220       407  TIP3  H1            6.1128134469        5.5936623260        5.4367991872  CLST         407          1.0000000000
      1221       407  TIP3  H2            5.9185066197        5.5947188938        4.1306384118  CLST         407          1.0000000000
      1222       408  TIP3  OH2         -14.1414648571       -4.4679046545       -5.5417291659  CLST         408          1.0000000000
      1223       408  TIP3  H1          -13.9772890600       -3.5035425220       -5.4560493191  CLST         408          1.0000000000
      1224       408  TIP3  H2          -14.1834287935       -4.5031134528       -6.5074014565  CLST         408          1.0000000000
      1225       409  TIP3  OH2          -2.0536073917      -12.6753574379        1.4755566197  CLST         409          1.0000000000
      1226       409  TIP3  H1           -2.5010902219      -13.1928508995        2.1573586873  CLST         409          1.0000000000
      1227       409  TIP3  H2           -1.6086900667      -12.1452121994        2.1810656160  CLST         409          1.0000000000
      1228       410  TIP3  OH2          12.8361589088       -2.0329676570       10.8414100404  CLST         410          1.0000000000
      1229       410  TIP3  H1           12.4024486401       -1.3560908548       10.3503787306  CLST         410          1.0000000000
      1230       410  TIP3  H2           13.4650248178       -2.2122823080       10.1985089683  CLST         410          1.0000000000
      1231       411  TIP3  OH2           8.5188009838      -13.4433383921       -2.5334971326  CLST         411          1.0000000000
      1232       411  TIP3  H1            8.4011083306      -13.8010509350       -1.6498548029  CLST         411          1.0000000000
      1233       411  TIP3  H2            7.9667474084      -14.0260649815       -3.0229796990  CLST         411          1.0000000000
      1234       412  TIP3  OH2          13.1964425566       -4.3970466610       -7.5950315394  CLST         412          1.0000000000
      1235       412  TIP3  H1           12.6271551050       -4.4283708326       -8.3354628070  CLST         412          1.0000000000
      1236       412  TIP3  H2           12.5309959733       -4.1026332246       -6.9859845058  CLST         412          1.0000000000
      1237       413  TIP3  OH2           7.4446847177        8.3701428032       -5.2770919189  CLST         413          1.0000000000
      1238       413  TIP3  H1            7.5669233451        8.0699813816       -4.3854408940  CLST         413          1.0000000000
      1239       413  TIP3  H2            8.4369031440        8.5339703025       -5.4205268822  CLST         413          1.0000000000
      1240       414  TIP3  OH2          -9.2511671189       -5.1595902161      -11.9732422828  CLST         414          1.0000000000
      1241       414  TIP3  H1           -8.4513685774       -4.4558722242      -12.2680467777  CLST         414          1.0000000000
      1242       414  TIP3  H2           -9.1831281442       -4.2250927417      -11.3592764302  CLST         414          1.0000000000
      1243       415  TIP3  OH2         -14.3300112894        0.8193807186        5.5670541279  CLST         415          1.0000000000
      1244       415  TIP3  H1          -14.6341629078        1.7233481738        5.9282056908  CLST         415          1.0000000000
      1245       415  TIP3  H2          -13.7616023583        0.8607510637        6.3647237909  CLST         415          1.0000000000
      1246       416  TIP3  OH2          11.4262365528       12.5183646636       -2.2288899247  CLST         416          1.0000000000
      1247       416  TIP3  H1           12.1082853423       12.7505726124       -2.8057494512  CLST         416          1.0000000000
      1248       416  TIP3  H2           10.6867293216       12.8483572408       -2.7166746994  CLST         416          1.0000000000
      1249       417  TIP3  OH2          10.6108168576      -12.6681929436       -5.0924228260  CLST         417          1.0000000000
      1250       417  TIP3  H1           10.0120308447      -13.3138272874       -4.7130353528  CLST         417          1.0000000000
      1251       417  TIP3  H2            9.9788689484      -12.6087300292       -5.7748529599  CLST         417          1.0000000000
      1252       418  TIP3  OH2          -1.9064021600        5.3002223517        1.1664672028  CLST         418          1.0000000000
      1253       418  TIP3  H1           -2.4106281971        5.3731319684        0.3887960021  CLST         418          1.0000000000
      1254       418  TIP3  H2           -2.6599668923        5.3814480815        1.6996111585  CLST         418          1.0000000000
      1255       419  TIP3  OH2          -8.2691057609        9.3618606269        8.1558121210  CLST         419          1.0000000000
      1256       419  TIP3  H1           -8.1836142250       10.1336671583        7.5452749025  CLST         419          1.0000000000
      1257       419  TIP3  H2           -8.7144909327       10.0406427388        8.6979468777  CLST         419          1.0000000000
      1258       420  TIP3  OH2           3.2418636701        8.9705087058      -14.1845154652  CLST         420          1.0000000000
      1259       420  TIP3  H1            3.8628245800        9.1254853435      -13.4768110118  CLST         420          1.0000000000
      1260       420  TIP3  H2            3.4924976666        8.0724391981      -14.5243384782  CLST         420          1.0000000000
      1261       421  TIP3  OH2          -3.9621292336        7.1118743747       -3.6364511695  CLST         421          1.0000000000
      1262       421  TIP3  H1           -4.5915753446        6.5240925876       -4.1023232529  CLST         421          1.0000000000
      1263       421  TIP3  H2           -3.8809926084        6.4165605272       -2.9361059035  CLST         421          1.0000000000
      1264       422  TIP3  OH2           3.1570480430      -10.4218692736       -2.4885770035  CLST         422          1.0000000000
      1265       422  TIP3  H1            2.5475302842      -11.1057339084       -2.1120929081  CLST         422          1.0000000000
      1266       422  TIP3  H2            3.4187153547      -10.3301607253       -1.5427093041  CLST         422          1.0000000000
      1267       423  TIP3  OH2          -5.2474488087        5.1806607928        1.7128830414  CLST         423          1.0000000000
      1268       423  TIP3  H1           -4.8747443318        4.4174012255        1.2981149154  CLST         423          1.0000000000
      1269       423  TIP3  H2           -4.6126872600        5.2169573104        2.3440837096  CLST         423          1.0000000000
      1270       424  TIP3  OH2          -9.6401665332        8.5295718335        4.7748555077  CLST         424          1.0000000000
      1271       424  TIP3  H1           -9.1781798919        9.0262308683        4.1825947330  CLST         424          1.0000000000
      1272       424  TIP3  H2           -9.8032244684        7.8564050730        4.1310012240  CLST         424          1.0000000000
      1273       425  TIP3  OH2          -9.8502501612        2.4186770995       -9.1145238560  CLST         425          1.0000000000
      1274       425  TIP3  H1          -10.2330580578        1.6077565152       -8.8935195200  CLST         425          1.0000000000
      1275       425  TIP3  H2          -10.2438053364        2.8897848843       -8.3988442651  CLST         425          1.0000000000
      1276       426  TIP3  OH2          -1.0175093079       -8.9848979193       -4.2264096480  CLST         426          1.0000000000
      1277       426  TIP3  H1           -0.0223017835       -9.0223587166       -4.2279486677  CLST         426          1.0000000000
      1278       426  TIP3  H2           -1.0919805574       -9.1434394242       -5.1192452516  CLST         426          1.0000000000
      1279       427  TIP3  OH2          -9.8179366995        2.0281127202        5.2451178204  CLST         427          1.0000000000
      1280       427  TIP3  H1           -9.7114454359        3.0353220904        5.1979371272  CLST         427          1.0000000000
      1281       427  TIP3  H2          -10.6633015100        2.1261361266        5.6813585628  CLST         427          1.0000000000
      1282       428  TIP3  OH2          -6.6129960504       13.7090362572        6.7973447965  CLST         428          1.0000000000
      1283       428  TIP3  H1           -6.1264435881       14.5094705292        6.5623638124  CLST         428          1.0000000000
      1284       428  TIP3  H2           -6.4608866952       13.1519698504        6.0193395438  CLST         428          1.0000000000
      1285       429  TIP3  OH2           0.1976670765      -11.7645771311      -10.8143224079  CLST         429          1.0000000000
      1286       429  TIP3  H1           -0.6864647593      -12.2294831374      -11.0441021496  CLST         429          1.0000000000
      1287       429  TIP3  H2           -0.1014613558      -11.3357019304      -10.0004589665  CLST         429          1.0000000000
      1288       430  TIP3  OH2           0.6166809686       10.0061998799       10.0316314158  CLST         430          1.0000000000
      1289       430  TIP3  H1            0.1631658107       10.7347936379       10.4935378172  CLST         430          1.0000000000
      1290       430  TIP3  H2            1.1719609520        9.8833885219       10.8100928656  CLST         430          1.0000000000
      1291       431  TIP3  OH2          -6.2495015904       -3.5295051920       -4.0884362435  CLST         431          1.0000000000
      1292       431  TIP3  H1           -5.9092887635       -3.4550580321       -5.0095486819  CLST         431          1.0000000000
      1293       431  TIP3  H2           -7.0458371174       -3.9148801445       -4.4520062754  CLST         431          1.0000000000
      1294       432  TIP3  OH2          -5.3356608040        3.6312384595       -3.6949377452  CLST         432          1.0000000000
      1295       432  TIP3  H1           -6.4250485713        3.3016959024       -3.7221262958  CLST         432          1.0000000000
      1296       432  TIP3  H2           -6.0272461782        4.3524598034       -3.2403085813  CLST         432          1.0000000000
      1297       433  TIP3  OH2          -8.7862050142        3.2006855724       10.2222647110  CLST         433          1.0000000000
      1298       433  TIP3  H1           -8.1900347802        3.9588743861       10.0210546393  CLST         433          1.0000000000
      1299       433  TIP3  H2           -9.1341301908        3.7358609226       10.9165901307  CLST         433          1.0000000000
      1300       434  TIP3  OH2           0.9847481467       -4.0892397140        9.6830868510  CLST         434          1.0000000000
      1301       434  TIP3  H1            0.1837954792       -3.9956400929       10.2791207863  CLST         434          1.0000000000
      1302       434  TIP3  H2            1.2047954128       -3.1218013393        9.7794426821  CLST         434          1.0000000000
      1303       435  TIP3  OH2           7.4987134366       -8.3054658032        6.4027179399  CLST         435          1.0000000000
      1304       435  TIP3  H1            7.8368416884       -8.6353277445        5.5548283431  CLST         435          1.0000000000
      1305       435  TIP3  H2            7.0913873953       -7.6235752108        5.9265869586  CLST         435          1.0000000000
      1306       436  TIP3  OH2          -6.7542890739       14.2300089154       -2.0831382992  CLST         436          1.0000000000
      1307       436  TIP3  H1           -6.6460195220       15.0730082956       -2.4841433609  CLST         436          1.0000000000
      1308       436  TIP3  H2           -7.0570972575       14.4518174129       -1.1839397286  CLST         436          1.0000000000
      1309       437  TIP3  OH2          -0.9130643704      -13.4747860822        5.3097795994  CLST         437          1.0000000000
      1310       437  TIP3  H1           -1.4262216169      -12.6208770220        5.4557955145  CLST         437          1.0000000000
      1311       437  TIP3  H2           -0.1868068483      -12.7894525904        5.2236143067  CLST         437          1.0000000000
      1312       438  TIP3  OH2         -12.1646269684       -1.0395849074       -3.1812526622  CLST         438          1.0000000000
      1313       438  TIP3  H1          -12.1456303868       -1.7383917231       -2.5092698888  CLST         438          1.0000000000
      1314       438  TIP3  H2          -12.7177989319       -0.4298492343       -2.6951437373  CLST         438          1.0000000000
      1315       439  TIP3  OH2          -3.9800996392       -3.7658713756        3.5143026367  CLST         439          1.0000000000
      1316       439  TIP3  H1           -4.9099304340       -3.6444339071        4.1608870406  CLST         439          1.0000000000
      1317       439  TIP3  H2           -4.7747787258       -4.3397874166        3.3807785811  CLST         439          1.0000000000
      1318       440  TIP3  OH2         -10.0914570604      -11.6418808515       12.3244947574  CLST         440          1.0000000000
      1319       440  TIP3  H1          -10.2647336028      -11.2162011602       11.4469503502  CLST         440          1.0000000000
      1320       440  TIP3  H2           -9.3297288992      -11.9463785320       11.7611119464  CLST         440          1.0000000000
      1321       441  TIP3  OH2         -14.3654104112        3.5722165384        7.2543900071  CLST         441          1.0000000000
      1322       441  TIP3  H1          -14.6365298963        4.4070776294        7.3916622984  CLST         441          1.0000000000
      1323       441  TIP3  H2          -15.0448951653        4.0744008456        6.5508847573  CLST         441          1.0000000000
      1324       442  TIP3  OH2           9.3125320416        0.6791201530      -12.3256597168  CLST         442          1.0000000000
      1325       442  TIP3  H1            9.3876721649       -0.1652654439      -11.9235457660  CLST         442          1.0000000000
      1326       442  TIP3  H2           10.2778116609        0.6952556389      -12.4121661227  CLST         442          1.0000000000
      1327       443  TIP3  OH2           7.9755210380       -8.3674552669        3.6994995031  CLST         443          1.0000000000
      1328       443  TIP3  H1            8.8093699972       -8.0541158355        3.3590673366  CLST         443          1.0000000000
      1329       443  TIP3  H2            7.5295768747       -8.0625631829        2.9122498216  CLST         443          1.0000000000
      1330       444  TIP3  OH2          12.9972586848        8.3146824249       -0.3751200523  CLST         444          1.0000000000
      1331       444  TIP3  H1           13.2010007818        9.2091578235       -0.1506480155  CLST         444          1.0000000000
      1332       444  TIP3  H2           13.7247720296        7.8936399803        0.0468655608  CLST         444          1.0000000000
      1333       445  TIP3  OH2          -8.7898878797       -9.6541177086       14.3457047540  CLST         445          1.0000000000
      1334       445  TIP3  H1           -8.4649885126       -9.1653895247       13.6091092172  CLST         445          1.0000000000
      1335       445  TIP3  H2           -8.4553239211       -9.0742350795       14.9697707731  CLST         445          1.0000000000
      1336       446  TIP3  OH2          12.7748093674       11.0335616442        0.0001342249  CLST         446          1.0000000000
      1337       446  TIP3  H1           12.1799558745       11.3741827695        0.7012074330  CLST         446          1.0000000000
      1338       446  TIP3  H2           12.3226538083       11.7502753511       -0.5456093877  CLST         446          1.0000000000
      1339       447  TIP3  OH2          -3.6437993638       13.3913725639        5.0575494703  CLST         447          1.0000000000
      1340       447  TIP3  H1           -3.9618409959       14.1746485974        5.4984076479  CLST         447          1.0000000000
      1341       447  TIP3  H2           -4.5569149938       13.0507331232        4.8293542415  CLST         447          1.0000000000
      1342       448  TIP3  OH2         -10.6247643709        9.3440258577      -13.0689350951  CLST         448          1.0000000000
      1343       448  TIP3  H1          -10.1636287237        9.5078205259      -12.2090266480  CLST         448          1.0000000000
      1344       448  TIP3  H2          -10.1070991254        8.5129565343      -13.1052073286  CLST         448          1.0000000000
      1345       449  TIP3  OH2           5.3350239399       -7.8300558231       -5.7032393177  CLST         449          1.0000000000
      1346       449  TIP3  H1            5.3533335170       -8.7993378047       -5.5978799327  CLST         449          1.0000000000
      1347       449  TIP3  H2            5.0831417367       -7.7648506265       -4.8284079594  CLST         449          1.0000000000
      1348       450  TIP3  OH2           4.8731422042       10.1885294176       11.6510398935  CLST         450          1.0000000000
      1349       450  TIP3  H1            5.7743678453        9.8719565180       11.4134042198  CLST         450          1.0000000000
      1350       450  TIP3  H2            4.5025219815        9.9038970729       10.7493938363  CLST         450          1.0000000000
      1351       451  TIP3  OH2         -12.5758485312       11.1152262953      -12.6370082612  CLST         451          1.0000000000
      1352       451  TIP3  H1          -12.6841766078       11.4516889854      -13.4909197909  CLST         451          1.0000000000
      1353       451  TIP3  H2          -12.0791510894       10.3288253114      -12.8929390387  CLST         451          1.0000000000
      1354       452  TIP3  OH2         -10.0210542945       14.6126157300        1.5577509093  CLST         452          1.0000000000
      1355       452  TIP3  H1          -10.5907569289       13.9066662769        1.9433525563  CLST         452          1.0000000000
      1356       452  TIP3  H2          -10.7622271420       14.9599765005        1.0871296945  CLST         452          1.0000000000
      1357       453  TIP3  OH2          -3.1641015392       -8.5594803168      -13.7080947877  CLST         453          1.0000000000
      1358       453  TIP3  H1           -3.9763011203       -8.9402303957      -13.4009447578  CLST         453          1.0000000000
      1359       453  TIP3  H2           -3.2042433893       -9.0488211677      -14.5423706870  CLST         453          1.0000000000
      1360       454  TIP3  OH2          13.6332020275      -13.3902278409       11.2399805348  CLST         454          1.0000000000
      1361       454  TIP3  H1           14.4938053126      -13.6919079391       11.4788549578  CLST         454          1.0000000000
      1362       454  TIP3  H2           13.6715279014      -12.7742945917       12.0340671846  CLST         454          1.0000000000
      1363       455  TIP3  OH2         -13.4651704982       -9.9292463805       -4.4402252125  CLST         455          1.0000000000
      1364       455  TIP3  H1          -13.5750848480       -8.9306670347       -4.3410639855  CLST         455          1.0000000000
      1365       455  TIP3  H2          -12.6509756419       -9.8084603850       -3.9531156851  CLST         455          1.0000000000
      1366       456  TIP3  OH2          -8.0839602015        7.2343418986        6.5004210313  CLST         456          1.0000000000
      1367       456  TIP3  H1           -7.8402289081        8.1263917661        6.8364297797  CLST         456          1.0000000000
      1368       456  TIP3  H2           -8.9533895005        7.6506936103        6.2689571924  CLST         456          1.0000000000
      1369       457  TIP3  OH2          -3.7838021902      -12.7911864409        8.4590788107  CLST         457          1.0000000000
      1370       457  TIP3  H1           -4.0498015170      -13.1009363627        9.2958384032  CLST         457          1.0000000000
      1371       457  TIP3  H2           -2.9492187938      -13.2081739896        8.5180433484  CLST         457          1.0000000000
      1372       458  TIP3  OH2          -2.3222016954       12.1871175176      -11.3967923259  CLST         458          1.0000000000
      1373       458  TIP3  H1           -3.1556980793       12.5061968968      -11.6208698755  CLST         458          1.0000000000
      1374       458  TIP3  H2           -2.4739874355       11.3815977690      -11.9099724875  CLST         458          1.0000000000
      1375       459  TIP3  OH2         -13.6652255797        7.1981691471       -3.8847168704  CLST         459          1.0000000000
      1376       459  TIP3  H1          -13.5723610541        7.6231663668       -3.0093568643  CLST         459          1.0000000000
      1377       459  TIP3  H2          -13.6187278931        8.0556166998       -4.3318205323  CLST         459          1.0000000000
      1378       460  TIP3  OH2           7.2100923664        9.6304177806      -13.9226359795  CLST         460          1.0000000000
      1379       460  TIP3  H1            6.5339307904        9.6650669527      -13.2860387840  CLST         460          1.0000000000
      1380       460  TIP3  H2            6.8568230267       10.3934745238      -14.3499448199  CLST         460          1.0000000000
      1381       461  TIP3  OH2           0.4218095140        7.7015003275      -12.7873334676  CLST         461          1.0000000000
      1382       461  TIP3  H1           -0.3674705986        7.2135723775      -12.6210869353  CLST         461          1.0000000000
      1383       461  TIP3  H2            0.6248600205        8.1970025594      -11.9817379265  CLST         461          1.0000000000
      1384       462  TIP3  OH2           4.3431406847        7.8042216781      -10.1865355261  CLST         462          1.0000000000
      1385       462  TIP3  H1            3.7437157157        7.1493683171      -10.5011117515  CLST         462          1.0000000000
      1386       462  TIP3  H2            4.0229787437        7.8187431893       -9.2852296297  CLST         462          1.0000000000
      1387       463  TIP3  OH2          -1.1453024644      -11.5979234957       -8.2350026199  CLST         463          1.0000000000
      1388       463  TIP3  H1           -1.9839407767      -11.8737461403       -8.6331812504  CLST         463          1.0000000000
      1389       463  TIP3  H2           -1.5445714988      -11.7025769100       -7.3511631902  CLST         463          1.0000000000
      1390       464  TIP3  OH2          -2.0967458522        2.5939817932       14.3871849616  CLST         464          1.0000000000
      1391       464  TIP3  H1           -2.9607118582        2.7862729768       13.9488024367  CLST         464          1.0000000000
      1392       464  TIP3  H2           -1.7769998015        3.4312494752       14.0781714171  CLST         464          1.0000000000
      1393       465  TIP3  OH2         -14.6854107377        6.1522008604        8.1228662013  CLST         465          1.0000000000
      1394       465  TIP3  H1          -14.7166682334        6.0469281709        9.0703201046  CLST         465          1.0000000000
      1395       465  TIP3  H2          -14.6525713701        7.0870742707        8.1979009574  CLST         465          1.0000000000
      1396       466  TIP3  OH2          -3.9998607049      -13.4971467546        3.0907658171  CLST         466          1.0000000000
      1397       466  TIP3  H1           -4.4801237241      -14.2209342150        3.4431181399  CLST         466          1.0000000000
      1398       466  TIP3  H2           -4.7958555655      -13.0430575177        2.8560683505  CLST         466          1.0000000000
      1399       467  TIP3  OH2           4.4919512178       14.7754780822        8.1307346266  CLST         467          1.0000000000
      1400       467  TIP3  H1            5.2949131153       14.2610467687        8.2682794858  CLST         467          1.0000000000
      1401       467  TIP3  H2            4.0743283415       14.6884423331        8.9972464097  CLST         467          1.0000000000
      1402       468  TIP3  OH2          -8.5436308621       -0.9379833310        1.8948240355  CLST         468          1.0000000000
      1403       468  TIP3  H1           -9.0072680751       -1.0367201184        2.7472258113  CLST         468          1.0000000000
      1404       468  TIP3  H2           -9.1958392378       -1.5515510942        1.5335633941  CLST         468          1.0000000000
      1405       469  TIP3  OH2           6.9982035082        0.9137229447       14.5521680950  CLST         469          1.0000000000
      1406       469  TIP3  H1            6.2255608866        0.5015809215       14.1432541651  CLST         469          1.0000000000
      1407       469  TIP3  H2            6.8178445339        1.7250724225       14.1206634176  CLST         469          1.0000000000
      1408       470  TIP3  OH2           1.1816430623       11.5377763351       -8.7608930857  CLST         470          1.0000000000
      1409       470  TIP3  H1            1.4356187997       12.4546982647       -8.6147559513  CLST         470          1.0000000000
      1410       470  TIP3  H2            1.9503977536       11.2310461302       -8.3936594563  CLST         470          1.0000000000
      1411       471  TIP3  OH2           5.3808027285        5.5771598131       -2.1387388106  CLST         471          1.0000000000
      1412       471  TIP3  H1            4.5936221934        5.7094125379       -2.5401631195  CLST         471          1.0000000000
      1413       471  TIP3  H2            4.9699009282        5.9595389622       -1.3747591748  CLST         471          1.0000000000
      1414       472  TIP3  OH2           5.2648009650      -12.3607175801       -6.9739046574  CLST         472          1.0000000000
      1415       472  TIP3  H1            4.8557487111      -12.9585400126       -7.5360310629  CLST         472          1.0000000000
      1416       472  TIP3  H2            5.6700325259      -13.0403554289       -6.5101084628  CLST         472          1.0000000000
      1417       473  TIP3  OH2          -3.9892272291        2.8228528252        1.0516702511  CLST         473          1.0000000000
      1418       473  TIP3  H1           -3.1828314874        2.6671664078        0.6029341578  CLST         473          1.0000000000
      1419       473  TIP3  H2           -4.3903225334        2.0750340509        0.6898981591  CLST         473          1.0000000000
      1420       474  TIP3  OH2           8.2815941520        4.4215695234        7.6486993943  CLST         474          1.0000000000
      1421       474  TIP3  H1            7.8045180465        3.7387040800        6.9040636452  CLST         474          1.0000000000
      1422       474  TIP3  H2            8.9015616881        3.8166124392        6.9784428409  CLST         474          1.0000000000
      1423       475  TIP3  OH2           6.2192353948       -3.8776761292       -8.0531635554  CLST         475          1.0000000000
      1424       475  TIP3  H1            5.9225563874       -3.3332818173       -8.7401821506  CLST         475          1.0000000000
      1425       475  TIP3  H2            6.7970940976       -4.3487828314       -8.6269525209  CLST         475          1.0000000000
      1426       476  TIP3  OH2           3.3327751995       10.2139623666       -8.0358487118  CLST         476          1.0000000000
      1427       476  TIP3  H1            3.4802092242        9.2274436656       -8.0015788014  CLST         476          1.0000000000
      1428       476  TIP3  H2            3.1196105211       10.2138812315       -7.1095000982  CLST         476          1.0000000000
      1429       477  TIP3  OH2          -7.2997290625       -3.4878405783       -9.7594964299  CLST         477          1.0000000000
      1430       477  TIP3  H1           -6.5581413575       -3.2638355674      -10.3888134630  CLST         477          1.0000000000
      1431       477  TIP3  H2           -6.6420983281       -3.8061702997       -9.1366072956  CLST         477          1.0000000000
      1432       478  TIP3  OH2           0.7316093556       -4.9706905085      -12.6139820324  CLST         478          1.0000000000
      1433       478  TIP3  H1            1.0504509629       -5.8497712428      -12.4605919623  CLST         478          1.0000000000
      1434       478  TIP3  H2            1.4737137470       -4.5968828558      -12.2129812778  CLST         478          1.0000000000
      1435       479  TIP3  OH2           0.2372319584       -1.4665983883       -7.3732286722  CLST         479          1.0000000000
      1436       479  TIP3  H1            0.4856295433       -1.3666249330       -6.4446711489  CLST         479          1.0000000000
      1437       479  TIP3  H2            1.1465720114       -1.5224586679       -7.6364105227  CLST         479          1.0000000000
      1438       480  TIP3  OH2           5.6654525255       -0.9494974877        8.9977602363  CLST         480          1.0000000000
      1439       480  TIP3  H1            6.0420973005       -1.7544132212        8.6706175664  CLST         480          1.0000000000
      1440       480  TIP3  H2            6.4662493892       -0.5141587717        8.8130867264  CLST         480          1.0000000000
      1441       481  TIP3  OH2          -6.7479099432        2.2770974338       -5.8293585668  CLST         481          1.0000000000
      1442       481  TIP3  H1           -7.1985911643        3.0647828139       -6.0702590698  CLST         481          1.0000000000
      1443       481  TIP3  H2           -5.8908409937        2.5334116361       -6.1626920782  CLST         481          1.0000000000
      1444       482  TIP3  OH2           3.6250391968       -7.9370974620        4.2647084213  CLST         482          1.0000000000
      1445       482  TIP3  H1            4.2276878114       -7.4968209803        4.8859041870  CLST         482          1.0000000000
      1446       482  TIP3  H2            3.4018609565       -6.9456545937        4.1140823677  CLST         482          1.0000000000
      1447       483  TIP3  OH2         -15.0933349557        0.3406395805       -8.1623801206  CLST         483          1.0000000000
      1448       483  TIP3  H1          -14.7676574999       -0.3638012141       -8.6598862622  CLST         483          1.0000000000
      1449       483  TIP3  H2          -14.2483732018        0.6903702118       -8.0115530412  CLST         483          1.0000000000
      1450       484  TIP3  OH2          14.7916697427       -2.3273039567       -8.7886552663  CLST         484          1.0000000000
      1451       484  TIP3  H1           14.4545702703       -3.2003380541       -8.4430980520  CLST         484          1.0000000000
      1452       484  TIP3  H2           13.8799863827       -2.1100542606       -9.0622196730  CLST         484          1.0000000000
      1453       485  TIP3  OH2          -3.5486982860        5.3692875963        3.7808811923  CLST         485          1.0000000000
      1454       485  TIP3  H1           -2.7249252083        5.1095531488        4.1627022577  CLST         485          1.0000000000
      1455       485  TIP3  H2           -3.9910127380        5.5791911879        4.6423316272  CLST         485          1.0000000000
      1456       486  TIP3  OH2          11.2088310657       13.0505854370       -9.0121883887  CLST         486          1.0000000000
      1457       486  TIP3  H1           11.8225691115       12.6060300538       -8.4402228680  CLST         486          1.0000000000
      1458       486  TIP3  H2           11.6550290152       12.7226101536       -9.7500955596  CLST         486          1.0000000000
      1459       487  TIP3  OH2           2.2480400803       -5.6862682386        3.5364627219  CLST         487          1.0000000000
      1460       487  TIP3  H1            2.5425229551       -4.8349319889        3.8522196457  CLST         487          1.0000000000
      1461       487  TIP3  H2            1.8570625601       -5.3534520135        2.7226196246  CLST         487          1.0000000000
      1462       488  TIP3  OH2         -11.5445826306       -0.7704475130       11.0093185197  CLST         488          1.0000000000
      1463       488  TIP3  H1          -12.2401488313       -0.1139545097       11.0445974721  CLST         488          1.0000000000
      1464       488  TIP3  H2          -10.9992327575       -0.3091960242       10.3242113519  CLST         488          1.0000000000
      1465       489  TIP3  OH2          -8.3423756348        8.0112429265       -4.5315232106  CLST         489          1.0000000000
      1466       489  TIP3  H1           -8.3881000787        8.4753968603       -3.7140352565  CLST         489          1.0000000000
      1467       489  TIP3  H2           -7.4505669070        7.9109735410       -4.4685746058  CLST         489          1.0000000000
      1468       490  TIP3  OH2         -11.2678508066       11.0137489888        5.1263608740  CLST         490          1.0000000000
      1469       490  TIP3  H1          -11.2448748960       10.0777806626        5.2144094571  CLST         490          1.0000000000
      1470       490  TIP3  H2          -10.4835969606       11.0213896236        4.5609984897  CLST         490          1.0000000000
      1471       491  TIP3  OH2          -0.9752236201      -10.1627287984       11.0318782036  CLST         491          1.0000000000
      1472       491  TIP3  H1           -0.3665317994      -10.0434649656       10.3091057817  CLST         491          1.0000000000
      1473       491  TIP3  H2           -0.6546016253       -9.3364753893       11.3841859840  CLST         491          1.0000000000
      1474       492  TIP3  OH2          -2.1385448575       10.2676276396        2.7617426290  CLST         492          1.0000000000
      1475       492  TIP3  H1           -1.4168510657       10.8450985097        2.8329939823  CLST         492          1.0000000000
      1476       492  TIP3  H2           -2.5659270742       10.6639470307        2.0243628547  CLST         492          1.0000000000
      1477       493  TIP3  OH2          -6.1720509385       10.4642919660       -2.8846788365  CLST         493          1.0000000000
      1478       493  TIP3  H1           -6.5707953317       10.9435217530       -3.5923009551  CLST         493          1.0000000000
      1479       493  TIP3  H2           -7.0434355430       10.0999772121       -2.6643433771  CLST         493          1.0000000000
      1480       494  TIP3  OH2         -13.7484424233       10.7809550227       12.3693599152  CLST         494          1.0000000000
      1481       494  TIP3  H1          -14.5677785820       10.8077496437       11.8841183952  CLST         494          1.0000000000
      1482       494  TIP3  H2          -13.3180899474       11.5112425244       11.9493450570  CLST         494          1.0000000000
      1483       495  TIP3  OH2           3.1161214140      -12.8921581630       13.7087523969  CLST         495          1.0000000000
      1484       495  TIP3  H1            2.9608593676      -12.6994189441       14.5878454384  CLST         495          1.0000000000
      1485       495  TIP3  H2            3.3196940318      -11.9738821688       13.5324514884  CLST         495          1.0000000000
      1486       496  TIP3  OH2         -15.0933349557        6.4295968330        0.3334422685  CLST         496          1.0000000000
      1487       496  TIP3  H1          -14.7977426695        6.4458323329        1.2379637999  CLST         496          1.0000000000
      1488       496  TIP3  H2          -15.0418253799        5.4625449580        0.2807089218  CLST         496          1.0000000000
      1489       497  TIP3  OH2         -13.5287729716       -8.6735433941        3.2955474642  CLST         497          1.0000000000
      1490       497  TIP3  H1          -14.3182425704       -8.1452845674        3.2480299740  CLST         497          1.0000000000
      1491       497  TIP3  H2          -13.8937363800       -9.2660071528        3.9509598414  CLST         497          1.0000000000
      1492       498  TIP3  OH2           4.3638982541       14.1911556713      -10.5881825568  CLST         498          1.0000000000
      1493       498  TIP3  H1            4.4797004315       13.6833371762      -11.4847812769  CLST         498          1.0000000000
      1494       498  TIP3  H2            5.1574467239       13.3334834647      -10.8304782782  CLST         498          1.0000000000
      1495       499  TIP3  OH2           1.4034706758       10.9621832692       -2.8887895127  CLST         499          1.0000000000
      1496       499  TIP3  H1            0.5526342980       11.3664498638       -2.8858901273  CLST         499          1.0000000000
      1497       499  TIP3  H2            1.8845910204       11.7460174011       -2.5828062577  CLST         499          1.0000000000
      1498       500  TIP3  OH2          -6.3276399647       -2.4850304953        4.3767750526  CLST         500          1.0000000000
      1499       500  TIP3  H1           -7.1896089643       -2.1560965686        4.3162667963  CLST         500          1.0000000000
      1500       500  TIP3  H2           -5.9571306029       -1.8110079976        3.8551035859  CLST         500          1.0000000000
      1501       501  TIP3  OH2         -12.4761915403      -13.4447177219       -6.0689194090  CLST         501          1.0000000000
      1502       501  TIP3  H1          -13.2563884647      -12.9335503073       -6.0727064855  CLST         501          1.0000000000
      1503       501  TIP3  H2          -11.8296616854      -12.8538803722       -6.3954661043  CLST         501          1.0000000000
      1504       502  TIP3  OH2          -1.4874649763       -3.6997075227      -11.4799598924  CLST         502          1.0000000000
      1505       502  TIP3  H1           -0.8062390131       -2.7530401244      -11.6347739210  CLST         502          1.0000000000
      1506       502  TIP3  H2           -0.7576822291       -3.8062494129      -12.0204581814  CLST         502          1.0000000000
      1507       503  TIP3  OH2          -0.2612455163       -4.9554768774        1.0799353362  CLST         503          1.0000000000
      1508       503  TIP3  H1            0.4668495951       -5.1641194986        0.5041075351  CLST         503          1.0000000000
      1509       503  TIP3  H2           -0.8166143831       -5.6340349607        0.6889782307  CLST         503          1.0000000000
      1510       504  TIP3  OH2          -4.2634169858       -3.6140042407       12.6194533243  CLST         504          1.0000000000
      1511       504  TIP3  H1           -4.4498823098       -4.5540063219       12.9293531770  CLST         504          1.0000000000
      1512       504  TIP3  H2           -4.0947047423       -3.2842195176       13.5032940682  CLST         504          1.0000000000
      1513       505  TIP3  OH2           5.7843865748       12.1668429553       -9.3863107166  CLST         505          1.0000000000
      1514       505  TIP3  H1            5.8983430328       11.8394567262       -8.4851751952  CLST         505          1.0000000000
      1515       505  TIP3  H2            6.6929633459       12.6350979226       -9.3632143893  CLST         505          1.0000000000
      1516       506  TIP3  OH2          -4.0000539298        3.6122661765       10.3678759894  CLST         506          1.0000000000
      1517       506  TIP3  H1           -4.7035844957        3.7273613353        9.6508240425  CLST         506          1.0000000000
      1518       506  TIP3  H2           -4.3608658411        2.7280280477       10.6035114717  CLST         506          1.0000000000
      1519       507  TIP3  OH2          -2.1080592066        6.9344645951      -12.6229427365  CLST         507          1.0000000000
      1520       507  TIP3  H1           -2.3531615717        6.0002214214      -12.3884361212  CLST         507          1.0000000000
      1521       507  TIP3  H2           -2.9781346847        7.1818505193      -12.6074493760  CLST         507          1.0000000000
      1522       508  TIP3  OH2         -11.2399538382        5.0923269254      -11.7316405028  CLST         508          1.0000000000
      1523       508  TIP3  H1          -12.0555005808        5.4243362503      -11.4064261152  CLST         508          1.0000000000
      1524       508  TIP3  H2          -11.6690646445        4.2593801974      -11.6569470905  CLST         508          1.0000000000
      1525       509  TIP3  OH2           5.0079087435        0.4465134104      -10.9412243432  CLST         509          1.0000000000
      1526       509  TIP3  H1            5.4590206295        0.4893193790      -10.1456359751  CLST         509          1.0000000000
      1527       509  TIP3  H2            5.5744009989        0.4111127583      -11.6927351934  CLST         509          1.0000000000
      1528       510  TIP3  OH2          -4.4233505611        0.1761831798       -3.7508956554  CLST         510          1.0000000000
      1529       510  TIP3  H1           -4.6824383749       -0.5566834268       -4.4276990732  CLST         510          1.0000000000
      1530       510  TIP3  H2           -3.6714176224        0.4346066177       -4.5438049716  CLST         510          1.0000000000
      1531       511  TIP3  OH2         -10.6871114774        1.5973707731       -0.9234559380  CLST         511          1.0000000000
      1532       511  TIP3  H1          -11.2111372421        2.1093113611       -0.3047314178  CLST         511          1.0000000000
      1533       511  TIP3  H2          -11.2162735389        0.8098257248       -0.7493542890  CLST         511          1.0000000000
      1534       512  TIP3  OH2          -3.2251188368       -8.1388694015       -8.5973625007  CLST         512          1.0000000000
      1535       512  TIP3  H1           -2.7918848012       -8.8302907671       -9.0872964686  CLST         512          1.0000000000
      1536       512  TIP3  H2           -3.1015945932       -7.4639205635       -9.2498382451  CLST         512          1.0000000000
      1537       513  TIP3  OH2           9.4207827392       14.2181501929       11.4571331654  CLST         513          1.0000000000
      1538       513  TIP3  H1            9.4506230409       15.0900646232       11.0638933926  CLST         513          1.0000000000
      1539       513  TIP3  H2            9.2574354024       13.7682931028       10.6405411771  CLST         513          1.0000000000
      1540       514  TIP3  OH2          -4.7978939675        7.8129747850      -13.0150479632  CLST         514          1.0000000000
      1541       514  TIP3  H1           -5.3411988168        8.0756011496      -13.7142338297  CLST         514          1.0000000000
      1542       514  TIP3  H2           -5.4836667912        8.0194873207      -12.3600879259  CLST         514          1.0000000000
      1543       515  TIP3  OH2           6.0183291372        6.0284005071       -6.0788242414  CLST         515          1.0000000000
      1544       515  TIP3  H1            5.6918050755        5.5702831943       -5.2769569437  CLST         515          1.0000000000
      1545       515  TIP3  H2            6.6842382954        6.5699432121       -5.5862261695  CLST         515          1.0000000000
      1546       516  TIP3  OH2           9.4681715378        0.3307632399       -8.1689382912  CLST         516          1.0000000000
      1547       516  TIP3  H1           10.4069450874        0.2597071840       -8.2208789972  CLST         516          1.0000000000
      1548       516  TIP3  H2            9.5294319920        1.2770135482       -8.0245172870  CLST         516          1.0000000000
      1549       517  TIP3  OH2          14.0558398460       -7.0324181902       -8.9907812515  CLST         517          1.0000000000
      1550       517  TIP3  H1           14.3308681792       -6.2967879642       -8.4446114262  CLST         517          1.0000000000
      1551       517  TIP3  H2           14.8123329304       -7.5651406943       -8.8448258769  CLST         517          1.0000000000
      1552       518  TIP3  OH2          -0.6709327135       12.2950572750       -5.9783503425  CLST         518          1.0000000000
      1553       518  TIP3  H1            0.2520195476       12.1215836058       -5.9167936831  CLST         518          1.0000000000
      1554       518  TIP3  H2           -0.5571972717       12.7816344323       -5.2116188012  CLST         518          1.0000000000
      1555       519  TIP3  OH2           0.8557906955        5.0485283572        1.1754015106  CLST         519          1.0000000000
      1556       519  TIP3  H1            0.5115209971        4.1860433517        0.9651017752  CLST         519          1.0000000000
      1557       519  TIP3  H2           -0.1078624253        5.2781948233        1.2862761981  CLST         519          1.0000000000
      1558       520  TIP3  OH2           6.7517150012        6.6025235144      -10.5823086500  CLST         520          1.0000000000
      1559       520  TIP3  H1            5.9697546308        7.0965434097      -10.3993784000  CLST         520          1.0000000000
      1560       520  TIP3  H2            7.1510732900        7.0759556587       -9.8045703295  CLST         520          1.0000000000
      1561       521  TIP3  OH2          -5.6179344017       10.1782791365        9.5081643536  CLST         521          1.0000000000
      1562       521  TIP3  H1           -4.8577294121       10.1431339446       10.0661767957  CLST         521          1.0000000000
      1563       521  TIP3  H2           -4.9352048622       10.3276673637        8.7977244829  CLST         521          1.0000000000
      1564       522  TIP3  OH2           3.0149198339        3.9347475414        2.2394659467  CLST         522          1.0000000000
      1565       522  TIP3  H1            2.4690526221        4.5664929362        1.7668413171  CLST         522          1.0000000000
      1566       522  TIP3  H2            2.8907313548        3.3441711595        1.5036358449  CLST         522          1.0000000000
      1567       523  TIP3  OH2           8.2666332040        0.6568357365       -3.4007672662  CLST         523          1.0000000000
      1568       523  TIP3  H1            7.3117631507        0.6882311625       -3.6900431289  CLST         523          1.0000000000
      1569       523  TIP3  H2            8.3371340797       -0.2437248137       -3.8020323863  CLST         523          1.0000000000
      1570       524  TIP3  OH2          -5.2851108022        5.6993980981      -10.5937004765  CLST         524          1.0000000000
      1571       524  TIP3  H1           -5.1935059570        6.6410490244      -10.5222987461  CLST         524          1.0000000000
      1572       524  TIP3  H2           -4.4013831342        5.4757263380      -10.8262791282  CLST         524          1.0000000000
      1573       525  TIP3  OH2          -5.6448182759        5.8025596486       -8.0085586662  CLST         525          1.0000000000
      1574       525  TIP3  H1           -5.0999169873        6.6095335751       -8.1177968543  CLST         525          1.0000000000
      1575       525  TIP3  H2           -5.4533866840        5.4589564050       -8.8752433597  CLST         525          1.0000000000
      1576       526  TIP3  OH2           9.5314724699      -11.1203508558      -13.0868007022  CLST         526          1.0000000000
      1577       526  TIP3  H1           10.2090999236      -11.0530320836      -13.6813729856  CLST         526          1.0000000000
      1578       526  TIP3  H2            8.7649113985      -11.0180566488      -13.7148468222  CLST         526          1.0000000000
      1579       527  TIP3  OH2         -11.5872914874       -3.2812249523       -1.6712693155  CLST         527          1.0000000000
      1580       527  TIP3  H1          -12.2399671805       -3.9093878275       -1.9562364977  CLST         527          1.0000000000
      1581       527  TIP3  H2          -10.8640517061       -3.5939902795       -2.1284710945  CLST         527          1.0000000000
      1582       528  TIP3  OH2           4.6519502431      -12.1132502004      -11.1683583347  CLST         528          1.0000000000
      1583       528  TIP3  H1            4.3707517833      -11.2677667452      -10.8111210817  CLST         528          1.0000000000
      1584       528  TIP3  H2            5.1763459762      -11.7302160784      -11.8417955023  CLST         528          1.0000000000
      1585       529  TIP3  OH2          -5.9338766597       -6.9880918824       -4.8119724237  CLST         529          1.0000000000
      1586       529  TIP3  H1           -5.5007646220       -7.7436234761       -5.1832217068  CLST         529          1.0000000000
      1587       529  TIP3  H2           -5.7133093029       -6.3016484158       -5.4678886663  CLST         529          1.0000000000
      1588       530  TIP3  OH2           2.7744944280       -5.7621372643        6.4651795251  CLST         530          1.0000000000
      1589       530  TIP3  H1            2.3582608673       -6.3560877048        7.1550862154  CLST         530          1.0000000000
      1590       530  TIP3  H2            1.9328518367       -5.5619138858        5.9564771903  CLST         530          1.0000000000
      1591       531  TIP3  OH2          -3.4245492160       -3.2873170796      -15.0364462810  CLST         531          1.0000000000
      1592       531  TIP3  H1           -4.2998389664       -3.0925848440      -14.7061160150  CLST         531          1.0000000000
      1593       531  TIP3  H2           -3.1616979923       -2.4536444373      -14.6880023446  CLST         531          1.0000000000
      1594       532  TIP3  OH2          -1.1940607732       -3.6137760243       -2.0431971824  CLST         532          1.0000000000
      1595       532  TIP3  H1           -1.6198369807       -2.7383671611       -1.8340140525  CLST         532          1.0000000000
      1596       532  TIP3  H2           -1.8002505840       -4.0568894375       -1.4246744821  CLST         532          1.0000000000
      1597       533  TIP3  OH2          -3.2116229256       13.3418131793        8.0939365520  CLST         533          1.0000000000
      1598       533  TIP3  H1           -4.1473124680       13.5627903388        8.2092486326  CLST         533          1.0000000000
      1599       533  TIP3  H2           -3.4627584083       12.5829397608        7.6424319258  CLST         533          1.0000000000
      1600       534  TIP3  OH2           6.8859627736       -4.4210407165       -5.2216462668  CLST         534          1.0000000000
      1601       534  TIP3  H1            5.9776458890       -4.2338948609       -4.8566364868  CLST         534          1.0000000000
      1602       534  TIP3  H2            6.5339365796       -4.2458087110       -6.1089852691  CLST         534          1.0000000000
      1603       535  TIP3  OH2           7.0938000218       -3.7891255990      -11.3574318479  CLST         535          1.0000000000
      1604       535  TIP3  H1            6.2379115968       -3.4758769533      -11.0779512436  CLST         535          1.0000000000
      1605       535  TIP3  H2            7.1342450830       -4.3587126029      -10.6551176281  CLST         535          1.0000000000
      1606       536  TIP3  OH2          14.5529370169        8.0416880547       10.7927395129  CLST         536          1.0000000000
      1607       536  TIP3  H1           14.3096483464        8.9067521750       11.1591138081  CLST         536          1.0000000000
      1608       536  TIP3  H2           15.0772092805        8.4317746870       10.0786102240  CLST         536          1.0000000000
      1609       537  TIP3  OH2           4.5875001623       -4.4693468446       -3.5860571028  CLST         537          1.0000000000
      1610       537  TIP3  H1            3.6866221568       -4.2830577804       -3.4089878941  CLST         537          1.0000000000
      1611       537  TIP3  H2            4.3957438803       -5.3726264356       -3.5361110261  CLST         537          1.0000000000
      1612       538  TIP3  OH2          -0.5662290370        7.5410560145       13.1073821613  CLST         538          1.0000000000
      1613       538  TIP3  H1           -1.2658494712        7.4352486109       12.4255688786  CLST         538          1.0000000000
      1614       538  TIP3  H2           -0.7279673863        8.5085699830       12.8913308313  CLST         538          1.0000000000
      1615       539  TIP3  OH2           6.1409282125        8.8319947529        1.1459563011  CLST         539          1.0000000000
      1616       539  TIP3  H1            6.6160263480        8.1160482752        0.7055427506  CLST         539          1.0000000000
      1617       539  TIP3  H2            5.6376867113        8.1153818314        1.5721809266  CLST         539          1.0000000000
      1618       540  TIP3  OH2          12.2404663042       -1.2577628469       -4.0711038506  CLST         540          1.0000000000
      1619       540  TIP3  H1           13.0629175896       -0.8460613757       -4.2641832717  CLST         540          1.0000000000
      1620       540  TIP3  H2           12.4418993283       -1.1762144778       -3.1006324675  CLST         540          1.0000000000
      1621       541  TIP3  OH2          10.5072845540        7.3478482983        8.5017740474  CLST         541          1.0000000000
      1622       541  TIP3  H1           10.4993219755        7.6543436786        9.3938245924  CLST         541          1.0000000000
      1623       541  TIP3  H2           11.0266755263        6.6173675119        8.6931507567  CLST         541          1.0000000000
      1624       542  TIP3  OH2          13.6277264860        0.8637877042       -5.3008231288  CLST         542          1.0000000000
      1625       542  TIP3  H1           12.9483842642        1.1400528860       -5.9870311034  CLST         542          1.0000000000
      1626       542  TIP3  H2           14.0261257650        0.4047724045       -6.0775857588  CLST         542          1.0000000000
      1627       543  TIP3  OH2          10.1176000600       -6.5272155846        5.5472525870  CLST         543          1.0000000000
      1628       543  TIP3  H1           10.1984131802       -6.7183723648        4.6101503070  CLST         543          1.0000000000
      1629       543  TIP3  H2            9.6813762651       -5.6548080110        5.2932598492  CLST         543          1.0000000000
      1630       544  TIP3  OH2           6.7516156294        4.4516173902      -12.2833081277  CLST         544          1.0000000000
      1631       544  TIP3  H1            7.1549267770        3.7394208302      -11.7471195424  CLST         544          1.0000000000
      1632       544  TIP3  H2            7.1318598480        5.0840423332      -11.6604058966  CLST         544          1.0000000000
      1633       545  TIP3  OH2         -12.0771375702        2.1463763014        7.3880547574  CLST         545          1.0000000000
      1634       545  TIP3  H1          -12.8990086306        2.4828387794        7.3388623239  CLST         545          1.0000000000
      1635       545  TIP3  H2          -11.9968731280        2.4829038775        8.2713669703  CLST         545          1.0000000000
      1636       546  TIP3  OH2          -1.0399735275       12.0059903217       10.7138552860  CLST         546          1.0000000000
      1637       546  TIP3  H1           -0.7662291593       12.7505789943       10.2855622271  CLST         546          1.0000000000
      1638       546  TIP3  H2           -0.6487291197       12.2615053044       11.5056105590  CLST         546          1.0000000000
      1639       547  TIP3  OH2          -2.1807712987        7.1530303553        6.0049557253  CLST         547          1.0000000000
      1640       547  TIP3  H1           -2.1888584627        6.6998096237        6.8566712738  CLST         547          1.0000000000
      1641       547  TIP3  H2           -1.5733501371        6.5490552776        5.5884855799  CLST         547          1.0000000000
      1642       548  TIP3  OH2           2.7874523747       -7.6939882185       12.7085528789  CLST         548          1.0000000000
      1643       548  TIP3  H1            2.2907522984       -6.8247078411       12.6727633498  CLST         548          1.0000000000
      1644       548  TIP3  H2            3.6280835609       -7.2028975820       12.5095789064  CLST         548          1.0000000000
      1645       549  TIP3  OH2          -6.5823205192       14.3951548266        3.2398918859  CLST         549          1.0000000000
      1646       549  TIP3  H1           -7.0331119990       15.0933349557        3.6194630579  CLST         549          1.0000000000
      1647       549  TIP3  H2           -6.5556404261       13.7728381105        3.9405087521  CLST         549          1.0000000000
      1648       550  TIP3  OH2          -8.0269524107        4.6503875062       -4.3127348448  CLST         550          1.0000000000
      1649       550  TIP3  H1           -8.9162168097        3.9091478339       -4.1151275829  CLST         550          1.0000000000
      1650       550  TIP3  H2           -8.7254129018        5.0874692082       -3.7078275244  CLST         550          1.0000000000
      1651       551  TIP3  OH2          -2.3545277570      -13.4996335984       -3.3633153357  CLST         551          1.0000000000
      1652       551  TIP3  H1           -2.0137660844      -13.2387857760       -2.5507819851  CLST         551          1.0000000000
      1653       551  TIP3  H2           -3.1913598088      -13.2571640882       -3.0573085971  CLST         551          1.0000000000
      1654       552  TIP3  OH2          -2.3220065072       -7.7865856474       13.7610712544  CLST         552          1.0000000000
      1655       552  TIP3  H1           -2.6147415517       -8.6319382014       14.1181703669  CLST         552          1.0000000000
      1656       552  TIP3  H2           -1.7717750158       -8.0094014863       13.0498931584  CLST         552          1.0000000000
      1657       553  TIP3  OH2           8.2930941971      -13.9401999775        0.1786818994  CLST         553          1.0000000000
      1658       553  TIP3  H1            8.6250349995      -13.1756724698        0.7007450694  CLST         553          1.0000000000
      1659       553  TIP3  H2            8.3454885438      -14.5809602454        0.8219596326  CLST         553          1.0000000000
      1660       554  TIP3  OH2          -9.1960239017      -12.1561363457       -3.7103235811  CLST         554          1.0000000000
      1661       554  TIP3  H1           -9.4151300601      -11.7326257608       -2.8509926039  CLST         554          1.0000000000
      1662       554  TIP3  H2          -10.0637356548      -12.6590654056       -3.5726301129  CLST         554          1.0000000000
      1663       555  TIP3  OH2         -11.1167240596       -5.2340209655       -7.5589171728  CLST         555          1.0000000000
      1664       555  TIP3  H1          -10.7584245911       -4.3456613205       -7.3365902233  CLST         555          1.0000000000
      1665       555  TIP3  H2          -11.2500534372       -5.4407273417       -6.6112104150  CLST         555          1.0000000000
      1666       556  TIP3  OH2         -10.5037099311       11.3117398693       13.6188682293  CLST         556          1.0000000000
      1667       556  TIP3  H1          -11.0277161713       10.8041745417       14.1798737487  CLST         556          1.0000000000
      1668       556  TIP3  H2           -9.7748948160       10.6414318389       13.3802333120  CLST         556          1.0000000000
      1669       557  TIP3  OH2          -2.5633610492       -6.6676858886        1.3256717164  CLST         557          1.0000000000
      1670       557  TIP3  H1           -2.6250223503       -6.5998841440        2.2740942103  CLST         557          1.0000000000
      1671       557  TIP3  H2           -2.8037824805       -7.5953336574        1.2429537807  CLST         557          1.0000000000
      1672       558  TIP3  OH2         -10.3812223857        6.2399830835        3.0352845151  CLST         558          1.0000000000
      1673       558  TIP3  H1          -10.0961035654        5.6105014121        3.7397016448  CLST         558          1.0000000000
      1674       558  TIP3  H2           -9.7686469385        5.8438706691        2.3924538785  CLST         558          1.0000000000
      1675       559  TIP3  OH2           1.2437669257        2.3316955688       -0.0961271272  CLST         559          1.0000000000
      1676       559  TIP3  H1            2.0452121585        2.4521904612       -0.6167026125  CLST         559          1.0000000000
      1677       559  TIP3  H2            1.1200068423        1.3314553195       -0.2937412446  CLST         559          1.0000000000
      1678       560  TIP3  OH2          12.5511074633      -11.8316593173        0.9985697671  CLST         560          1.0000000000
      1679       560  TIP3  H1           12.7935064468      -11.9226240082        0.0637651589  CLST         560          1.0000000000
      1680       560  TIP3  H2           12.0615321733      -12.6876340145        0.8755110742  CLST         560          1.0000000000
      1681       561  TIP3  OH2         -12.9178991936        8.6001434960      -10.6832537247  CLST         561          1.0000000000
      1682       561  TIP3  H1          -12.3601160627        8.6320907405      -11.5178421675  CLST         561          1.0000000000
      1683       561  TIP3  H2          -12.0201182083        8.5053108077      -10.3851864319  CLST         561          1.0000000000
      1684       562  TIP3  OH2           9.8516275214        6.8934000936       13.2694836164  CLST         562          1.0000000000
      1685       562  TIP3  H1           10.1708840590        7.3597260797       14.0338165787  CLST         562          1.0000000000
      1686       562  TIP3  H2           10.3442086237        6.1268563736       13.5165575148  CLST         562          1.0000000000
      1687       563  TIP3  OH2           3.0481880456      -10.3128673944       -6.6983237180  CLST         563          1.0000000000
      1688       563  TIP3  H1            3.8508994708      -10.8012127930       -6.7670583799  CLST         563          1.0000000000
      1689       563  TIP3  H2            2.4584439759      -10.9631971234       -6.9933311087  CLST         563          1.0000000000
      1690       564  TIP3  OH2           4.7531697120      -13.5344614459       -2.7064668839  CLST         564          1.0000000000
      1691       564  TIP3  H1            5.2136104348      -13.6361732089       -3.5694069108  CLST         564          1.0000000000
      1692       564  TIP3  H2            4.0032929455      -13.1975307161       -3.2772066909  CLST         564          1.0000000000
      1693       565  TIP3  OH2           1.4606070360       12.2297591462        0.3501027341  CLST         565          1.0000000000
      1694       565  TIP3  H1            1.0168154280       11.3951468787        0.0936906269  CLST         565          1.0000000000
      1695       565  TIP3  H2            2.2882394558       12.0705781277       -0.1504024890  CLST         565          1.0000000000
      1696       566  TIP3  OH2          -8.8117085863        5.5501254898        0.9064201370  CLST         566          1.0000000000
      1697       566  TIP3  H1           -8.9558829224        4.7592236679        0.3054783199  CLST         566          1.0000000000
      1698       566  TIP3  H2           -8.9842136593        5.6156071479       -0.2210745692  CLST         566          1.0000000000
      1699       567  TIP3  OH2          12.1606205870       -0.0790943595       -8.1097511377  CLST         567          1.0000000000
      1700       567  TIP3  H1           13.0801401615       -0.2357606276       -7.9371862894  CLST         567          1.0000000000
      1701       567  TIP3  H2           12.2141975173       -0.5802497323       -9.0009547509  CLST         567          1.0000000000
      1702       568  TIP3  OH2           8.8842011919       -7.1257659564       11.5356482368  CLST         568          1.0000000000
      1703       568  TIP3  H1            9.7657876422       -7.2614039921       11.9421611844  CLST         568          1.0000000000
      1704       568  TIP3  H2            9.0464427677       -6.1891298232       11.3792596844  CLST         568          1.0000000000
      1705       569  TIP3  OH2          -8.4637686790       -6.3467547327        3.6205406427  CLST         569          1.0000000000
      1706       569  TIP3  H1           -8.4891617874       -5.8750691958        2.7966492452  CLST         569          1.0000000000
      1707       569  TIP3  H2           -9.2271320099       -6.8523850981        3.4374907294  CLST         569          1.0000000000
      1708       570  TIP3  OH2           6.1898156059       11.8255426018       15.0933349557  CLST         570          1.0000000000
      1709       570  TIP3  H1            5.5140754789       11.8837493355       14.4391354005  CLST         570          1.0000000000
      1710       570  TIP3  H2            6.8613791285       12.1155981111       14.4857866374  CLST         570          1.0000000000
      1711       571  TIP3  OH2           9.3430393217        1.1858687311        4.4151289778  CLST         571          1.0000000000
      1712       571  TIP3  H1            8.6034457092        1.3580439002        4.8954196344  CLST         571          1.0000000000
      1713       571  TIP3  H2            8.9364180541        0.7265014144        3.6518293273  CLST         571          1.0000000000
      1714       572  TIP3  OH2           5.2877109465        0.2457306000        2.2701500244  CLST         572          1.0000000000
      1715       572  TIP3  H1            4.9127663118       -0.6184581882        2.1595435450  CLST         572          1.0000000000
      1716       572  TIP3  H2            6.1443472676       -0.1160889650        2.4361722515  CLST         572          1.0000000000
      1717       573  TIP3  OH2          -1.8267077015       -6.5165384791       -6.5017827376  CLST         573          1.0000000000
      1718       573  TIP3  H1           -1.6094945039       -7.4051590471       -6.5321272411  CLST         573          1.0000000000
      1719       573  TIP3  H2           -2.1157921739       -6.4556394504       -7.4088882704  CLST         573          1.0000000000
      1720       574  TIP3  OH2          -9.7945003220        0.6803937546        9.5097886434  CLST         574          1.0000000000
      1721       574  TIP3  H1           -9.4917364587        1.5513687032        9.6788927355  CLST         574          1.0000000000
      1722       574  TIP3  H2           -9.2035374704        0.6052137384        8.7634443434  CLST         574          1.0000000000
      1723       575  TIP3  OH2          -3.9947284599       10.8329870047        0.9284164086  CLST         575          1.0000000000
      1724       575  TIP3  H1           -4.0969921980       11.2128208084        0.0683887761  CLST         575          1.0000000000
      1725       575  TIP3  H2           -4.7637506699       11.2735463340        1.3376687603  CLST         575          1.0000000000
      1726       576  TIP3  OH2          -3.5383560950       -2.6736511930        6.3454041741  CLST         576          1.0000000000
      1727       576  TIP3  H1           -3.5730003240       -1.8263526782        5.9001398642  CLST         576          1.0000000000
      1728       576  TIP3  H2           -3.0104828990       -2.9478918849        5.5867658270  CLST         576          1.0000000000
      1729       577  TIP3  OH2         -12.0701957866       11.2914688434        8.5292289507  CLST         577          1.0000000000
      1730       577  TIP3  H1          -11.8728937749       12.2223899884        8.6929112928  CLST         577          1.0000000000
      1731       577  TIP3  H2          -11.7764773370       11.3487190812        7.6494175394  CLST         577          1.0000000000
      1732       578  TIP3  OH2          -1.7568439371        0.9841944820        5.3078717475  CLST         578          1.0000000000
      1733       578  TIP3  H1           -2.5426133576        1.5446493972        5.1845646245  CLST         578          1.0000000000
      1734       578  TIP3  H2           -1.9589099952        0.6751299688        6.1506976859  CLST         578          1.0000000000
      1735       579  TIP3  OH2          -6.5192225919       11.6861075183        1.6590131991  CLST         579          1.0000000000
      1736       579  TIP3  H1           -6.9601309179       12.4855320438        1.3344519333  CLST         579          1.0000000000
      1737       579  TIP3  H2           -7.0714898866       11.1749325335        1.0190517937  CLST         579          1.0000000000
      1738       580  TIP3  OH2          11.1759522389        3.5940162403       -3.4114905154  CLST         580          1.0000000000
      1739       580  TIP3  H1           11.2603664701        2.7441336769       -3.0300622311  CLST         580          1.0000000000
      1740       580  TIP3  H2           11.5790233014        3.9334500040       -2.5700294971  CLST         580          1.0000000000
      1741       581  TIP3  OH2          12.8950920101      -11.8359435797        3.7853744595  CLST         581          1.0000000000
      1742       581  TIP3  H1           12.7975614730      -11.9558990070        2.8491084156  CLST         581          1.0000000000
      1743       581  TIP3  H2           13.7418369940      -12.2347444167        3.8732032596  CLST         581          1.0000000000
      1744       582  TIP3  OH2           6.2358686252       10.7852073441       -6.9854081956  CLST         582          1.0000000000
      1745       582  TIP3  H1            5.4930544101       10.3366041714       -6.6041431232  CLST         582          1.0000000000
      1746       582  TIP3  H2            6.7733723250       10.8889695820       -6.2082022942  CLST         582          1.0000000000
      1747       583  TIP3  OH2          -2.4870117892        4.3791736534      -10.8532605163  CLST         583          1.0000000000
      1748       583  TIP3  H1           -2.9575219185        3.5215725369      -11.0479021591  CLST         583          1.0000000000
      1749       583  TIP3  H2           -1.7371190590        3.8518004212      -11.2248851300  CLST         583          1.0000000000
      1750       584  TIP3  OH2           2.2599576637       -3.8861943027       -9.9476317790  CLST         584          1.0000000000
      1751       584  TIP3  H1            2.8991347883       -4.5174412527      -10.2061930509  CLST         584          1.0000000000
      1752       584  TIP3  H2            2.9030756131       -3.1858952608      -10.1100983158  CLST         584          1.0000000000
      1753       585  TIP3  OH2         -14.0120139232        1.0087528687       -2.0347984918  CLST         585          1.0000000000
      1754       585  TIP3  H1          -13.7600055050        1.8497547824       -2.4735743104  CLST         585          1.0000000000
      1755       585  TIP3  H2          -14.7641656819        0.7817713110       -2.6054077051  CLST         585          1.0000000000
      1756       586  TIP3  OH2          -7.4296872889        8.3752943692       10.5394860141  CLST         586          1.0000000000
      1757       586  TIP3  H1           -6.9941027878        9.1864934766        9.7811063644  CLST         586          1.0000000000
      1758       586  TIP3  H2           -7.2140260524        7.8335881803        9.8867758872  CLST         586          1.0000000000
      1759       587  TIP3  OH2           4.6590112742        4.5176906032       -9.8020820412  CLST         587          1.0000000000
      1760       587  TIP3  H1            3.7883049780        4.5212560766      -10.1429283659  CLST         587          1.0000000000
      1761       587  TIP3  H2            4.9289137651        4.8566466776      -10.7060746298  CLST         587          1.0000000000
      1762       588  TIP3  OH2           4.9456748511       -9.6858888776      -14.1012664498  CLST         588          1.0000000000
      1763       588  TIP3  H1            4.0327464519       -9.7639422192      -14.2888785325  CLST         588          1.0000000000
      1764       588  TIP3  H2            4.7610505564       -9.1486359134      -13.3109004647  CLST         588          1.0000000000
      1765       589  TIP3  OH2           0.4244562333      -14.3136504464        3.1806671268  CLST         589          1.0000000000
      1766       589  TIP3  H1           -0.2956059053      -14.7691051811        2.7703906276  CLST         589          1.0000000000
      1767       589  TIP3  H2           -0.1024833251      -14.1065869444        3.9111142342  CLST         589          1.0000000000
      1768       590  TIP3  OH2           2.4434009819        1.9820670086       -8.2505678479  CLST         590          1.0000000000
      1769       590  TIP3  H1            1.7394709686        2.5518304258       -8.0436241905  CLST         590          1.0000000000
      1770       590  TIP3  H2            2.1195275247        1.9875314754       -9.1425766569  CLST         590          1.0000000000
      1771       591  TIP3  OH2         -12.8761698866        0.8901117500       -6.7494437473  CLST         591          1.0000000000
      1772       591  TIP3  H1          -11.9806274986        1.0265883557       -6.4561692720  CLST         591          1.0000000000
      1773       591  TIP3  H2          -13.1857381896        1.7511159947       -6.5544461260  CLST         591          1.0000000000
      1774       592  TIP3  OH2          -4.2524050864       -3.7582241040       -6.1996614988  CLST         592          1.0000000000
      1775       592  TIP3  H1           -3.5444932258       -3.6600735217       -6.8107018199  CLST         592          1.0000000000
      1776       592  TIP3  H2           -4.7285766234       -4.4315118320       -6.7784254844  CLST         592          1.0000000000
      1777       593  TIP3  OH2          -1.7072281647        5.3170782189       -4.5963097017  CLST         593          1.0000000000
      1778       593  TIP3  H1           -1.7669354923        6.2614932569       -4.5029103119  CLST         593          1.0000000000
      1779       593  TIP3  H2           -0.9888317589        5.3748654219       -5.2436601597  CLST         593          1.0000000000
      1780       594  TIP3  OH2          11.1006522231       10.5964057070       13.4334334152  CLST         594          1.0000000000
      1781       594  TIP3  H1           10.9688092705        9.9629288590       14.5195718622  CLST         594          1.0000000000
      1782       594  TIP3  H2           10.2813269586       10.2701870466       13.8944610930  CLST         594          1.0000000000
      1783       595  TIP3  OH2          -9.2213021097       13.7811018984        4.3810710558  CLST         595          1.0000000000
      1784       595  TIP3  H1           -9.5901468035       14.4633373835        3.8268689962  CLST         595          1.0000000000
      1785       595  TIP3  H2           -9.1901145134       13.2477726975        3.6536343013  CLST         595          1.0000000000
      1786       596  TIP3  OH2         -14.1217405418       -0.6617433838        8.7755417831  CLST         596          1.0000000000
      1787       596  TIP3  H1          -14.1423322556       -1.5111397251        9.1813736319  CLST         596          1.0000000000
      1788       596  TIP3  H2          -13.2830687988       -0.7925642872        8.2985979129  CLST         596          1.0000000000
      1789       597  TIP3  OH2          -2.9779889257       -5.4492454408       -4.2667547142  CLST         597          1.0000000000
      1790       597  TIP3  H1           -2.9132311019       -5.9459912472       -5.0877709274  CLST         597          1.0000000000
      1791       597  TIP3  H2           -2.9057095572       -4.6142158213       -4.7531064449  CLST         597          1.0000000000
      1792       598  TIP3  OH2          -8.1596284790       -9.5142365190       -9.1633555954  CLST         598          1.0000000000
      1793       598  TIP3  H1           -9.0319858688       -9.9079349269       -9.0585962173  CLST         598          1.0000000000
      1794       598  TIP3  H2           -8.4714270689       -9.1526933423      -10.0030011877  CLST         598          1.0000000000
      1795       599  TIP3  OH2          12.1130937903        0.0632899729      -12.9801010847  CLST         599          1.0000000000
      1796       599  TIP3  H1           12.6834496786        0.7584042266      -13.2197228024  CLST         599          1.0000000000
      1797       599  TIP3  H2           12.1232122860       -0.3740671054      -13.8328787241  CLST         599          1.0000000000
      1798       600  TIP3  OH2          14.1512076312       -9.2749707559        1.6181674868  CLST         600          1.0000000000
      1799       600  TIP3  H1           14.7940362742      -10.0392493005        1.6464544068  CLST         600          1.0000000000
      1800       600  TIP3  H2           13.5590712011       -9.8859284600        1.1640408938  CLST         600          1.0000000000
      1801       601  TIP3  OH2          -2.1991949371       13.2847080876       -8.1954340508  CLST         601          1.0000000000
      1802       601  TIP3  H1           -1.4661066079       13.1618136918       -7.5891683821  CLST         601          1.0000000000
      1803       601  TIP3  H2           -1.5388621888       13.5861835058       -8.8260974604  CLST         601          1.0000000000
      1804       602  TIP3  OH2          13.8275547773       -3.1414977324        8.7731941891  CLST         602          1.0000000000
      1805       602  TIP3  H1           13.0537697531       -2.9759091545        8.2774552025  CLST         602          1.0000000000
      1806       602  TIP3  H2           14.2253501398       -3.5627453701        8.0292954843  CLST         602          1.0000000000
      1807       603  TIP3  OH2          -8.2037696816       -9.5873869199      -12.2813988136  CLST         603          1.0000000000
      1808       603  TIP3  H1           -8.9541045247       -9.0277461816      -12.0895260098  CLST         603          1.0000000000
      1809       603  TIP3  H2           -8.6435190283      -10.4715699972      -12.2772467299  CLST         603          1.0000000000
      1810       604  TIP3  OH2           0.1108281748       -7.8836406781       12.2398640712  CLST         604          1.0000000000
      1811       604  TIP3  H1            0.2301638312       -6.9297700568       12.2691069394  CLST         604          1.0000000000
      1812       604  TIP3  H2            1.0108333509       -8.1393230779       12.4407858937  CLST         604          1.0000000000
      1813       605  TIP3  OH2           9.9871250592        8.2214967652        3.7009782329  CLST         605          1.0000000000
      1814       605  TIP3  H1            9.2518320932        8.7430166437        3.3723451807  CLST         605          1.0000000000
      1815       605  TIP3  H2           10.4989365148        8.9955573847        3.9737409721  CLST         605          1.0000000000
      1816       606  TIP3  OH2           0.9898364995        8.7078441304       -6.3265905259  CLST         606          1.0000000000
      1817       606  TIP3  H1            1.4442457845        9.4897028261       -5.9943522227  CLST         606          1.0000000000
      1818       606  TIP3  H2            0.1562639226        9.2219417586       -6.3960124477  CLST         606          1.0000000000
      1819       607  TIP3  OH2          -4.9420559163        1.3685682068      -14.1542709135  CLST         607          1.0000000000
      1820       607  TIP3  H1           -5.9007490404        1.7200512564      -13.9303002534  CLST         607          1.0000000000
      1821       607  TIP3  H2           -5.6998589033        1.1670903841      -15.0160403522  CLST         607          1.0000000000
      1822       608  TIP3  OH2          -2.4668991795       -0.4298068495      -11.5215584991  CLST         608          1.0000000000
      1823       608  TIP3  H1           -1.6117449383       -0.2030290121      -11.3521313631  CLST         608          1.0000000000
      1824       608  TIP3  H2           -2.4081683023        0.1186883058      -12.2884130866  CLST         608          1.0000000000
      1825       609  TIP3  OH2           3.7280593960        8.1045791762        2.9558833236  CLST         609          1.0000000000
      1826       609  TIP3  H1            4.2571545955        8.1772584290        3.7773083969  CLST         609          1.0000000000
      1827       609  TIP3  H2            4.2952140542        7.4294506462        2.7069024625  CLST         609          1.0000000000
      1828       610  TIP3  OH2          -7.7958583746       -9.0650012679       11.6530257250  CLST         610          1.0000000000
      1829       610  TIP3  H1           -7.6092779549       -9.8976356831       11.1651533745  CLST         610          1.0000000000
      1830       610  TIP3  H2           -6.8434698277       -8.9110842632       11.6036027849  CLST         610          1.0000000000
      1831       611  TIP3  OH2          14.0476275730       -4.2324361984        6.3338701198  CLST         611          1.0000000000
      1832       611  TIP3  H1           14.4101724389       -4.9113997739        5.6860990949  CLST         611          1.0000000000
      1833       611  TIP3  H2           14.3434078331       -3.5731477204        5.6962981645  CLST         611          1.0000000000
      1834       612  TIP3  OH2          -8.9973921639      -10.6651487823        6.1071033342  CLST         612          1.0000000000
      1835       612  TIP3  H1           -8.1633361999      -10.3473721808        5.7025828910  CLST         612          1.0000000000
      1836       612  TIP3  H2           -9.5438483263      -10.0108428679        5.7040150486  CLST         612          1.0000000000
      1837       613  TIP3  OH2           2.5732984731       -2.1992064094       14.4057985544  CLST         613          1.0000000000
      1838       613  TIP3  H1            2.4625157748       -3.1265318210       14.3049375333  CLST         613          1.0000000000
      1839       613  TIP3  H2            1.8210212190       -1.9566786481       13.8582708841  CLST         613          1.0000000000
      1840       614  TIP3  OH2           1.0347172029        4.5471156444       -9.0940085532  CLST         614          1.0000000000
      1841       614  TIP3  H1            1.6249558188        4.5350609682       -8.3819251906  CLST         614          1.0000000000
      1842       614  TIP3  H2            0.9419549874        5.4928669154       -9.0424605637  CLST         614          1.0000000000
      1843       615  TIP3  OH2           1.2392858490        4.5033678428        7.1529575846  CLST         615          1.0000000000
      1844       615  TIP3  H1            1.8115184604        5.0058483826        7.6878362527  CLST         615          1.0000000000
      1845       615  TIP3  H2            1.6453060522        4.7248913270        6.3330807625  CLST         615          1.0000000000
      1846       616  TIP3  OH2          -7.7316649495        4.2972340313       -7.3210374900  CLST         616          1.0000000000
      1847       616  TIP3  H1           -8.3044227226        4.3435712865       -8.0923090838  CLST         616          1.0000000000
      1848       616  TIP3  H2           -7.1610547117        4.8077946953       -7.8252199770  CLST         616          1.0000000000
      1849       617  TIP3  OH2          14.7884809166        2.1343796043       12.0329272511  CLST         617          1.0000000000
      1850       617  TIP3  H1           14.5170302300        1.2078817030       12.0666158405  CLST         617          1.0000000000
      1851       617  TIP3  H2           13.8240348320        2.2988794150       12.1427138066  CLST         617          1.0000000000
      1852       618  TIP3  OH2          -7.0088218119        3.2411177083        2.6849432824  CLST         618          1.0000000000
      1853       618  TIP3  H1           -6.4499862663        3.9075986083        2.3161141934  CLST         618          1.0000000000
      1854       618  TIP3  H2           -6.8160813229        3.4775869804        3.5752767003  CLST         618          1.0000000000
      1855       619  TIP3  OH2           1.4074430690        5.3523008370       -2.3228458832  CLST         619          1.0000000000
      1856       619  TIP3  H1            0.6028529172        4.8086054936       -2.2585714478  CLST         619          1.0000000000
      1857       619  TIP3  H2            0.8248319958        6.0260962167       -2.7626053055  CLST         619          1.0000000000
      1858       620  TIP3  OH2          -3.4451391956        8.4975401895       -5.8729099250  CLST         620          1.0000000000
      1859       620  TIP3  H1           -3.7301463631        7.9475145155       -5.1904838849  CLST         620          1.0000000000
      1860       620  TIP3  H2           -3.8665746083        8.0322091520       -6.6170396841  CLST         620          1.0000000000
      1861       621  TIP3  OH2           0.9341991950        7.3988183024       -8.6476286125  CLST         621          1.0000000000
      1862       621  TIP3  H1            1.1872412439        7.9512274515       -7.8992617459  CLST         621          1.0000000000
      1863       621  TIP3  H2            0.8192668355        8.1577542552       -9.2737175336  CLST         621          1.0000000000
      1864       622  TIP3  OH2           1.9599319293       10.5255379012        4.0132197084  CLST         622          1.0000000000
      1865       622  TIP3  H1            2.6165149143       10.6590580981        4.6427388791  CLST         622          1.0000000000
      1866       622  TIP3  H2            1.4284442224        9.9502969649        4.5789988933  CLST         622          1.0000000000
      1867       623  TIP3  OH2          -0.0820068747       12.2922017697        2.5918871665  CLST         623          1.0000000000
      1868       623  TIP3  H1            0.3874679796       12.2846604726        1.7841703300  CLST         623          1.0000000000
      1869       623  TIP3  H2            0.6214000008       11.8490795567        3.0108751081  CLST         623          1.0000000000
      1870       624  TIP3  OH2          -8.9982057487       -1.6770679230       -3.9134662312  CLST         624          1.0000000000
      1871       624  TIP3  H1           -8.7633342246       -1.1658605292       -4.7684539151  CLST         624          1.0000000000
      1872       624  TIP3  H2           -9.8032150731       -1.0927764834       -4.0517659358  CLST         624          1.0000000000
      1873       625  TIP3  OH2          -9.6157008681      -13.1344679189       -9.1124619358  CLST         625          1.0000000000
      1874       625  TIP3  H1          -10.0877257294      -12.6874059151       -8.4503136993  CLST         625          1.0000000000
      1875       625  TIP3  H2           -9.0373761580      -13.6259852136       -8.5088543590  CLST         625          1.0000000000
      1876       626  TIP3  OH2          13.3621366425       -5.6166947219       -2.7399539645  CLST         626          1.0000000000
      1877       626  TIP3  H1           12.9546229768       -6.3016731132       -3.2066123012  CLST         626          1.0000000000
      1878       626  TIP3  H2           13.9484539588       -5.4525507421       -3.5175449340  CLST         626          1.0000000000
      1879       627  TIP3  OH2          -0.9634108586      -11.3535789006        7.8454174313  CLST         627          1.0000000000
      1880       627  TIP3  H1           -0.0925103723      -11.4946890496        8.1668285680  CLST         627          1.0000000000
      1881       627  TIP3  H2           -1.1848819983      -12.2577165224        7.9440235774  CLST         627          1.0000000000
      1882       628  TIP3  OH2           7.0911403335        8.7988003099       -8.9790790658  CLST         628          1.0000000000
      1883       628  TIP3  H1            7.0227702540        9.5941756150       -9.4391918231  CLST         628          1.0000000000
      1884       628  TIP3  H2            6.9524678202        9.2775199744       -8.1710593234  CLST         628          1.0000000000
      1885       629  TIP3  OH2          -9.8037196635       -0.2648421215       -9.8844931326  CLST         629          1.0000000000
      1886       629  TIP3  H1           -8.9547046956        0.1693101923      -10.1444051219  CLST         629          1.0000000000
      1887       629  TIP3  H2           -9.3936432521       -1.1069787219       -9.9854742044  CLST         629          1.0000000000
      1888       630  TIP3  OH2          11.7120608815       12.2991567788       11.5813667007  CLST         630          1.0000000000
      1889       630  TIP3  H1           11.0686490039       12.8994604756       11.2546656693  CLST         630          1.0000000000
      1890       630  TIP3  H2           11.0967637454       11.9023317973       12.1638925635  CLST         630          1.0000000000
      1891       631  TIP3  OH2         -12.2284362936      -11.3785588269      -11.5947818683  CLST         631          1.0000000000
      1892       631  TIP3  H1          -12.3196771178      -11.1566521178      -12.4882412541  CLST         631          1.0000000000
      1893       631  TIP3  H2          -12.9081245332      -12.0473304944      -11.5992429012  CLST         631          1.0000000000
      1894       632  TIP3  OH2          11.0203666519        2.0714759989        9.3880801464  CLST         632          1.0000000000
      1895       632  TIP3  H1           11.8907992664        1.7334374028        9.4145028649  CLST         632          1.0000000000
      1896       632  TIP3  H2           10.8727573380        1.4530586487        8.6476785827  CLST         632          1.0000000000
      1897       633  TIP3  OH2          -4.5266048192        6.4347069564       10.4933178818  CLST         633          1.0000000000
      1898       633  TIP3  H1           -4.2550173071        5.4968234476       10.4328833935  CLST         633          1.0000000000
      1899       633  TIP3  H2           -5.4563504114        6.2519867490       10.2349736069  CLST         633          1.0000000000
      1900       634  TIP3  OH2          -2.4527630163       -7.1027862303        6.8463979300  CLST         634          1.0000000000
      1901       634  TIP3  H1           -2.3111157975       -7.9902090343        7.1439540631  CLST         634          1.0000000000
      1902       634  TIP3  H2           -1.8998636609       -6.6594609399        7.4407549342  CLST         634          1.0000000000
      1903       635  TIP3  OH2           2.7306101008        2.7194512794       -2.3103146477  CLST         635          1.0000000000
      1904       635  TIP3  H1            2.3905300002        3.5687417713       -2.4293178705  CLST         635          1.0000000000
      1905       635  TIP3  H2            2.4532914001        2.4592405264       -3.1927413142  CLST         635          1.0000000000
      1906       636  TIP3  OH2           4.9668645355       -2.5383754341      -10.1890978324  CLST         636          1.0000000000
      1907       636  TIP3  H1            4.6914849897       -1.9693734784      -10.8944990276  CLST         636          1.0000000000
      1908       636  TIP3  H2            5.0434850107       -1.7805950647       -9.6263317247  CLST         636          1.0000000000
      1909       637  TIP3  OH2           3.6307594392       11.2028813877      -10.6745912861  CLST         637          1.0000000000
      1910       637  TIP3  H1            4.5312801381       11.3652875270      -10.3566616153  CLST         637          1.0000000000
      1911       637  TIP3  H2            3.5168192339       10.9458263077       -9.7348324069  CLST         637          1.0000000000
      1912       638  TIP3  OH2           8.9410077323      -12.3161011550       -7.2118309846  CLST         638          1.0000000000
      1913       638  TIP3  H1            8.5368401115      -12.6682104438       -7.9744955691  CLST         638          1.0000000000
      1914       638  TIP3  H2            9.6116002322      -11.8808094202       -7.7574679776  CLST         638          1.0000000000
      1915       639  TIP3  OH2           7.4312235577      -13.5553800514       -9.1772317337  CLST         639          1.0000000000
      1916       639  TIP3  H1            6.4958921926      -13.5845859056       -8.9601804977  CLST         639          1.0000000000
      1917       639  TIP3  H2            7.4567647376      -14.5165389887       -9.1568601684  CLST         639          1.0000000000
      1918       640  TIP3  OH2         -10.0267195530       -3.1450972449      -10.1246025672  CLST         640          1.0000000000
      1919       640  TIP3  H1           -9.3319443872       -3.1781823762       -9.4913624893  CLST         640          1.0000000000
      1920       640  TIP3  H2          -10.6668207122       -3.1176847122       -9.3988576499  CLST         640          1.0000000000
      1921       641  TIP3  OH2         -13.8950095985       -2.7157774765      -13.3593000623  CLST         641          1.0000000000
      1922       641  TIP3  H1          -13.3578983749       -3.7647049282      -13.3973262653  CLST         641          1.0000000000
      1923       641  TIP3  H2          -12.8461593435       -3.0340830800      -13.0208655417  CLST         641          1.0000000000
      1924       642  TIP3  OH2          -1.9304203069        1.6836555658       11.0392796139  CLST         642          1.0000000000
      1925       642  TIP3  H1           -1.3080354952        1.6071089680       11.7740098767  CLST         642          1.0000000000
      1926       642  TIP3  H2           -2.6813569552        1.4554350262       11.5729787904  CLST         642          1.0000000000
      1927       643  TIP3  OH2         -14.0673183026       -2.9081927252        3.6383151539  CLST         643          1.0000000000
      1928       643  TIP3  H1          -13.3919236118       -2.5412594330        4.2053869661  CLST         643          1.0000000000
      1929       643  TIP3  H2          -14.7645333918       -2.3135871392        3.9305670001  CLST         643          1.0000000000
      1930       644  TIP3  OH2          12.7441214604       -2.8785698220        1.0844575703  CLST         644          1.0000000000
      1931       644  TIP3  H1           13.4079695357       -2.2370547481        1.3095791343  CLST         644          1.0000000000
      1932       644  TIP3  H2           13.3069381895       -3.6528287839        0.8365084939  CLST         644          1.0000000000
      1933       645  TIP3  OH2          -6.7903544777        6.2971748592        9.0744386834  CLST         645          1.0000000000
      1934       645  TIP3  H1           -7.2912391257        6.5238265047        8.2987532696  CLST         645          1.0000000000
      1935       645  TIP3  H2           -6.6112430907        5.3888235165        8.6503657069  CLST         645          1.0000000000
      1936       646  TIP3  OH2           7.1260064853      -11.3818779693       11.9825862039  CLST         646          1.0000000000
      1937       646  TIP3  H1            6.4739114610      -11.4233112423       11.2688493395  CLST         646          1.0000000000
      1938       646  TIP3  H2            7.1282674596      -12.3498530874       12.1282516147  CLST         646          1.0000000000
      1939       647  TIP3  OH2         -13.1913004713       -9.2266788409       -7.4933252643  CLST         647          1.0000000000
      1940       647  TIP3  H1          -13.7108060825       -9.3602723745       -6.7164733232  CLST         647          1.0000000000
      1941       647  TIP3  H2          -12.4298557661       -9.4260439169       -7.0093607147  CLST         647          1.0000000000
      1942       648  TIP3  OH2         -13.8465625248        3.3989789240       -6.2811490560  CLST         648          1.0000000000
      1943       648  TIP3  H1          -14.7764179231        3.6696520234       -6.1934723986  CLST         648          1.0000000000
      1944       648  TIP3  H2          -13.8649163269        3.1414496819       -5.2791043903  CLST         648          1.0000000000
      1945       649  TIP3  OH2          -1.6517503648       -3.4825042813       -7.3383021983  CLST         649          1.0000000000
      1946       649  TIP3  H1           -0.7828192752       -3.0698023037       -7.1790428548  CLST         649          1.0000000000
      1947       649  TIP3  H2           -1.1848241158       -4.0891832276       -7.9393068312  CLST         649          1.0000000000
      1948       650  TIP3  OH2          -4.3113637305       -3.4118842083      -11.9155722653  CLST         650          1.0000000000
      1949       650  TIP3  H1           -3.4134587953       -3.5332346757      -11.6469751933  CLST         650          1.0000000000
      1950       650  TIP3  H2           -4.1685255268       -2.4767119376      -11.6403368977  CLST         650          1.0000000000
      1951       651  TIP3  OH2           0.9854905490       -4.2705113097       14.1777745398  CLST         651          1.0000000000
      1952       651  TIP3  H1            0.2130973854       -4.8444915854       14.0954934154  CLST         651          1.0000000000
      1953       651  TIP3  H2            0.9852338204       -4.0700222869       15.0933349557  CLST         651          1.0000000000
      1954       652  TIP3  OH2           2.2347929839       -9.0669131607       10.0833494634  CLST         652          1.0000000000
      1955       652  TIP3  H1            2.5934310089       -8.4751449641       10.7641490395  CLST         652          1.0000000000
      1956       652  TIP3  H2            2.2614456484       -8.2741373378        9.5133509402  CLST         652          1.0000000000
      1957       653  TIP3  OH2          13.3956968949        0.9072715628       -2.4965624673  CLST         653          1.0000000000
      1958       653  TIP3  H1           12.4874530192        0.8827834539       -2.5831378506  CLST         653          1.0000000000
      1959       653  TIP3  H2           13.3160471517        1.1717919382       -3.5812714557  CLST         653          1.0000000000
      1960       654  TIP3  OH2          -5.8293563180        9.0694026207       13.0150648205  CLST         654          1.0000000000
      1961       654  TIP3  H1           -5.0024078907        9.2567843217       13.5544961341  CLST         654          1.0000000000
      1962       654  TIP3  H2           -5.4209975396        8.6064873287       12.3231074627  CLST         654          1.0000000000
      1963       655  TIP3  OH2          -4.1862501835        1.3212675158       12.6402842484  CLST         655          1.0000000000
      1964       655  TIP3  H1           -3.9867586949        0.3651121165       12.4413608562  CLST         655          1.0000000000
      1965       655  TIP3  H2           -5.0458935563        1.0471195570       12.9616305531  CLST         655          1.0000000000
      1966       656  TIP3  OH2         -14.2048285274       -4.4023464932      -10.7151281029  CLST         656          1.0000000000
      1967       656  TIP3  H1          -15.0933349557       -4.1786495452      -11.0220443791  CLST         656          1.0000000000
      1968       656  TIP3  H2          -14.0798458889       -5.0612444938      -11.3379858500  CLST         656          1.0000000000
      1969       657  TIP3  OH2           4.5101120779       -0.8507393805        5.4095591418  CLST         657          1.0000000000
      1970       657  TIP3  H1            5.1193865072       -0.3627270366        5.9747502877  CLST         657          1.0000000000
      1971       657  TIP3  H2            3.7807384141       -0.2346463653        5.3566647611  CLST         657          1.0000000000
      1972       658  TIP3  OH2         -14.0189742088       -7.2293746212       -4.7745176436  CLST         658          1.0000000000
      1973       658  TIP3  H1          -14.0036454012       -6.4690039530       -5.3606328942  CLST         658          1.0000000000
      1974       658  TIP3  H2          -14.9236126187       -7.4120805889       -5.0684103334  CLST         658          1.0000000000
      1975       659  TIP3  OH2           9.2963393118      -13.2412107724        9.8694036166  CLST         659          1.0000000000
      1976       659  TIP3  H1            8.8144129659      -12.6792607670        9.2467903417  CLST         659          1.0000000000
      1977       659  TIP3  H2            8.4653886160      -13.7487436018       10.0227036833  CLST         659          1.0000000000
      1978       660  TIP3  OH2         -14.6259743616       -8.9751688211        6.5725529077  CLST         660          1.0000000000
      1979       660  TIP3  H1          -15.0933349557       -9.6643335959        7.0791187928  CLST         660          1.0000000000
      1980       660  TIP3  H2          -13.8365197088       -8.8839002311        7.1257229330  CLST         660          1.0000000000
      1981       661  TIP3  OH2           3.0121610366        1.1871245120       -4.6538915575  CLST         661          1.0000000000
      1982       661  TIP3  H1            2.1918749572        1.6618745382       -4.8890116896  CLST         661          1.0000000000
      1983       661  TIP3  H2            2.7122086873        0.3248864352       -4.9381399825  CLST         661          1.0000000000
      1984       662  TIP3  OH2          -8.7150321434       -5.0994502547        1.1428755258  CLST         662          1.0000000000
      1985       662  TIP3  H1           -9.2497251093       -5.5738800235        0.4981862324  CLST         662          1.0000000000
      1986       662  TIP3  H2           -9.1203711635       -4.2333056494        1.0638731472  CLST         662          1.0000000000
      1987       663  TIP3  OH2           6.1944013331       -2.0503091032        3.4468885545  CLST         663          1.0000000000
      1988       663  TIP3  H1            5.9397259846       -1.7931087766        4.3160407968  CLST         663          1.0000000000
      1989       663  TIP3  H2            5.7655857976       -2.9286294418        3.4843993372  CLST         663          1.0000000000
      1990       664  TIP3  OH2          10.2988784312      -14.4067555944        2.6039457622  CLST         664          1.0000000000
      1991       664  TIP3  H1           10.2898846452      -13.6528745856        3.1463425015  CLST         664          1.0000000000
      1992       664  TIP3  H2           10.1636395069      -14.9245498366        3.3399619986  CLST         664          1.0000000000
      1993       665  TIP3  OH2           9.7394889560       10.3571887306      -14.0931550915  CLST         665          1.0000000000
      1994       665  TIP3  H1            9.0343559310        9.5099657878      -14.4522618905  CLST         665          1.0000000000
      1995       665  TIP3  H2            9.0065468323       10.6088021539      -14.7140878441  CLST         665          1.0000000000
      1996       666  TIP3  OH2         -11.4129512310       -7.4946175542       -9.0063497580  CLST         666          1.0000000000
      1997       666  TIP3  H1          -11.3594829139       -7.0793281483       -8.1344203463  CLST         666          1.0000000000
      1998       666  TIP3  H2          -12.2612099702       -7.8584258696       -8.7611218180  CLST         666          1.0000000000
      1999       667  TIP3  OH2         -11.0308105372        5.5037888820        7.7399339563  CLST         667          1.0000000000
      2000       667  TIP3  H1          -11.2469432653        4.6672567538        8.1633265593  CLST         667          1.0000000000
      2001       667  TIP3  H2          -10.9164286070        5.9374809025        8.5472913435  CLST         667          1.0000000000
      2002       668  TIP3  OH2         -12.6666213306       -0.0512759136        0.1526162004  CLST         668          1.0000000000
      2003       668  TIP3  H1          -13.0246453546        0.5010454785        0.8475545297  CLST         668          1.0000000000
      2004       668  TIP3  H2          -13.4188752069        0.2596548056       -0.3908043717  CLST         668          1.0000000000
      2005       669  TIP3  OH2          -3.6421564104      -11.5080701315        5.0278369772  CLST         669          1.0000000000
      2006       669  TIP3  H1           -3.6543577732      -12.2342549502        4.3674637724  CLST         669          1.0000000000
      2007       669  TIP3  H2           -3.6098243378      -10.7280440781        4.5033912327  CLST         669          1.0000000000
      2008       670  TIP3  OH2          -6.3176787335       -2.2698475593        1.2336422927  CLST         670          1.0000000000
      2009       670  TIP3  H1           -7.1131316730       -1.8016960059        1.3888522681  CLST         670          1.0000000000
      2010       670  TIP3  H2           -6.2465639160       -1.9691819577        0.3242682693  CLST         670          1.0000000000
      2011       671  TIP3  OH2           3.9386527045       -9.4814992086      -10.9329649581  CLST         671          1.0000000000
      2012       671  TIP3  H1            3.6475046649       -9.0328915947      -10.1224922909  CLST         671          1.0000000000
      2013       671  TIP3  H2            4.7504020752       -8.9850402537      -11.0636331614  CLST         671          1.0000000000
      2014       672  TIP3  OH2          12.0691161864      -12.6388461210        9.1000175896  CLST         672          1.0000000000
      2015       672  TIP3  H1           11.1950857139      -12.9511621771        9.4063867861  CLST         672          1.0000000000
      2016       672  TIP3  H2           12.5459408887      -12.9690843554        9.8598515903  CLST         672          1.0000000000
      2017       673  TIP3  OH2           6.9180161821       -4.4086351305        6.7171711274  CLST         673          1.0000000000
      2018       673  TIP3  H1            7.6565643541       -3.8293939241        6.4697231893  CLST         673          1.0000000000
      2019       673  TIP3  H2            7.4332334365       -4.7462325024        7.4319543486  CLST         673          1.0000000000
      2020       674  TIP3  OH2          -4.2301134184       -0.7711188236        2.9302573730  CLST         674          1.0000000000
      2021       674  TIP3  H1           -3.5749725155       -1.5589297219        3.3483869633  CLST         674          1.0000000000
      2022       674  TIP3  H2           -3.8301871705       -1.2239797919        2.3728192327  CLST         674          1.0000000000
      2023       675  TIP3  OH2          -9.5778273835        2.3634219089       -3.3189206809  CLST         675          1.0000000000
      2024       675  TIP3  H1           -8.8217029157        1.9081977420       -2.8283740999  CLST         675          1.0000000000
      2025       675  TIP3  H2          -10.0473309803        1.7505741173       -2.6139206703  CLST         675          1.0000000000
      2026       676  TIP3  OH2         -13.6809939034       -0.0177914773      -13.6962266177  CLST         676          1.0000000000
      2027       676  TIP3  H1          -13.6314012596       -0.7897917165      -13.4393614048  CLST         676          1.0000000000
      2028       676  TIP3  H2          -13.2728563048       -0.2820179109      -12.6869010180  CLST         676          1.0000000000
      2029       677  TIP3  OH2           1.6980009434      -12.0099758989        2.3548205023  CLST         677          1.0000000000
      2030       677  TIP3  H1            2.0050524748      -12.0012555910        1.4195070060  CLST         677          1.0000000000
      2031       677  TIP3  H2            1.4688842808      -12.9131046052        2.3540112744  CLST         677          1.0000000000
      2032       678  TIP3  OH2          11.4014066416       -7.0043196251       -8.3983657186  CLST         678          1.0000000000
      2033       678  TIP3  H1           12.2946865536       -7.3656428837       -8.5020231147  CLST         678          1.0000000000
      2034       678  TIP3  H2           11.7434183670       -6.2219691369       -8.7833735915  CLST         678          1.0000000000
      2035       679  TIP3  OH2           7.5236957704       -9.8789627753      -14.2856651320  CLST         679          1.0000000000
      2036       679  TIP3  H1            7.1359841883       -9.1258786896      -14.6757327088  CLST         679          1.0000000000
      2037       679  TIP3  H2            6.7200254258      -10.3113460406      -14.5893642393  CLST         679          1.0000000000
      2038       680  TIP3  OH2           9.9030802290       -8.2949112889       -1.6696392654  CLST         680          1.0000000000
      2039       680  TIP3  H1            9.8825317275       -9.2938120736       -1.6466161724  CLST         680          1.0000000000
      2040       680  TIP3  H2            9.5453955110       -8.2781375484       -2.5736702640  CLST         680          1.0000000000
      2041       681  TIP3  OH2           7.5226568159        9.3728378167       11.2120128660  CLST         681          1.0000000000
      2042       681  TIP3  H1            7.4082086414        8.4973018140       10.8355835988  CLST         681          1.0000000000
      2043       681  TIP3  H2            8.3922662371        9.4350278793       10.7466875741  CLST         681          1.0000000000
      2044       682  TIP3  OH2           8.0114988528       14.0754636436        1.7346474743  CLST         682          1.0000000000
      2045       682  TIP3  H1            7.3415193585       13.7932219845        1.0973282824  CLST         682          1.0000000000
      2046       682  TIP3  H2            7.5301000309       14.6649835583        2.3020249154  CLST         682          1.0000000000
      2047       683  TIP3  OH2           3.4090153934       11.5767500309      -15.0933349557  CLST         683          1.0000000000
      2048       683  TIP3  H1            3.1382870403       11.8141111975      -14.2396382459  CLST         683          1.0000000000
      2049       683  TIP3  H2            3.3323216898       10.6122292772      -14.9566188773  CLST         683          1.0000000000
      2050       684  TIP3  OH2          12.6710486107        2.8131996702      -12.3910056470  CLST         684          1.0000000000
      2051       684  TIP3  H1           12.1597093571        2.1139699217      -11.9416660341  CLST         684          1.0000000000
      2052       684  TIP3  H2           12.8265124854        3.1303525675      -11.4493260960  CLST         684          1.0000000000
      2053       685  TIP3  OH2           3.8514627357       13.4332567854        2.2172000880  CLST         685          1.0000000000
      2054       685  TIP3  H1            4.0946707896       12.5099891397        1.9691299290  CLST         685          1.0000000000
      2055       685  TIP3  H2            3.2073532508       13.3802796206        1.4744840083  CLST         685          1.0000000000
      2056       686  TIP3  OH2          -1.9228299865      -11.7548587429       -5.5421013495  CLST         686          1.0000000000
      2057       686  TIP3  H1           -1.7331924161      -12.0178497183       -4.6830342587  CLST         686          1.0000000000
      2058       686  TIP3  H2           -2.5732334520      -12.4810089767       -5.7675109914  CLST         686          1.0000000000
      2059       687  TIP3  OH2           2.1850272088       11.0739158698       -5.5348923068  CLST         687          1.0000000000
      2060       687  TIP3  H1            2.0742109656       11.1052823701       -4.5771555462  CLST         687          1.0000000000
      2061       687  TIP3  H2            2.9398165320       11.6390398308       -5.3955252810  CLST         687          1.0000000000
      2062       688  TIP3  OH2          -4.8177550464       -1.0118149536      -10.3086910386  CLST         688          1.0000000000
      2063       688  TIP3  H1           -4.4115817465       -1.1007349826       -9.4843534774  CLST         688          1.0000000000
      2064       688  TIP3  H2           -4.0331312744       -0.4696665864      -10.6026755200  CLST         688          1.0000000000
      2065       689  TIP3  OH2         -11.7157256674       -2.5728050507       -7.5035675588  CLST         689          1.0000000000
      2066       689  TIP3  H1          -12.3781892240       -2.2087674768       -6.8397438193  CLST         689          1.0000000000
      2067       689  TIP3  H2          -12.2001934923       -2.1984238154       -8.2433484087  CLST         689          1.0000000000
      2068       690  TIP3  OH2           9.1848993055      -12.4942131222        4.0037495227  CLST         690          1.0000000000
      2069       690  TIP3  H1            9.8139086102      -12.4703156245        4.7962482697  CLST         690          1.0000000000
      2070       690  TIP3  H2            9.6335844966      -11.7102659368        3.6384130809  CLST         690          1.0000000000
      2071       691  TIP3  OH2          -0.7921494756       10.1707891313       13.6496584795  CLST         691          1.0000000000
      2072       691  TIP3  H1           -0.3248492326       11.0112578756       13.6279473356  CLST         691          1.0000000000
      2073       691  TIP3  H2           -0.2587335992        9.9597126582       14.3973100638  CLST         691          1.0000000000
      2074       692  TIP3  OH2           1.6165894395       -6.7579773355        8.7852261386  CLST         692          1.0000000000
      2075       692  TIP3  H1            0.6604488324       -6.5486081536        8.9156292455  CLST         692          1.0000000000
      2076       692  TIP3  H2            1.7020105473       -5.7618781460        8.8983729002  CLST         692          1.0000000000
      2077       693  TIP3  OH2          -9.3529504946       -4.2442851685       -2.8798146861  CLST         693          1.0000000000
      2078       693  TIP3  H1           -8.5869275294       -4.3169632435       -2.2944138853  CLST         693          1.0000000000
      2079       693  TIP3  H2           -9.0677740557       -3.4091528272       -3.2403097930  CLST         693          1.0000000000
      2080       694  TIP3  OH2          -1.7065742936       11.6560694967        5.6736537887  CLST         694          1.0000000000
      2081       694  TIP3  H1           -2.2915731828       12.3818573200        5.4718202424  CLST         694          1.0000000000
      2082       694  TIP3  H2           -0.9057799933       12.1516092296        5.4761592829  CLST         694          1.0000000000
      2083       695  TIP3  OH2           1.7610667081       10.5734970193        7.7074305160  CLST         695          1.0000000000
      2084       695  TIP3  H1            1.1050263217       10.3153285598        7.0369570985  CLST         695          1.0000000000
      2085       695  TIP3  H2            1.3283130575       10.0524733440        8.3589664058  CLST         695          1.0000000000
      2086       696  TIP3  OH2          -4.2502500031        3.1412467726       -6.1108738012  CLST         696          1.0000000000
      2087       696  TIP3  H1           -3.8091989201        3.9381722081       -6.3808644244  CLST         696          1.0000000000
      2088       696  TIP3  H2           -4.4105999731        3.7016519996       -5.2881448783  CLST         696          1.0000000000
      2089       697  TIP3  OH2           2.7080390030        5.6238063060       11.8545369984  CLST         697          1.0000000000
      2090       697  TIP3  H1            2.2177714697        5.4308085566       11.0726260319  CLST         697          1.0000000000
      2091       697  TIP3  H2            3.4989881686        5.2199923035       11.4384450823  CLST         697          1.0000000000
      2092       698  TIP3  OH2          -3.5051277768        5.0519991107       -1.0441843062  CLST         698          1.0000000000
      2093       698  TIP3  H1           -3.8877547366        3.9053434502       -1.1533492139  CLST         698          1.0000000000
      2094       698  TIP3  H2           -4.3505648458        4.8184523030       -1.2487405891  CLST         698          1.0000000000
      2095       699  TIP3  OH2          -1.3366431434       -4.4973937020        3.5341863493  CLST         699          1.0000000000
      2096       699  TIP3  H1           -2.2447701100       -4.3104283073        3.4452984384  CLST         699          1.0000000000
      2097       699  TIP3  H2           -1.3025772346       -4.7241895696        2.5722660003  CLST         699          1.0000000000
      2098       700  TIP3  OH2          -5.1121766123       -8.2382897647        8.9640921570  CLST         700          1.0000000000
      2099       700  TIP3  H1           -5.0962117983       -7.5569399788        8.2169696057  CLST         700          1.0000000000
      2100       700  TIP3  H2           -4.3213412332       -8.6893813310        8.7292391553  CLST         700          1.0000000000
      2101       701  TIP3  OH2         -14.1811639370       10.3415615117        0.2170365720  CLST         701          1.0000000000
      2102       701  TIP3  H1          -13.8530182079        9.6786738677       -0.4838244499  CLST         701          1.0000000000
      2103       701  TIP3  H2          -15.0933349557       10.3326656641        0.0360377819  CLST         701          1.0000000000
      2104       702  TIP3  OH2          -5.4491070956       -9.5268040465      -12.5486771052  CLST         702          1.0000000000
      2105       702  TIP3  H1           -5.4307463509       -9.6896041876      -11.5675221829  CLST         702          1.0000000000
      2106       702  TIP3  H2           -6.4359524835       -9.6430736664      -12.4889214652  CLST         702          1.0000000000
      2107       703  TIP3  OH2           3.7272638609        6.0525344568       -4.4183587304  CLST         703          1.0000000000
      2108       703  TIP3  H1            2.8543575580        5.8276427175       -3.9560359359  CLST         703          1.0000000000
      2109       703  TIP3  H2            3.3163887390        6.9169295457       -4.0925726139  CLST         703          1.0000000000
      2110       704  TIP3  OH2         -10.0874450613        5.0461572823       11.8094968127  CLST         704          1.0000000000
      2111       704  TIP3  H1          -10.3150833128        5.6705731945       12.5460732087  CLST         704          1.0000000000
      2112       704  TIP3  H2           -9.9177341188        5.8102191995       11.2845941991  CLST         704          1.0000000000
      2113       705  TIP3  OH2          -0.7647284125       -9.0333833353       -7.0997698485  CLST         705          1.0000000000
      2114       705  TIP3  H1           -0.7245321788       -9.8943285713       -7.5247967689  CLST         705          1.0000000000
      2115       705  TIP3  H2           -0.3849011456       -8.5971249881       -7.8686249600  CLST         705          1.0000000000
      2116       706  TIP3  OH2          -1.9256584703       -1.7067884045        4.4478142976  CLST         706          1.0000000000
      2117       706  TIP3  H1           -1.4934529388       -1.0771323028        5.0227853457  CLST         706          1.0000000000
      2118       706  TIP3  H2           -1.0797943718       -2.1506488955        4.3598509502  CLST         706          1.0000000000
      2119       707  TIP3  OH2           8.7251497789       11.0466094249        7.3754596231  CLST         707          1.0000000000
      2120       707  TIP3  H1            8.2016714598       11.0837704584        6.4137408706  CLST         707          1.0000000000
      2121       707  TIP3  H2            8.0126454572       10.5267445369        7.1991424016  CLST         707          1.0000000000
      2122       708  TIP3  OH2          -0.8968990464       -7.7823029219      -12.5755338141  CLST         708          1.0000000000
      2123       708  TIP3  H1           -1.7206207095       -7.9867098619      -12.9711917293  CLST         708          1.0000000000
      2124       708  TIP3  H2           -0.7085260587       -7.1975796729      -13.2899052759  CLST         708          1.0000000000
      2125       709  TIP3  OH2          -6.3680066315       14.4829472650        0.4841316079  CLST         709          1.0000000000
      2126       709  TIP3  H1           -5.5904027182       14.0327522245        0.8671283866  CLST         709          1.0000000000
      2127       709  TIP3  H2           -6.5408662753       14.6954254246        1.4293909458  CLST         709          1.0000000000
      2128       710  TIP3  OH2          -0.7633922235       14.2485600659      -10.8179036605  CLST         710          1.0000000000
      2129       710  TIP3  H1           -0.2337656796       14.2250922789      -11.5828255066  CLST         710          1.0000000000
      2130       710  TIP3  H2           -1.0432766177       13.3438354981      -10.9936915934  CLST         710          1.0000000000
      2131       711  TIP3  OH2          11.8247349838      -11.7362051666      -11.0817154944  CLST         711          1.0000000000
      2132       711  TIP3  H1           11.7140099307      -12.7022601653      -11.0785909168  CLST         711          1.0000000000
      2133       711  TIP3  H2           11.8794989161      -11.8281202232      -12.0030309790  CLST         711          1.0000000000
      2134       712  TIP3  OH2          -3.6931742477      -10.7106741819       11.6224782692  CLST         712          1.0000000000
      2135       712  TIP3  H1           -4.3123619478      -10.6553163956       10.9520555340  CLST         712          1.0000000000
      2136       712  TIP3  H2           -2.9015151626      -10.3222823372       11.2751971110  CLST         712          1.0000000000
      2137       713  TIP3  OH2           7.0513620068        0.1006891437        6.4590663433  CLST         713          1.0000000000
      2138       713  TIP3  H1            7.5522345655        0.3197127850        7.1666086326  CLST         713          1.0000000000
      2139       713  TIP3  H2            7.6345692856       -0.6805633245        6.4045297569  CLST         713          1.0000000000
      2140       714  TIP3  OH2           4.9484919782       12.3841838502        4.4856340417  CLST         714          1.0000000000
      2141       714  TIP3  H1            4.5673046217       12.8783839415        3.7768016584  CLST         714          1.0000000000
      2142       714  TIP3  H2            4.2843152359       12.7181207328        5.0502809950  CLST         714          1.0000000000
      2143       715  TIP3  OH2          -9.0414554508       -9.4650081284        1.6764600102  CLST         715          1.0000000000
      2144       715  TIP3  H1           -9.6640301951       -8.7852648818        2.0770443227  CLST         715          1.0000000000
      2145       715  TIP3  H2           -9.5927397630      -10.0953444370        2.1396786194  CLST         715          1.0000000000
      2146       716  TIP3  OH2         -13.7317990027      -13.5418106831        0.0834926178  CLST         716          1.0000000000
      2147       716  TIP3  H1          -13.8565650168      -14.1889516393       -0.6855743424  CLST         716          1.0000000000
      2148       716  TIP3  H2          -14.0587121899      -12.9451254613       -0.6596195875  CLST         716          1.0000000000
      2149       717  TIP3  OH2          -6.2088209076      -12.0817507502        2.3652698001  CLST         717          1.0000000000
      2150       717  TIP3  H1           -6.3850278438      -11.3683862606        1.7689217435  CLST         717          1.0000000000
      2151       717  TIP3  H2           -7.1004778648      -12.3206395959        2.2865704555  CLST         717          1.0000000000
      2152       718  TIP3  OH2         -10.9469013517        7.5230785784       13.4015668836  CLST         718          1.0000000000
      2153       718  TIP3  H1          -11.5754072020        8.2207122487       13.8236010491  CLST         718          1.0000000000
      2154       718  TIP3  H2          -10.1740762180        8.0582662741       13.5082449579  CLST         718          1.0000000000
      2155       719  TIP3  OH2          10.3679914029       -7.2603652077        2.9696457558  CLST         719          1.0000000000
      2156       719  TIP3  H1           11.3314005657       -7.3980417899        3.1682695206  CLST         719          1.0000000000
      2157       719  TIP3  H2           10.5178069685       -6.8375778781        2.1065863744  CLST         719          1.0000000000
      2158       720  TIP3  OH2          -5.0036195738       13.1102070546       -8.5025429157  CLST         720          1.0000000000
      2159       720  TIP3  H1           -4.0222818378       13.1225230455       -8.4712698597  CLST         720          1.0000000000
      2160       720  TIP3  H2           -4.9845795653       13.6165665597       -7.6263415722  CLST         720          1.0000000000
      2161       721  TIP3  OH2           3.9761595268       -5.9720042150      -10.0483698452  CLST         721          1.0000000000
      2162       721  TIP3  H1            4.1344995561       -5.5565577053       -9.1743497127  CLST         721          1.0000000000
      2163       721  TIP3  H2            4.5237034186       -6.7013147723       -9.5920354646  CLST         721          1.0000000000
      2164       722  TIP3  OH2          10.2844194561       -2.6002941832        2.1349923782  CLST         722          1.0000000000
      2165       722  TIP3  H1            9.9989318796       -3.3035817215        1.5320635013  CLST         722          1.0000000000
      2166       722  TIP3  H2           11.1695118173       -2.4476072381        1.8291040488  CLST         722          1.0000000000
      2167       723  TIP3  OH2           0.3855220748       13.4230333390        5.9235991610  CLST         723          1.0000000000
      2168       723  TIP3  H1            0.8159993662       14.0463962815        5.3749706787  CLST         723          1.0000000000
      2169       723  TIP3  H2            1.2960293682       13.0157787622        6.0192196854  CLST         723          1.0000000000
      2170       724  TIP3  OH2           8.4107576373       -8.2790670455       -4.0030904107  CLST         724          1.0000000000
      2171       724  TIP3  H1            8.2212636011       -9.0882885991       -4.4920311645  CLST         724          1.0000000000
      2172       724  TIP3  H2            8.1737978421       -7.8432849353       -4.8115639018  CLST         724          1.0000000000
      2173       725  TIP3  OH2          -0.9717896015       -0.2265921060        2.2740802293  CLST         725          1.0000000000
      2174       725  TIP3  H1           -1.8206031314       -0.6280913619        2.3867782208  CLST         725          1.0000000000
      2175       725  TIP3  H2           -1.3723826176        0.4811678956        1.7302942917  CLST         725          1.0000000000
      2176       726  TIP3  OH2         -14.2981717436       10.7233306454        6.1044153727  CLST         726          1.0000000000
      2177       726  TIP3  H1          -15.0889264103       11.0248290062        5.7035392076  CLST         726          1.0000000000
      2178       726  TIP3  H2          -13.7934320150       11.5815986405        5.9997515829  CLST         726          1.0000000000
      2179       727  TIP3  OH2          -4.2770185631      -13.6333562662       -0.5027904098  CLST         727          1.0000000000
      2180       727  TIP3  H1           -3.9018406745      -14.1255922184        0.1870006171  CLST         727          1.0000000000
      2181       727  TIP3  H2           -4.0442584783      -12.8578578047       -0.0468844251  CLST         727          1.0000000000
      2182       728  TIP3  OH2          -8.0621911439        3.0885420404       -0.7433175000  CLST         728          1.0000000000
      2183       728  TIP3  H1           -7.6663303806        2.3882766601       -0.1695287817  CLST         728          1.0000000000
      2184       728  TIP3  H2           -8.7739002416        2.5659828758       -1.0091311193  CLST         728          1.0000000000
      2185       729  TIP3  OH2          10.4630582384      -10.3596861523        2.8656332525  CLST         729          1.0000000000
      2186       729  TIP3  H1           10.6349004822       -9.3989688011        2.9965195599  CLST         729          1.0000000000
      2187       729  TIP3  H2           11.4090695617      -10.5031429380        2.9305694062  CLST         729          1.0000000000
      2188       730  TIP3  OH2          -4.3425594234       10.9638228082       -5.3130958767  CLST         730          1.0000000000
      2189       730  TIP3  H1           -4.3566177262       10.1422851634       -5.7901655374  CLST         730          1.0000000000
      2190       730  TIP3  H2           -5.3126142495       11.0303979346       -5.2620202536  CLST         730          1.0000000000
      2191       731  TIP3  OH2          13.1658608516       12.6005295820       -4.5704303516  CLST         731          1.0000000000
      2192       731  TIP3  H1           13.7040631661       12.8613580206       -5.2765486661  CLST         731          1.0000000000
      2193       731  TIP3  H2           12.8470375912       11.8245694402       -5.1422224130  CLST         731          1.0000000000
      2194       732  TIP3  OH2          -2.8043121657       -1.3591171551       -1.9761231464  CLST         732          1.0000000000
      2195       732  TIP3  H1           -3.5155118649       -0.9678649041       -1.2106221441  CLST         732          1.0000000000
      2196       732  TIP3  H2           -3.6656323683       -0.9715921520       -2.5749223143  CLST         732          1.0000000000
      2197       733  TIP3  OH2           5.4043406841        2.4637904397       12.9801289378  CLST         733          1.0000000000
      2198       733  TIP3  H1            5.0477530657        1.7632545931       12.3894085004  CLST         733          1.0000000000
      2199       733  TIP3  H2            4.6106928848        2.4667088551       13.4741201422  CLST         733          1.0000000000
      2200       734  TIP3  OH2           8.5400719873       -2.2250059819        5.8141712158  CLST         734          1.0000000000
      2201       734  TIP3  H1            8.4997341910       -2.8832403484        5.1054207055  CLST         734          1.0000000000
      2202       734  TIP3  H2            9.5206944739       -2.2155504392        5.9511187901  CLST         734          1.0000000000
      2203       735  TIP3  OH2         -10.8886529219      -12.7138697642        0.9730409189  CLST         735          1.0000000000
      2204       735  TIP3  H1          -11.0373140479      -12.0496091443        1.7869333609  CLST         735          1.0000000000
      2205       735  TIP3  H2          -11.8175958289      -12.7056823489        0.8531993288  CLST         735          1.0000000000
      2206       736  TIP3  OH2          13.4479333318        2.5862089345        2.7952665903  CLST         736          1.0000000000
      2207       736  TIP3  H1           13.6746652568        2.4632110767        1.8752638575  CLST         736          1.0000000000
      2208       736  TIP3  H2           12.6587411438        2.0533047923        2.6267495897  CLST         736          1.0000000000
      2209       737  TIP3  OH2          11.5539394620       -2.0313914638        7.9672728757  CLST         737          1.0000000000
      2210       737  TIP3  H1           11.5787824990       -2.2418660042        7.0064818330  CLST         737          1.0000000000
      2211       737  TIP3  H2           11.6952773658       -1.1004001069        7.6726419742  CLST         737          1.0000000000
      2212       738  TIP3  OH2          10.4612065435        1.0078229964       14.2576236399  CLST         738          1.0000000000
      2213       738  TIP3  H1            9.5531087274        0.9008090612       14.3943269133  CLST         738          1.0000000000
      2214       738  TIP3  H2           10.6007676675        0.0849992194       14.5266630482  CLST         738          1.0000000000
      2215       739  TIP3  OH2         -13.5327070980        1.4335332724       10.2756839070  CLST         739          1.0000000000
      2216       739  TIP3  H1          -14.2758925208        1.5294078550       10.8789785399  CLST         739          1.0000000000
      2217       739  TIP3  H2          -13.7909802109        0.6173182660        9.9445434771  CLST         739          1.0000000000
      2218       740  TIP3  OH2           6.1703800872      -14.0023565716       -5.0113747270  CLST         740          1.0000000000
      2219       740  TIP3  H1            5.9355144070      -15.0553632929       -5.3701749726  CLST         740          1.0000000000
      2220       740  TIP3  H2            6.7638204556      -14.4974514428       -5.2328743387  CLST         740          1.0000000000
      2221       741  TIP3  OH2          11.6293959546        5.0742037338        9.4744154594  CLST         741          1.0000000000
      2222       741  TIP3  H1           12.4210315300        4.9349219215        9.8788575274  CLST         741          1.0000000000
      2223       741  TIP3  H2           11.4274037406        4.1562056221        9.5020021999  CLST         741          1.0000000000
      2224       742  TIP3  OH2           8.3322313908       -9.6604894643       -6.3601047749  CLST         742          1.0000000000
      2225       742  TIP3  H1            8.3447833659      -10.5817490948       -6.4921663331  CLST         742          1.0000000000
      2226       742  TIP3  H2            7.8131548904       -9.7002546012       -7.1800092152  CLST         742          1.0000000000
      2227       743  TIP3  OH2          -7.3299782351       -0.1894589809      -10.9372437112  CLST         743          1.0000000000
      2228       743  TIP3  H1           -7.0497165173        0.5583009983      -10.4833630657  CLST         743          1.0000000000
      2229       743  TIP3  H2           -6.5424373631       -0.6235443606      -10.6764238062  CLST         743          1.0000000000
      2230       744  TIP3  OH2          -6.1955693772        3.6377542132        5.3460042577  CLST         744          1.0000000000
      2231       744  TIP3  H1           -5.3043814060        3.4476675112        5.7301107747  CLST         744          1.0000000000
      2232       744  TIP3  H2           -6.2263193435        4.5297624346        5.7463576042  CLST         744          1.0000000000
      2233       745  TIP3  OH2           0.2862124353       -8.4104491523        6.7951107110  CLST         745          1.0000000000
      2234       745  TIP3  H1            0.6606336117       -9.3204931486        6.7481984626  CLST         745          1.0000000000
      2235       745  TIP3  H2            0.7943098588       -8.1891952302        7.5334545870  CLST         745          1.0000000000
      2236       746  TIP3  OH2          -7.8628176290       -4.4725195596       -5.9847854514  CLST         746          1.0000000000
      2237       746  TIP3  H1           -7.9536895773       -5.3823832294       -6.2589097975  CLST         746          1.0000000000
      2238       746  TIP3  H2           -7.9768839225       -3.9435280870       -6.7644501433  CLST         746          1.0000000000
      2239       747  TIP3  OH2          11.2971485918       11.9831643262        2.1654964428  CLST         747          1.0000000000
      2240       747  TIP3  H1           11.0385653456       12.5489875793        2.9474143793  CLST         747          1.0000000000
      2241       747  TIP3  H2           11.5463879559       11.3606125690        2.8723402390  CLST         747          1.0000000000
      2242       748  TIP3  OH2           3.5959646039        4.9864266099        8.5550340677  CLST         748          1.0000000000
      2243       748  TIP3  H1            4.3659300700        5.0559362764        9.1378694031  CLST         748          1.0000000000
      2244       748  TIP3  H2            3.8250325703        5.7954918833        8.1713901523  CLST         748          1.0000000000
      2245       749  TIP3  OH2          10.9748813009        9.5317756624        6.4383585725  CLST         749          1.0000000000
      2246       749  TIP3  H1           10.8729114059        8.8971764690        7.1196233987  CLST         749          1.0000000000
      2247       749  TIP3  H2           10.2834062484       10.0579659004        6.7992439119  CLST         749          1.0000000000
      2248       750  TIP3  OH2         -14.3420528645       12.2812866615       -7.6432208670  CLST         750          1.0000000000
      2249       750  TIP3  H1          -15.0933349557       11.7622934575       -7.6898748581  CLST         750          1.0000000000
      2250       750  TIP3  H2          -14.2351781044       12.3088441505       -8.6072296339  CLST         750          1.0000000000
      2251       751  TIP3  OH2           8.6537382671        4.4419484211       -4.2734625341  CLST         751          1.0000000000
      2252       751  TIP3  H1            8.2731419944        3.7143070811       -4.8254697993  CLST         751          1.0000000000
      2253       751  TIP3  H2            9.3221193968        3.7459782453       -3.9814716399  CLST         751          1.0000000000
      2254       752  TIP3  OH2         -12.1824455080       13.2384772344        2.4366263468  CLST         752          1.0000000000
      2255       752  TIP3  H1          -12.7261896931       13.3059475723        1.6358215748  CLST         752          1.0000000000
      2256       752  TIP3  H2          -12.1820589966       12.3099523879        2.3764686068  CLST         752          1.0000000000
      2257       753  TIP3  OH2           8.7190190968        2.5501310672       -7.1056463847  CLST         753          1.0000000000
      2258       753  TIP3  H1            8.4014404413        3.3075183048       -7.7142526767  CLST         753          1.0000000000
      2259       753  TIP3  H2            7.8268061124        2.4987363240       -6.7129491345  CLST         753          1.0000000000
      2260       754  TIP3  OH2          11.4098167308        2.3179421432       -6.0883743869  CLST         754          1.0000000000
      2261       754  TIP3  H1           11.0869975955        2.0690317127       -5.2262565799  CLST         754          1.0000000000
      2262       754  TIP3  H2           10.4651409429        2.4807192195       -6.4034550559  CLST         754          1.0000000000
      2263       755  TIP3  OH2           7.4977818841       -1.7205844072       -0.1443405862  CLST         755          1.0000000000
      2264       755  TIP3  H1            6.5772703839       -1.9547051884       -0.0584659558  CLST         755          1.0000000000
      2265       755  TIP3  H2            7.2387335310       -0.7884329677       -0.0257257995  CLST         755          1.0000000000
      2266       756  TIP3  OH2         -12.8886029696        6.2885499535        5.7754476497  CLST         756          1.0000000000
      2267       756  TIP3  H1          -13.4393201742        5.5799926030        6.1050030364  CLST         756          1.0000000000
      2268       756  TIP3  H2          -12.3988037776        6.0574415183        6.6818620805  CLST         756          1.0000000000
      2269       757  TIP3  OH2          -4.7452615155       -4.9187332807       -2.2588656844  CLST         757          1.0000000000
      2270       757  TIP3  H1           -4.2720612286       -5.0541104966       -3.0921538785  CLST         757          1.0000000000
      2271       757  TIP3  H2           -5.0740805074       -4.1043686846       -2.6737707315  CLST         757          1.0000000000
      2272       758  TIP3  OH2          12.0925907301        4.4034613682       -0.8444095392  CLST         758          1.0000000000
      2273       758  TIP3  H1           12.3429794842        4.6316788713        0.0567120525  CLST         758          1.0000000000
      2274       758  TIP3  H2           12.9356803968        3.7535063308       -0.4593235182  CLST         758          1.0000000000
      2275       759  TIP3  OH2          -7.5749546275       11.8651769309      -11.2112717177  CLST         759          1.0000000000
      2276       759  TIP3  H1           -7.1590474490       12.0357015368      -12.0526886528  CLST         759          1.0000000000
      2277       759  TIP3  H2           -6.7672514164       11.3753966252      -11.0299164871  CLST         759          1.0000000000
      2278       760  TIP3  OH2           7.9824138106       14.3174663249       -6.2402288634  CLST         760          1.0000000000
      2279       760  TIP3  H1            8.3852358031       14.6128818986       -7.0378491222  CLST         760          1.0000000000
      2280       760  TIP3  H2            7.8158034424       13.4502984178       -6.5627068091  CLST         760          1.0000000000
      2281       761  TIP3  OH2          -7.0209254683        8.0881415520      -11.4078943607  CLST         761          1.0000000000
      2282       761  TIP3  H1           -7.8938074014        7.7670909044      -11.6359183376  CLST         761          1.0000000000
      2283       761  TIP3  H2           -7.2927898668        8.1541734988      -10.5338006354  CLST         761          1.0000000000
      2284       762  TIP3  OH2           7.7741143376       -6.1927284139      -12.9355689847  CLST         762          1.0000000000
      2285       762  TIP3  H1            7.3924033589       -6.7601297133      -12.2738341187  CLST         762          1.0000000000
      2286       762  TIP3  H2            7.4122718400       -5.4659162033      -12.4169645170  CLST         762          1.0000000000
      2287       763  TIP3  OH2          -1.1081052765       -6.1259076191        8.9344556530  CLST         763          1.0000000000
      2288       763  TIP3  H1           -1.1692035816       -5.1737266805        8.7423089582  CLST         763          1.0000000000
      2289       763  TIP3  H2           -1.7755629504       -6.0778898855        9.6525144490  CLST         763          1.0000000000
      2290       764  TIP3  OH2           8.9350900934      -11.4138007830        0.7851266979  CLST         764          1.0000000000
      2291       764  TIP3  H1            8.1622234447      -10.8247008718        0.6310913950  CLST         764          1.0000000000
      2292       764  TIP3  H2            9.3310593193      -10.9074758392        1.4412367070  CLST         764          1.0000000000
      2293       765  TIP3  OH2         -14.6076246559      -12.2200732504       13.1332140126  CLST         765          1.0000000000
      2294       765  TIP3  H1          -13.8332862724      -11.6104087518       13.0479834636  CLST         765          1.0000000000
      2295       765  TIP3  H2          -15.0933349557      -11.3528658381       13.0772044290  CLST         765          1.0000000000
      2296       766  TIP3  OH2          11.6387111150       -8.4123038701      -12.0185823610  CLST         766          1.0000000000
      2297       766  TIP3  H1           11.1135815363       -8.1116881001      -12.8327492173  CLST         766          1.0000000000
      2298       766  TIP3  H2           10.9400911327       -9.0494599233      -11.9372573373  CLST         766          1.0000000000
      2299       767  TIP3  OH2           2.2777327626       12.4211178226      -12.6380081034  CLST         767          1.0000000000
      2300       767  TIP3  H1            2.8401057736       12.2476416327      -11.8857430253  CLST         767          1.0000000000
      2301       767  TIP3  H2            2.1282476100       13.3265405230      -12.4444047633  CLST         767          1.0000000000
      2302       768  TIP3  OH2           7.7678461675        7.1284524208        8.4900710327  CLST         768          1.0000000000
      2303       768  TIP3  H1            8.7018610151        7.0295705257        8.6112010301  CLST         768          1.0000000000
      2304       768  TIP3  H2            7.7161764040        6.2264284215        8.3478591754  CLST         768          1.0000000000
      2305       769  TIP3  OH2         -11.8537541763        3.2086315159        0.9901597745  CLST         769          1.0000000000
      2306       769  TIP3  H1          -11.3253762577        2.8116047892        1.8769984543  CLST         769          1.0000000000
      2307       769  TIP3  H2          -12.2932220518        3.0123657991        1.9698753291  CLST         769          1.0000000000
      2308       770  TIP3  OH2          10.1838642958       -4.7341678448       11.3468445744  CLST         770          1.0000000000
      2309       770  TIP3  H1            9.9665949492       -3.9549009779       10.9119538203  CLST         770          1.0000000000
      2310       770  TIP3  H2           10.9065456773       -4.8973521137       10.7961278052  CLST         770          1.0000000000
      2311       771  TIP3  OH2         -10.3375343239        1.2141502291       -5.7401716726  CLST         771          1.0000000000
      2312       771  TIP3  H1           -9.4303783803        1.1511334906       -5.9551587309  CLST         771          1.0000000000
      2313       771  TIP3  H2          -10.1766901343        1.8591517709       -5.0252885060  CLST         771          1.0000000000
      2314       772  TIP3  OH2          12.9910758165      -12.4608217440       -6.6521258177  CLST         772          1.0000000000
      2315       772  TIP3  H1           12.8654077604      -11.5290232840       -6.6054058996  CLST         772          1.0000000000
      2316       772  TIP3  H2           12.2678301503      -12.4554071601       -5.9197809132  CLST         772          1.0000000000
      2317       773  TIP3  OH2          12.1072246148       -4.8299731804        3.5356218547  CLST         773          1.0000000000
      2318       773  TIP3  H1           11.9217422532       -4.2963753648        4.3304581364  CLST         773          1.0000000000
      2319       773  TIP3  H2           12.2272848323       -4.2651812023        2.8029064395  CLST         773          1.0000000000
      2320       774  TIP3  OH2          -7.8678763108       -0.2660543771       -5.9970245526  CLST         774          1.0000000000
      2321       774  TIP3  H1           -6.6879060961       -0.2272389446       -6.0374849947  CLST         774          1.0000000000
      2322       774  TIP3  H2           -7.5325945911        0.5949973441       -5.7468324667  CLST         774          1.0000000000
      2323       775  TIP3  OH2           2.6308281974        1.5977116686        5.4225657078  CLST         775          1.0000000000
      2324       775  TIP3  H1            2.7199473545        1.8063646861        6.3499268309  CLST         775          1.0000000000
      2325       775  TIP3  H2            3.1006676533        2.3754532133        5.2432730456  CLST         775          1.0000000000
      2326       776  TIP3  OH2           0.0661172931        9.6114955820        5.7494324076  CLST         776          1.0000000000
      2327       776  TIP3  H1           -0.5884736401       10.2592630754        5.6220328604  CLST         776          1.0000000000
      2328       776  TIP3  H2           -0.4879379657        8.8768521681        5.5356579546  CLST         776          1.0000000000
      2329       777  TIP3  OH2         -13.1648071974      -10.1817063422        0.1524995168  CLST         777          1.0000000000
      2330       777  TIP3  H1          -12.7705184683       -9.2859845798        0.2748148010  CLST         777          1.0000000000
      2331       777  TIP3  H2          -13.3206054580      -10.0312039562        1.1160997099  CLST         777          1.0000000000
      2332       778  TIP3  OH2         -11.6848588464        5.7535379662       -0.4451358867  CLST         778          1.0000000000
      2333       778  TIP3  H1          -11.9041616474        4.9282614518       -0.0418059053  CLST         778          1.0000000000
      2334       778  TIP3  H2          -11.6162218764        5.3918344409       -1.3151231812  CLST         778          1.0000000000
      2335       779  TIP3  OH2          -6.1410016218        5.3270453267       -1.6924199687  CLST         779          1.0000000000
      2336       779  TIP3  H1           -6.9392910856        5.0024106296       -1.3202883678  CLST         779          1.0000000000
      2337       779  TIP3  H2           -6.3040259236        6.1966911718       -1.3493722453  CLST         779          1.0000000000
      2338       780  TIP3  OH2           2.4558966320       13.9267797652       -8.5860128866  CLST         780          1.0000000000
      2339       780  TIP3  H1            2.1489090380       14.7584885141       -9.1338225391  CLST         780          1.0000000000
      2340       780  TIP3  H2            2.6856752457       14.0441294720       -9.7413501132  CLST         780          1.0000000000
      2341       781  TIP3  OH2           9.0663103075       -8.7979484870       -9.7515548927  CLST         781          1.0000000000
      2342       781  TIP3  H1            9.8323934848       -8.3999978644       -9.4656791005  CLST         781          1.0000000000
      2343       781  TIP3  H2            9.3730722405       -9.6683748682       -9.5569240026  CLST         781          1.0000000000
      2344       782  TIP3  OH2           0.1424674061        2.5281985265        4.3414315030  CLST         782          1.0000000000
      2345       782  TIP3  H1           -0.3488290340        1.7843614949        4.5588123720  CLST         782          1.0000000000
      2346       782  TIP3  H2            0.9767917334        2.2814087040        4.7517525558  CLST         782          1.0000000000
      2347       783  TIP3  OH2          -7.1501446209      -12.6018734502      -13.5709453166  CLST         783          1.0000000000
      2348       783  TIP3  H1           -7.9036078803      -12.2921427669      -13.0860767322  CLST         783          1.0000000000
      2349       783  TIP3  H2           -7.5450751557      -12.4989147109      -14.4616957211  CLST         783          1.0000000000
      2350       784  TIP3  OH2          14.4672464317        5.1902018467       -4.1125372615  CLST         784          1.0000000000
      2351       784  TIP3  H1           15.0933349557        5.9099997379       -4.2378746784  CLST         784          1.0000000000
      2352       784  TIP3  H2           13.7117201297        5.7657177249       -4.2618657212  CLST         784          1.0000000000
      2353       785  TIP3  OH2          10.5794664913        8.2512173606        0.7826112496  CLST         785          1.0000000000
      2354       785  TIP3  H1           10.5283144249        8.9072350777        1.4485742887  CLST         785          1.0000000000
      2355       785  TIP3  H2           11.3327502140        8.6548719880        0.3805972280  CLST         785          1.0000000000
      2356       786  TIP3  OH2          12.5534672025        3.4743841062       12.3605500341  CLST         786          1.0000000000
      2357       786  TIP3  H1           12.9361925399        4.4646175799       12.5792052853  CLST         786          1.0000000000
      2358       786  TIP3  H2           12.1495502642        4.2649128687       13.0216005610  CLST         786          1.0000000000
      2359       787  TIP3  OH2          -8.0771167864        0.0664233084       11.4576526303  CLST         787          1.0000000000
      2360       787  TIP3  H1           -8.8877127825        0.2497213885       11.0466375273  CLST         787          1.0000000000
      2361       787  TIP3  H2           -8.5103324148       -0.6324217579       11.9591689288  CLST         787          1.0000000000
      2362       788  TIP3  OH2           2.4324767007      -13.2882007918       10.9421193066  CLST         788          1.0000000000
      2363       788  TIP3  H1            2.7601720696      -13.0649016890       11.8202205255  CLST         788          1.0000000000
      2364       788  TIP3  H2            2.6683244891      -14.2065072282       11.0582858812  CLST         788          1.0000000000
      2365       789  TIP3  OH2          -7.0522161950        0.9006991617       -3.2721750034  CLST         789          1.0000000000
      2366       789  TIP3  H1           -6.8710890471        0.0300571298       -3.0762546070  CLST         789          1.0000000000
      2367       789  TIP3  H2           -6.1888199692        0.9620329990       -3.6652365748  CLST         789          1.0000000000
      2368       790  TIP3  OH2         -11.3120716583       -9.3244888830        5.5242551662  CLST         790          1.0000000000
      2369       790  TIP3  H1          -11.7990138678       -9.4177947255        6.3443268979  CLST         790          1.0000000000
      2370       790  TIP3  H2          -11.5946267393       -8.3571985030        5.4166510435  CLST         790          1.0000000000
      2371       791  TIP3  OH2          -4.9969655343       -5.7552029520      -10.7000374600  CLST         791          1.0000000000
      2372       791  TIP3  H1           -4.1535102721       -6.0485225615      -11.0796766558  CLST         791          1.0000000000
      2373       791  TIP3  H2           -4.8534590991       -4.8625891720      -10.9791981530  CLST         791          1.0000000000
      2374       792  TIP3  OH2           7.0983619424       -4.0203371912       10.0009093572  CLST         792          1.0000000000
      2375       792  TIP3  H1            7.4050355215       -4.8204882536        9.5569645067  CLST         792          1.0000000000
      2376       792  TIP3  H2            7.9594967714       -3.6183896848        9.9238019633  CLST         792          1.0000000000
      2377       793  TIP3  OH2          -3.2046518244       12.8104467188       -3.8031284443  CLST         793          1.0000000000
      2378       793  TIP3  H1           -3.5722930603       12.6294118452       -2.9007778982  CLST         793          1.0000000000
      2379       793  TIP3  H2           -3.3810498021       11.9380295310       -4.1431668322  CLST         793          1.0000000000
      2380       794  TIP3  OH2          -0.7393666843        2.7999374646       -6.7094580389  CLST         794          1.0000000000
      2381       794  TIP3  H1           -0.6826436884        2.3494549281       -7.5405981594  CLST         794          1.0000000000
      2382       794  TIP3  H2           -1.1636061872        3.5872824786       -7.1515229920  CLST         794          1.0000000000
      2383       795  TIP3  OH2          -1.9984270385       -9.4395719089        1.2275854486  CLST         795          1.0000000000
      2384       795  TIP3  H1           -2.6181781209       -9.9728075517        0.7474264299  CLST         795          1.0000000000
      2385       795  TIP3  H2           -1.6951183556      -10.0211774412        1.9422189760  CLST         795          1.0000000000
      2386       796  TIP3  OH2           2.7543682436        4.7185230476        4.9265126209  CLST         796          1.0000000000
      2387       796  TIP3  H1            3.0544351422        4.1140333546        4.0438657795  CLST         796          1.0000000000
      2388       796  TIP3  H2            3.6599800868        4.6940348399        4.6217175883  CLST         796          1.0000000000
      2389       797  TIP3  OH2         -11.6282551147        5.6067899656       -3.1354794105  CLST         797          1.0000000000
      2390       797  TIP3  H1          -12.3718111589        5.9806868304       -3.6027569807  CLST         797          1.0000000000
      2391       797  TIP3  H2          -11.1577568399        5.5014788999       -3.9603403381  CLST         797          1.0000000000
      2392       798  TIP3  OH2         -11.3365545537        9.7018232672       10.5721060378  CLST         798          1.0000000000
      2393       798  TIP3  H1          -11.1542536064       10.3482214356        9.8956555002  CLST         798          1.0000000000
      2394       798  TIP3  H2          -11.5513585521       10.4866766189       11.1022142889  CLST         798          1.0000000000
      2395       799  TIP3  OH2           3.9571496843       -1.8171021059      -12.6366496664  CLST         799          1.0000000000
      2396       799  TIP3  H1            4.6553434433       -1.1471556645      -12.6663002705  CLST         799          1.0000000000
      2397       799  TIP3  H2            4.1992900516       -2.1682533789      -13.4887831674  CLST         799          1.0000000000
      2398       800  TIP3  OH2         -10.3528461112        7.2238153394       10.2827447118  CLST         800          1.0000000000
      2399       800  TIP3  H1          -10.8731071758        7.9817800023       10.5217151714  CLST         800          1.0000000000
      2400       800  TIP3  H2           -9.6242315707        7.8055520107       10.0566128217  CLST         800          1.0000000000
      2401       801  TIP3  OH2           8.1343790965      -11.2114756054      -10.7142788992  CLST         801          1.0000000000
      2402       801  TIP3  H1            7.9869162628      -12.0986700093      -10.4982625389  CLST         801          1.0000000000
      2403       801  TIP3  H2            8.7952608905      -11.2991043713      -11.4194129065  CLST         801          1.0000000000
      2404       802  TIP3  OH2           5.5686231433       -0.2323385110       11.8606715228  CLST         802          1.0000000000
      2405       802  TIP3  H1            5.1254279984       -0.0953351899       11.0751950953  CLST         802          1.0000000000
      2406       802  TIP3  H2            6.3666521767       -0.4840534397       11.4597673787  CLST         802          1.0000000000
      2407       803  TIP3  OH2           6.5617801702       -9.6397189751        0.1823599860  CLST         803          1.0000000000
      2408       803  TIP3  H1            6.2144671009      -10.4884454666       -0.1934786973  CLST         803          1.0000000000
      2409       803  TIP3  H2            5.9361381722       -9.6962239517        0.9187225381  CLST         803          1.0000000000
      2410       804  TIP3  OH2           5.3877448665        6.3334102414        1.8764558280  CLST         804          1.0000000000
      2411       804  TIP3  H1            4.7685569465        5.7306111733        1.1687450935  CLST         804          1.0000000000
      2412       804  TIP3  H2            5.7297811695        5.3516442696        1.4644850247  CLST         804          1.0000000000
      2413       805  TIP3  OH2           7.5362515306       -4.4521654069       14.2815143299  CLST         805          1.0000000000
      2414       805  TIP3  H1            8.3485697451       -4.2688795109       13.8458113408  CLST         805          1.0000000000
      2415       805  TIP3  H2            8.0424747033       -4.8004471746       14.9658593875  CLST         805          1.0000000000
      2416       806  TIP3  OH2           8.4440118959       10.0367241924       13.8294561846  CLST         806          1.0000000000
      2417       806  TIP3  H1            8.0625058649        9.1474527526       13.5591236363  CLST         806          1.0000000000
      2418       806  TIP3  H2            8.0896775460       10.5546448393       13.1115249702  CLST         806          1.0000000000
      2419       807  TIP3  OH2          -3.7561148772        8.0289626643        1.4228249720  CLST         807          1.0000000000
      2420       807  TIP3  H1           -3.7081296528        8.9323015179        1.1776666228  CLST         807          1.0000000000
      2421       807  TIP3  H2           -3.9726950052        8.2013339536        2.3809129346  CLST         807          1.0000000000
      2422       808  TIP3  OH2          -3.8147773008       13.9085739664        1.2279341356  CLST         808          1.0000000000
      2423       808  TIP3  H1           -3.0167526484       14.2295774136        1.7208505272  CLST         808          1.0000000000
      2424       808  TIP3  H2           -3.1771568102       13.7704407541        0.4911945481  CLST         808          1.0000000000
      2425       809  TIP3  OH2           2.0660358456       12.6462794299        9.5170829852  CLST         809          1.0000000000
      2426       809  TIP3  H1            2.0478120101       12.0042230996        8.8056296730  CLST         809          1.0000000000
      2427       809  TIP3  H2            1.2195934901       12.9274372558        9.2801706445  CLST         809          1.0000000000
      2428       810  TIP3  OH2          -1.8792643421        8.7405622977        8.7062811588  CLST         810          1.0000000000
      2429       810  TIP3  H1           -1.1475449309        8.4444270751        8.1790431035  CLST         810          1.0000000000
      2430       810  TIP3  H2           -1.7398636535        8.1630043864        9.4257561389  CLST         810          1.0000000000
      2431       811  TIP3  OH2          -3.8201692759      -12.4401373767       -9.2165004685  CLST         811          1.0000000000
      2432       811  TIP3  H1           -3.7152053200      -12.9397946651      -10.0345512568  CLST         811          1.0000000000
      2433       811  TIP3  H2           -4.5586106607      -11.8574163383       -9.4035043100  CLST         811          1.0000000000
      2434       812  TIP3  OH2          10.8403331513        4.3214799108      -13.6427811141  CLST         812          1.0000000000
      2435       812  TIP3  H1           11.4076566922        3.5561398108      -13.4604682913  CLST         812          1.0000000000
      2436       812  TIP3  H2           11.4934778723        4.9038665647      -14.1090758303  CLST         812          1.0000000000
      2437       813  TIP3  OH2          -2.2768244606        0.7477428864      -13.9817917873  CLST         813          1.0000000000
      2438       813  TIP3  H1           -2.2773424180        1.5753075637      -14.4866892637  CLST         813          1.0000000000
      2439       813  TIP3  H2           -3.2348135142        0.7202673177      -14.2569463141  CLST         813          1.0000000000
      2440       814  TIP3  OH2          -7.4737898599        8.0256450819       -8.7443497916  CLST         814          1.0000000000
      2441       814  TIP3  H1           -7.0111021298        8.8358836905       -8.4916255271  CLST         814          1.0000000000
      2442       814  TIP3  H2           -6.8424404596        7.4203816157       -8.3627471071  CLST         814          1.0000000000
      2443       815  TIP3  OH2          -5.1247664310        1.2719684168       -8.4402159277  CLST         815          1.0000000000
      2444       815  TIP3  H1           -4.5265398559        2.0448357228       -8.4818640090  CLST         815          1.0000000000
      2445       815  TIP3  H2           -5.7982789115        1.6918977773       -8.9245412256  CLST         815          1.0000000000
      2446       816  TIP3  OH2          -8.3323094131      -13.5788766362        1.7096801723  CLST         816          1.0000000000
      2447       816  TIP3  H1           -8.6409172876      -14.5132304048        1.7616613936  CLST         816          1.0000000000
      2448       816  TIP3  H2           -9.2524125111      -13.3223435160        1.7161344651  CLST         816          1.0000000000
      2449       817  TIP3  OH2           3.5999130542       14.3958664663       10.9600249485  CLST         817          1.0000000000
      2450       817  TIP3  H1            3.0076605341       13.8264421605       10.5096059191  CLST         817          1.0000000000
      2451       817  TIP3  H2            3.3239777649       14.2315993283       11.8580679825  CLST         817          1.0000000000
      2452       818  TIP3  OH2          11.5751086246       -3.2435647906       -5.7480939590  CLST         818          1.0000000000
      2453       818  TIP3  H1           11.7290356660       -2.4325187567       -5.2476305536  CLST         818          1.0000000000
      2454       818  TIP3  H2           10.7187155275       -2.7951956127       -5.8794504170  CLST         818          1.0000000000
      2455       819  TIP3  OH2           0.0560893568        0.0824502148      -10.6500486088  CLST         819          1.0000000000
      2456       819  TIP3  H1            0.6324147513       -0.7890381381      -10.9310814540  CLST         819          1.0000000000
      2457       819  TIP3  H2            1.1400731337        0.2040233263      -10.9182793438  CLST         819          1.0000000000
      2458       820  TIP3  OH2         -11.2090497822       -7.8035305823       14.5375372477  CLST         820          1.0000000000
      2459       820  TIP3  H1          -11.7471317869       -8.6336971649       14.8492451101  CLST         820          1.0000000000
      2460       820  TIP3  H2          -10.6010117269       -8.5790510725       14.2405745745  CLST         820          1.0000000000
      2461       821  TIP3  OH2          12.0634003907       -1.0705093940       14.8169675629  CLST         821          1.0000000000
      2462       821  TIP3  H1           12.7199901857       -0.5406215437       14.3213153710  CLST         821          1.0000000000
      2463       821  TIP3  H2           12.1270557229       -1.8937615092       14.3383088452  CLST         821          1.0000000000
      2464       822  TIP3  OH2          -7.1382890862       14.2453571235        9.3944078728  CLST         822          1.0000000000
      2465       822  TIP3  H1           -6.7695337620       14.0597687275        8.5203238273  CLST         822          1.0000000000
      2466       822  TIP3  H2           -6.9002573696       13.3381615155        9.5360092361  CLST         822          1.0000000000
      2467       823  TIP3  OH2          -9.1888233864       -1.6033595169        7.7004428463  CLST         823          1.0000000000
      2468       823  TIP3  H1           -9.5652615602       -2.3259844606        8.2207270685  CLST         823          1.0000000000
      2469       823  TIP3  H2           -8.3130504493       -1.9111918362        7.6766937315  CLST         823          1.0000000000
      2470       824  TIP3  OH2          10.8518446192        0.7245977450        6.9676920748  CLST         824          1.0000000000
      2471       824  TIP3  H1           11.0146064404        0.4747401108        6.0187880059  CLST         824          1.0000000000
      2472       824  TIP3  H2           10.3535071730        1.4892403234        6.6761819769  CLST         824          1.0000000000
      2473       825  TIP3  OH2          -4.6500830382      -11.6391484193      -14.0298003735  CLST         825          1.0000000000
      2474       825  TIP3  H1           -5.3581060300      -12.2893996729      -13.8325964609  CLST         825          1.0000000000
      2475       825  TIP3  H2           -4.9740613692      -11.0186272451      -13.4243820300  CLST         825          1.0000000000
      2476       826  TIP3  OH2           4.3634319815      -14.1058135514        2.2649940354  CLST         826          1.0000000000
      2477       826  TIP3  H1            4.2920233467      -15.0857468190        2.3103046575  CLST         826          1.0000000000
      2478       826  TIP3  H2            5.3023189047      -14.1974955781        2.3943292228  CLST         826          1.0000000000
      2479       827  TIP3  OH2         -10.0974092502        8.4508289515       -6.6168135974  CLST         827          1.0000000000
      2480       827  TIP3  H1           -9.6910005221        8.4018075098       -5.7628498969  CLST         827          1.0000000000
      2481       827  TIP3  H2           -9.9477288192        7.5033253454       -6.6552773508  CLST         827          1.0000000000
      2482       828  TIP3  OH2         -10.1246454558       -7.7013465943       11.5470380179  CLST         828          1.0000000000
      2483       828  TIP3  H1           -9.3188555819       -8.1093946472       11.8087903210  CLST         828          1.0000000000
      2484       828  TIP3  H2           -9.6476903467       -6.9676922238       11.1577919436  CLST         828          1.0000000000
      2485       829  TIP3  OH2           3.1109736020       13.3221809964        6.3227542992  CLST         829          1.0000000000
      2486       829  TIP3  H1            3.2992560713       13.7820962501        7.2109644983  CLST         829          1.0000000000
      2487       829  TIP3  H2            3.4619569994       14.4815584347        6.5313696951  CLST         829          1.0000000000
      2488       830  TIP3  OH2          13.9030799252        2.8728341793        9.1063744986  CLST         830          1.0000000000
      2489       830  TIP3  H1           14.4709045899        3.2450203019        9.7553829504  CLST         830          1.0000000000
      2490       830  TIP3  H2           14.5101579800        3.2293148245        8.4705167627  CLST         830          1.0000000000
      2491       831  TIP3  OH2           2.9908028020        2.3103409641        8.0833437194  CLST         831          1.0000000000
      2492       831  TIP3  H1            3.3458183427        3.1569960716        8.3056738118  CLST         831          1.0000000000
      2493       831  TIP3  H2            2.1359658273        2.6613384421        8.2752310993  CLST         831          1.0000000000
      2494       832  TIP3  OH2         -12.8042357529       -2.6346411348        1.1433819410  CLST         832          1.0000000000
      2495       832  TIP3  H1          -12.6611473449       -1.6449353431        1.0056177462  CLST         832          1.0000000000
      2496       832  TIP3  H2          -13.3588137777       -2.4781650163        1.9369668179  CLST         832          1.0000000000
      2497       833  TIP3  OH2           1.4388294708      -11.6412889486        5.3054309174  CLST         833          1.0000000000
      2498       833  TIP3  H1            1.8327294303      -11.3857502996        6.1005966981  CLST         833          1.0000000000
      2499       833  TIP3  H2            2.2913600643      -11.6300175464        4.9219671913  CLST         833          1.0000000000
      2500       834  TIP3  OH2           3.4967974505       -3.2056837022        4.1975090078  CLST         834          1.0000000000
      2501       834  TIP3  H1            2.9368582735       -2.3529736924        4.1328917966  CLST         834          1.0000000000
      2502       834  TIP3  H2            3.8714507572       -2.5205801209        4.9513710324  CLST         834          1.0000000000
      2503       835  TIP3  OH2           4.2973243400        2.5530356672        0.1679748865  CLST         835          1.0000000000
      2504       835  TIP3  H1            4.2567597036        2.8145048611       -0.7452933651  CLST         835          1.0000000000
      2505       835  TIP3  H2            4.0745026361        1.6098101467        0.0091918667  CLST         835          1.0000000000
      2506       836  TIP3  OH2           7.5887126585       -5.6919293152       -9.5827924638  CLST         836          1.0000000000
      2507       836  TIP3  H1            6.9829686213       -6.2636621607       -9.1215776165  CLST         836          1.0000000000
      2508       836  TIP3  H2            8.2476107061       -6.3324903014       -9.4162279719  CLST         836          1.0000000000
      2509       837  TIP3  OH2           3.3123279137        6.0677551872       -0.4554734049  CLST         837          1.0000000000
      2510       837  TIP3  H1            2.5321278953        5.8374332682       -0.9919561472  CLST         837          1.0000000000
      2511       837  TIP3  H2            2.7840595964        6.6834470585        0.0057140156  CLST         837          1.0000000000
      2512       838  TIP3  OH2          -1.5803213518      -13.5771541865      -11.1963799954  CLST         838          1.0000000000
      2513       838  TIP3  H1           -1.3277530130      -14.3731038071      -10.7387151414  CLST         838          1.0000000000
      2514       838  TIP3  H2           -2.3428285479      -14.0090088553      -11.5048914830  CLST         838          1.0000000000
      2515       839  TIP3  OH2           1.4969550677       -7.1905398465       -1.4306623796  CLST         839          1.0000000000
      2516       839  TIP3  H1            1.3312563795       -7.7237212532       -0.6195569068  CLST         839          1.0000000000
      2517       839  TIP3  H2            0.4975001157       -7.1415357862       -1.6371630864  CLST         839          1.0000000000
      2518       840  TIP3  OH2          -7.4944770166       11.7258623278       10.7367218692  CLST         840          1.0000000000
      2519       840  TIP3  H1           -7.5473292049       11.2566654393       11.5775510250  CLST         840          1.0000000000
      2520       840  TIP3  H2           -7.0800188698       10.9866891741       10.3519389152  CLST         840          1.0000000000
      2521       841  TIP3  OH2          -8.4764641323       -7.7339874331       -4.2373278848  CLST         841          1.0000000000
      2522       841  TIP3  H1           -8.0940831166       -7.5879866425       -3.3615622065  CLST         841          1.0000000000
      2523       841  TIP3  H2           -7.6160977165       -7.6948292446       -4.6669782335  CLST         841          1.0000000000
      2524       842  TIP3  OH2          11.4796202428      -14.2406734933        0.0973165663  CLST         842          1.0000000000
      2525       842  TIP3  H1           10.9932537912      -14.5869915381        0.8815133170  CLST         842          1.0000000000
      2526       842  TIP3  H2           10.5939652644      -14.3871251194       -0.2625568471  CLST         842          1.0000000000
      2527       843  TIP3  OH2           9.4684636432       13.0541215471        3.8186393342  CLST         843          1.0000000000
      2528       843  TIP3  H1            8.7505021955       12.7508715330        4.3219380532  CLST         843          1.0000000000
      2529       843  TIP3  H2            9.0004795949       13.3111117956        3.0768957301  CLST         843          1.0000000000
      2530       844  TIP3  OH2           1.5223884725      -12.5305894032       -1.8263984521  CLST         844          1.0000000000
      2531       844  TIP3  H1            1.8425464552      -12.7638980692       -0.9389041643  CLST         844          1.0000000000
      2532       844  TIP3  H2            0.7004881146      -12.9222653278       -1.5704277288  CLST         844          1.0000000000
      2533       845  TIP3  OH2         -14.7058169494        4.5271572242       10.5667965015  CLST         845          1.0000000000
      2534       845  TIP3  H1          -14.8474578769        3.8590950924       11.4293453151  CLST         845          1.0000000000
      2535       845  TIP3  H2          -13.8695778184        4.7270163572       11.3382452805  CLST         845          1.0000000000
      2536       846  TIP3  OH2         -11.0991307268       -7.7755009398        2.5165537105  CLST         846          1.0000000000
      2537       846  TIP3  H1          -11.8890534088       -8.2758636465        2.6987948316  CLST         846          1.0000000000
      2538       846  TIP3  H2          -11.6324930503       -6.9488623144        2.5645197538  CLST         846          1.0000000000
      2539       847  TIP3  OH2           4.9292341727        9.7409067839        5.2288978457  CLST         847          1.0000000000
      2540       847  TIP3  H1            5.1023423474       10.6138172619        4.9353252544  CLST         847          1.0000000000
      2541       847  TIP3  H2            5.4328578168        9.8731028618        6.0178007496  CLST         847          1.0000000000
      2542       848  TIP3  OH2          -9.3914517769        5.6393846732       -9.7702587224  CLST         848          1.0000000000
      2543       848  TIP3  H1          -10.0618625315        5.4664354396      -10.4282185809  CLST         848          1.0000000000
      2544       848  TIP3  H2           -9.7341139777        6.4615737905       -9.5527119171  CLST         848          1.0000000000
      2545       849  TIP3  OH2          -1.5516207902        1.8721686160        0.2313324370  CLST         849          1.0000000000
      2546       849  TIP3  H1           -0.6108562285        1.9619237586        0.1774135738  CLST         849          1.0000000000
      2547       849  TIP3  H2           -1.6286996250        2.0770973844       -0.6751048883  CLST         849          1.0000000000
      2548       850  TIP3  OH2           5.2712650207       -6.4296729984        5.7487525580  CLST         850          1.0000000000
      2549       850  TIP3  H1            4.5608829517       -6.3327710360        6.4170372307  CLST         850          1.0000000000
      2550       850  TIP3  H2            5.9489940126       -5.9088709166        6.2230869787  CLST         850          1.0000000000
      2551       851  TIP3  OH2           8.3237841212        6.3350935796        5.4514750997  CLST         851          1.0000000000
      2552       851  TIP3  H1            8.4684945524        6.6624109381        6.3567006795  CLST         851          1.0000000000
      2553       851  TIP3  H2            8.9784635394        6.8966060442        5.1502428247  CLST         851          1.0000000000
      2554       852  TIP3  OH2           9.5442074626        3.9605714241        1.5691476612  CLST         852          1.0000000000
      2555       852  TIP3  H1            9.5641121383        3.7011084191        2.5202983530  CLST         852          1.0000000000
      2556       852  TIP3  H2            8.5986359927        4.0162829153        1.5249368857  CLST         852          1.0000000000
      2557       853  TIP3  OH2           8.8075875994       -5.1405130634       -3.1844384233  CLST         853          1.0000000000
      2558       853  TIP3  H1            8.0865771210       -5.1573220401       -3.7895559642  CLST         853          1.0000000000
      2559       853  TIP3  H2            8.2244798258       -4.7638493971       -2.5836192142  CLST         853          1.0000000000
      2560       854  TIP3  OH2         -10.7254415693       -9.2228654072       -5.9694681596  CLST         854          1.0000000000
      2561       854  TIP3  H1          -10.2841833520       -8.4247010007       -6.2838536443  CLST         854          1.0000000000
      2562       854  TIP3  H2          -10.4809986747       -8.9510926151       -5.0466737677  CLST         854          1.0000000000
      2563       855  TIP3  OH2           2.5885891591       -3.2550734760       -6.7616178518  CLST         855          1.0000000000
      2564       855  TIP3  H1            2.2797176673       -2.6129465994       -6.1495803195  CLST         855          1.0000000000
      2565       855  TIP3  H2            2.8549292937       -2.7557711744       -7.4856975563  CLST         855          1.0000000000
      2566       856  TIP3  OH2           3.1608479751      -12.8365109987        0.2650051269  CLST         856          1.0000000000
      2567       856  TIP3  H1            4.0577559763      -12.5818416918       -0.0081700847  CLST         856          1.0000000000
      2568       856  TIP3  H2            3.5367072556      -13.5216020609        0.7931623491  CLST         856          1.0000000000
      2569       857  TIP3  OH2          -3.0479014602       -5.7479329714       11.0941971835  CLST         857          1.0000000000
      2570       857  TIP3  H1           -3.5958255338       -5.9284323915       11.8515470804  CLST         857          1.0000000000
      2571       857  TIP3  H2           -3.1873317249       -4.7702274607       11.1367669502  CLST         857          1.0000000000
      2572       858  TIP3  OH2           6.1903958206      -14.3141112553       12.9414589638  CLST         858          1.0000000000
      2573       858  TIP3  H1            6.2818799315      -15.0925258625       13.4522926834  CLST         858          1.0000000000
      2574       858  TIP3  H2            5.4851200722      -13.9886598436       13.4775882729  CLST         858          1.0000000000
      2575       859  TIP3  OH2          -8.6589787340       -1.5920364691      -12.9495162226  CLST         859          1.0000000000
      2576       859  TIP3  H1           -8.0546580637       -2.2699148252      -13.0322410576  CLST         859          1.0000000000
      2577       859  TIP3  H2           -7.9845098133       -1.1337938726      -12.4640555547  CLST         859          1.0000000000
      2578       860  TIP3  OH2          -9.9058062880       -6.2086443308       -1.1020497434  CLST         860          1.0000000000
      2579       860  TIP3  H1           -9.9495013511       -5.4776822082       -1.7397311838  CLST         860          1.0000000000
      2580       860  TIP3  H2           -9.0622120358       -6.6067378895       -1.3364850263  CLST         860          1.0000000000
      2581       861  TIP3  OH2           5.1247443468      -10.2610841854       -4.4539065738  CLST         861          1.0000000000
      2582       861  TIP3  H1            4.5653009508      -10.3847289591       -3.6516399415  CLST         861          1.0000000000
      2583       861  TIP3  H2            4.5974923047      -10.9347056626       -4.7854525044  CLST         861          1.0000000000
      2584       862  TIP3  OH2         -11.1886482723       -2.9208758203      -12.7090748723  CLST         862          1.0000000000
      2585       862  TIP3  H1          -10.3596242684       -2.5151914517      -12.9622321276  CLST         862          1.0000000000
      2586       862  TIP3  H2          -10.7892779645       -2.9135763468      -11.8193968346  CLST         862          1.0000000000
      2587       863  TIP3  OH2          10.9402253526      -10.6013273966       -8.6968829666  CLST         863          1.0000000000
      2588       863  TIP3  H1           11.7003411028      -10.3540991135       -8.1286756344  CLST         863          1.0000000000
      2589       863  TIP3  H2           11.6138251991      -10.9390377771       -9.2925386148  CLST         863          1.0000000000
      2590       864  TIP3  OH2         -13.6297761428        3.4803535307        3.1754773583  CLST         864          1.0000000000
      2591       864  TIP3  H1          -14.5803146424        3.4286608398        3.4317332967  CLST         864          1.0000000000
      2592       864  TIP3  H2          -13.7785435820        4.4477178323        3.1244421582  CLST         864          1.0000000000
      2593       865  TIP3  OH2          12.8092072426        8.6053062374      -11.4133940238  CLST         865          1.0000000000
      2594       865  TIP3  H1           13.0365047989        7.7110791310      -11.5430188026  CLST         865          1.0000000000
      2595       865  TIP3  H2           12.8859586405        8.5447866594      -10.4490026314  CLST         865          1.0000000000
      2596       866  TIP3  OH2           6.6419725109      -10.3118985766       -8.3093751729  CLST         866          1.0000000000
      2597       866  TIP3  H1            6.1092427976      -11.1269447118       -8.1676259000  CLST         866          1.0000000000
      2598       866  TIP3  H2            6.8771439268      -10.8468887722       -9.1643298776  CLST         866          1.0000000000
      2599       867  TIP3  OH2          -8.4068308345       12.3096250496       -3.2147212019  CLST         867          1.0000000000
      2600       867  TIP3  H1           -8.8862408718       12.0418321730       -2.4122770267  CLST         867          1.0000000000
      2601       867  TIP3  H2           -8.0905244973       13.1363890404       -2.8690875310  CLST         867          1.0000000000
      2602       868  TIP3  OH2          -9.6928870696       13.1490133513       10.0576708791  CLST         868          1.0000000000
      2603       868  TIP3  H1           -8.9450767440       12.7642425794       10.5632667587  CLST         868          1.0000000000
      2604       868  TIP3  H2           -8.9906775928       13.7039998230        9.7402560254  CLST         868          1.0000000000
      2605       869  TIP3  OH2           3.3597513766       -1.7235818005        1.1474679189  CLST         869          1.0000000000
      2606       869  TIP3  H1            2.4981929333       -1.7451828973        0.7642929626  CLST         869          1.0000000000
      2607       869  TIP3  H2            2.9495372931       -1.1135698710        1.8304367344  CLST         869          1.0000000000
      2608       870  TIP3  OH2          -6.9153711293       -3.7336635083      -12.9419540789  CLST         870          1.0000000000
      2609       870  TIP3  H1           -5.9812856795       -3.7820455944      -12.8540840972  CLST         870          1.0000000000
      2610       870  TIP3  H2           -6.8216808635       -3.7741072141      -13.8937149461  CLST         870          1.0000000000
      2611       871  TIP3  OH2          -7.2371296812        2.3351942320       -9.9256704103  CLST         871          1.0000000000
      2612       871  TIP3  H1           -7.2352393266        2.8734126156      -10.6298243613  CLST         871          1.0000000000
      2613       871  TIP3  H2           -8.1726638844        2.4213714665       -9.7043148607  CLST         871          1.0000000000
      2614       872  TIP3  OH2         -13.1234009708       11.4920558352       -9.9005163004  CLST         872          1.0000000000
      2615       872  TIP3  H1          -13.2371769438       11.5596417654      -11.0622328812  CLST         872          1.0000000000
      2616       872  TIP3  H2          -13.1168663889       10.5959006411      -10.3569432271  CLST         872          1.0000000000
      2617       873  TIP3  OH2          12.0465801283       -4.2360600825       -9.9490558386  CLST         873          1.0000000000
      2618       873  TIP3  H1           11.4555666677       -3.5031407258      -10.1325691174  CLST         873          1.0000000000
      2619       873  TIP3  H2           12.1150262295       -4.4623708310      -10.8821929619  CLST         873          1.0000000000
      2620       874  TIP3  OH2          12.8323348078        8.4404710610       -8.5843971919  CLST         874          1.0000000000
      2621       874  TIP3  H1           13.1648333540        7.6453680248       -8.0306038815  CLST         874          1.0000000000
      2622       874  TIP3  H2           11.9394576455        8.3209356781       -8.2858595335  CLST         874          1.0000000000
      2623       875  TIP3  OH2           1.3103577075       -1.5243590602      -12.4935500920  CLST         875          1.0000000000
      2624       875  TIP3  H1            2.1742668243       -1.6750249764      -12.8131851452  CLST         875          1.0000000000
      2625       875  TIP3  H2            0.8987386613       -1.7460169581      -13.3208234392  CLST         875          1.0000000000
      2626       876  TIP3  OH2           9.0237039618        7.1519024406      -11.9118393182  CLST         876          1.0000000000
      2627       876  TIP3  H1            8.6474727481        7.2990674129      -12.7965323837  CLST         876          1.0000000000
      2628       876  TIP3  H2            8.1478090237        6.8782913326      -11.6912064003  CLST         876          1.0000000000
      2629       877  TIP3  OH2          -7.0744420897      -13.2922144306       -5.0825679112  CLST         877          1.0000000000
      2630       877  TIP3  H1           -7.7343469391      -12.8868237213       -4.5194592736  CLST         877          1.0000000000
      2631       877  TIP3  H2           -6.4336031995      -12.6421724194       -4.8611701396  CLST         877          1.0000000000
      2632       878  TIP3  OH2           5.6794225698      -11.2221639098        6.9536570511  CLST         878          1.0000000000
      2633       878  TIP3  H1            5.4245681420      -11.4823209191        6.0555496234  CLST         878          1.0000000000
      2634       878  TIP3  H2            5.3968102627      -10.3335230021        6.6873299967  CLST         878          1.0000000000
      2635       879  TIP3  OH2           2.8875872050        5.1699595177       -7.1620705505  CLST         879          1.0000000000
      2636       879  TIP3  H1            3.5448520219        5.5107960675       -7.6870777397  CLST         879          1.0000000000
      2637       879  TIP3  H2            3.4948231095        5.0280927118       -6.4046564443  CLST         879          1.0000000000
      2638       880  TIP3  OH2          -5.4885289387       -1.8206037981       14.9351675070  CLST         880          1.0000000000
      2639       880  TIP3  H1           -6.1347580875       -2.3649506204       14.4264713462  CLST         880          1.0000000000
      2640       880  TIP3  H2           -5.9338415517       -1.0022674479       14.8128436744  CLST         880          1.0000000000
      2641       881  TIP3  OH2          -0.4934621699       13.5833598013        8.5540812451  CLST         881          1.0000000000
      2642       881  TIP3  H1           -0.4973942015       13.2701645537        7.6986584831  CLST         881          1.0000000000
      2643       881  TIP3  H2           -1.4182695332       13.4452009236        8.6790440312  CLST         881          1.0000000000
      2644       882  TIP3  OH2          12.2399644318       -1.8960113962       -1.3995986892  CLST         882          1.0000000000
      2645       882  TIP3  H1           11.4581312597       -2.4093288504       -1.6131747195  CLST         882          1.0000000000
      2646       882  TIP3  H2           12.2337465902       -2.3257064770       -0.5246796220  CLST         882          1.0000000000
      2647       883  TIP3  OH2           1.6588676817       -9.5433781041       -4.4823201257  CLST         883          1.0000000000
      2648       883  TIP3  H1            2.2907688316       -9.3547719019       -3.8471240162  CLST         883          1.0000000000
      2649       883  TIP3  H2            2.1861069453       -9.6419595685       -5.2379111571  CLST         883          1.0000000000
      2650       884  TIP3  OH2         -14.1355911554       -5.8881291664      -13.1509943664  CLST         884          1.0000000000
      2651       884  TIP3  H1          -13.5572866501       -6.9237301567      -12.8923955732  CLST         884          1.0000000000
      2652       884  TIP3  H2          -14.6914305934       -6.6946377867      -12.8584569781  CLST         884          1.0000000000
      2653       885  TIP3  OH2           0.8043719495       14.7092833311       -0.4767440662  CLST         885          1.0000000000
      2654       885  TIP3  H1           -0.0836888925       14.5420762654       -0.3501228382  CLST         885          1.0000000000
      2655       885  TIP3  H2            1.0582187383       14.0642801536        0.1289042380  CLST         885          1.0000000000
      2656       886  TIP3  OH2          12.0083598139       10.0672800501        4.0059890824  CLST         886          1.0000000000
      2657       886  TIP3  H1           12.7708565292        9.5011411626        4.2584058104  CLST         886          1.0000000000
      2658       886  TIP3  H2           11.9658638221        9.9498000707        5.0916231181  CLST         886          1.0000000000
      2659       887  TIP3  OH2          -7.3437077128       -7.9498816482       -1.7773007382  CLST         887          1.0000000000
      2660       887  TIP3  H1           -7.1635555091       -8.8591173905       -2.1199369430  CLST         887          1.0000000000
      2661       887  TIP3  H2           -6.3967494855       -7.7326868561       -1.6557085477  CLST         887          1.0000000000
      2662       888  TIP3  OH2         -13.1951471012       -2.9124348344       10.4991386672  CLST         888          1.0000000000
      2663       888  TIP3  H1          -13.6304962621       -2.9434021623       11.3353627345  CLST         888          1.0000000000
      2664       888  TIP3  H2          -12.5713862292       -2.2298519322       10.7358834446  CLST         888          1.0000000000
      2665       889  TIP3  OH2           4.8354086183      -12.8977107945        8.8034805989  CLST         889          1.0000000000
      2666       889  TIP3  H1            5.5032291227      -12.4210407341        8.2606752751  CLST         889          1.0000000000
      2667       889  TIP3  H2            4.6910143754      -11.9820974698        9.1405953617  CLST         889          1.0000000000
      2668       890  TIP3  OH2         -13.6482319508        5.8391472197       -9.6398551098  CLST         890          1.0000000000
      2669       890  TIP3  H1          -13.3017892748        6.6822693843       -9.8891758646  CLST         890          1.0000000000
      2670       890  TIP3  H2          -14.3112981767        6.2829986933       -9.1285186319  CLST         890          1.0000000000
      2671       891  TIP3  OH2         -12.7687044452       -5.7896820232       10.7828490885  CLST         891          1.0000000000
      2672       891  TIP3  H1          -13.0027627846       -4.9186755916       10.5475914144  CLST         891          1.0000000000
      2673       891  TIP3  H2          -12.2157344270       -5.8606085797       10.0036347428  CLST         891          1.0000000000
      2674       892  TIP3  OH2           3.0792009127       13.7728249681       13.5760172337  CLST         892          1.0000000000
      2675       892  TIP3  H1            3.0904306436       14.3414272555       14.3327132660  CLST         892          1.0000000000
      2676       892  TIP3  H2            3.2581432059       13.0187075255       14.1182664989  CLST         892          1.0000000000
      2677       893  TIP3  OH2          -0.3305579589        7.3298314541        2.9943452954  CLST         893          1.0000000000
      2678       893  TIP3  H1           -0.9279845247        6.6228630090        3.0930814071  CLST         893          1.0000000000
      2679       893  TIP3  H2           -0.9707968397        7.7986806315        2.4900205358  CLST         893          1.0000000000
      2680       894  TIP3  OH2           9.3753251187       11.2824023378        0.2884190588  CLST         894          1.0000000000
      2681       894  TIP3  H1            9.8457533833       11.8830636238        0.7780895263  CLST         894          1.0000000000
      2682       894  TIP3  H2            8.4442939733       11.6629223343        0.2692951290  CLST         894          1.0000000000
      2683       895  TIP3  OH2          -9.8867640503       10.4476188527      -10.7375637307  CLST         895          1.0000000000
      2684       895  TIP3  H1          -10.2723952678       11.2809591063      -10.5329461955  CLST         895          1.0000000000
      2685       895  TIP3  H2           -9.0852802481       10.9474780493      -10.8857206694  CLST         895          1.0000000000
      2686       896  TIP3  OH2           8.0150347939       -6.8685938423       -0.3623480612  CLST         896          1.0000000000
      2687       896  TIP3  H1            7.8178141325       -6.6344255566       -1.2274452680  CLST         896          1.0000000000
      2688       896  TIP3  H2            8.5558190732       -7.6045380388       -0.6304633717  CLST         896          1.0000000000
      2689       897  TIP3  OH2           9.5895829204       -2.2901191876       -9.0411608455  CLST         897          1.0000000000
      2690       897  TIP3  H1            9.4947607619       -2.8921331601       -8.3081967275  CLST         897          1.0000000000
      2691       897  TIP3  H2            9.4471243902       -1.4951172304       -8.5490670906  CLST         897          1.0000000000
      2692       898  TIP3  OH2          13.8376011865        5.9998552234      -11.8949990726  CLST         898          1.0000000000
      2693       898  TIP3  H1           13.8936591925        5.1366882641      -11.3998336719  CLST         898          1.0000000000
      2694       898  TIP3  H2           12.8854072993        5.9231884088      -11.6737873414  CLST         898          1.0000000000
      2695       899  TIP3  OH2          14.2510914087       -6.5282368260        1.8130458928  CLST         899          1.0000000000
      2696       899  TIP3  H1           14.2825103993       -7.3047920740        1.2636603367  CLST         899          1.0000000000
      2697       899  TIP3  H2           13.5669013676       -6.7510234335        2.4647526173  CLST         899          1.0000000000
      2698       900  TIP3  OH2          -9.8237690622      -10.2171679609        9.9626167015  CLST         900          1.0000000000
      2699       900  TIP3  H1           -9.5515944357       -9.1255151122       10.3193081612  CLST         900          1.0000000000
      2700       900  TIP3  H2           -9.0175387537       -9.9478282427        9.5185021852  CLST         900          1.0000000000
      2701       901  TIP3  OH2          10.1694009833        8.6434145657       -8.5349453754  CLST         901          1.0000000000
      2702       901  TIP3  H1            9.9156717453        9.4798178842       -8.9719184612  CLST         901          1.0000000000
      2703       901  TIP3  H2            9.6177592514        8.0478984681       -9.0028970490  CLST         901          1.0000000000
      2704       902  TIP3  OH2           3.7494541014        0.3621898726       10.0141855370  CLST         902          1.0000000000
      2705       902  TIP3  H1            4.2095840054       -0.0074501465        9.2632348545  CLST         902          1.0000000000
      2706       902  TIP3  H2            3.3238789219        1.0175624126        9.4092449227  CLST         902          1.0000000000
      2707       903  TIP3  OH2          -0.8947643368        0.7362621688       -8.2862251035  CLST         903          1.0000000000
      2708       903  TIP3  H1           -0.9848715503        0.7212613607       -9.2552162888  CLST         903          1.0000000000
      2709       903  TIP3  H2           -0.3828105312       -0.0246659498       -8.3409984701  CLST         903          1.0000000000
