* Geometry rescue: EQUI at step 1500
*
        2709  EXT
         1         1  TIP3  OH2           5.3975656449        0.8032747604       -3.7756610814  CLST           1          1.0000000000
         2         1  TIP3  H1            5.2875596627        0.5405784473       -2.8520329497  CLST           1          1.0000000000
         3         1  TIP3  H2            4.4603661264        0.9761903170       -4.0521714379  CLST           1          1.0000000000
         4         2  TIP3  OH2          14.8710373230       -2.2968889797       -1.4916392378  CLST           2          1.0000000000
         5         2  TIP3  H1           13.9257151452       -2.1479274065       -1.2855650208  CLST           2          1.0000000000
         6         2  TIP3  H2           14.9366534315       -3.2407370427       -1.2391688705  CLST           2          1.0000000000
         7         3  TIP3  OH2          -8.5913390137       -6.5193192875       -7.6123099054  CLST           3          1.0000000000
         8         3  TIP3  H1           -9.4361171162       -6.0191105131       -7.6382407013  CLST           3          1.0000000000
         9         3  TIP3  H2           -8.3939259574       -6.5996466054       -8.5792419479  CLST           3          1.0000000000
        10         4  TIP3  OH2          -9.3314954417       -3.9779511003       12.8903251095  CLST           4          1.0000000000
        11         4  TIP3  H1          -10.1486709590       -4.5790342058       12.9589343601  CLST           4          1.0000000000
        12         4  TIP3  H2           -9.0166322169       -4.2050516424       11.9969660996  CLST           4          1.0000000000
        13         5  TIP3  OH2          -3.4071163076      -10.2274634868       14.3823605309  CLST           5          1.0000000000
        14         5  TIP3  H1           -3.9772623087      -10.8519831388       14.9366534315  CLST           5          1.0000000000
        15         5  TIP3  H2           -3.4876388344      -10.5436078636       13.4778862240  CLST           5          1.0000000000
        16         6  TIP3  OH2          -3.4587264627        9.3629597925       13.9678113306  CLST           6          1.0000000000
        17         6  TIP3  H1           -1.5986255962       10.0478029443       13.8406695656  CLST           6          1.0000000000
        18         6  TIP3  H2           -3.2586382150        9.2832134033       14.9366534315  CLST           6          1.0000000000
        19         7  TIP3  OH2          -5.1094161415       -1.3297767186        8.8141119934  CLST           7          1.0000000000
        20         7  TIP3  H1           -4.4076474562       -0.9537807518        8.2232607959  CLST           7          1.0000000000
        21         7  TIP3  H2           -5.1582566434       -2.1535224103        8.2599991982  CLST           7          1.0000000000
        22         8  TIP3  OH2          -7.1992518601       -4.5375228776       -1.1421954670  CLST           8          1.0000000000
        23         8  TIP3  H1           -7.1692722683       -4.7554376501       -0.1661015440  CLST           8          1.0000000000
        24         8  TIP3  H2           -6.2587717650       -4.7362316250       -1.3492026348  CLST           8          1.0000000000
        25         9  TIP3  OH2         -12.9547200856       -5.2396279152        0.2734996457  CLST           9          1.0000000000
        26         9  TIP3  H1          -13.8918777996       -5.1712053538       -0.0270307096  CLST           9          1.0000000000
        27         9  TIP3  H2          -12.7964897067       -4.2480273524        0.3647130839  CLST           9          1.0000000000
        28        10  TIP3  OH2          -4.4515057106        8.0230095277       -8.7285761894  CLST          10          1.0000000000
        29        10  TIP3  H1           -4.4210632443        9.0023306841       -8.5818148433  CLST          10          1.0000000000
        30        10  TIP3  H2           -3.4466259853        7.8948001629       -8.7805345016  CLST          10          1.0000000000
        31        11  TIP3  OH2           5.9271716190       12.6567291724       10.7592449266  CLST          11          1.0000000000
        32        11  TIP3  H1            5.0897045089       13.1630771007       10.8368314240  CLST          11          1.0000000000
        33        11  TIP3  H2            5.5782588326       11.8045069936       11.1207519047  CLST          11          1.0000000000
        34        12  TIP3  OH2         -11.6818390204      -13.1680534852       -3.1267217450  CLST          12          1.0000000000
        35        12  TIP3  H1          -12.2575926740      -12.4657054100       -2.7666329499  CLST          12          1.0000000000
        36        12  TIP3  H2          -12.0478175202      -13.3842398749       -4.0154126691  CLST          12          1.0000000000
        37        13  TIP3  OH2          -0.7436602999      -10.8861793179        3.0171785265  CLST          13          1.0000000000
        38        13  TIP3  H1            0.2063596203      -11.1498103967        2.7882391341  CLST          13          1.0000000000
        39        13  TIP3  H2           -0.4955824066      -10.5762507270        3.9230602297  CLST          13          1.0000000000
        40        14  TIP3  OH2          -1.6709004452        5.2722917428        7.9265524083  CLST          14          1.0000000000
        41        14  TIP3  H1           -1.7073518516        5.0599131991        8.8838647639  CLST          14          1.0000000000
        42        14  TIP3  H2           -0.7945704617        4.9365461482        7.6844210874  CLST          14          1.0000000000
        43        15  TIP3  OH2           1.0448139493       -1.2492707197       -4.6261241312  CLST          15          1.0000000000
        44        15  TIP3  H1            0.4701752502       -0.6576117310       -4.1052505273  CLST          15          1.0000000000
        45        15  TIP3  H2            1.2738217160       -1.9809953885       -3.9665865485  CLST          15          1.0000000000
        46        16  TIP3  OH2          -4.7325462598       -6.1696919048       13.7690300130  CLST          16          1.0000000000
        47        16  TIP3  H1           -4.0495844617       -6.8414760316       13.9238172771  CLST          16          1.0000000000
        48        16  TIP3  H2           -5.1619542018       -6.2058502355       14.6596022110  CLST          16          1.0000000000
        49        17  TIP3  OH2           8.4889843193       -0.4872781345        2.5305604213  CLST          17          1.0000000000
        50        17  TIP3  H1            7.8164897412       -1.1793748283        2.7312542367  CLST          17          1.0000000000
        51        17  TIP3  H2            9.2483263072       -1.1261037651        2.3640605548  CLST          17          1.0000000000
        52        18  TIP3  OH2           2.6207238657       -8.1951870537       -8.5500363114  CLST          18          1.0000000000
        53        18  TIP3  H1            2.8714657523       -7.4256990698       -7.9745047927  CLST          18          1.0000000000
        54        18  TIP3  H2            2.8160279685       -8.9226274123       -7.8657473558  CLST          18          1.0000000000
        55        19  TIP3  OH2           6.9895306723        7.7620973826       14.1733762863  CLST          19          1.0000000000
        56        19  TIP3  H1            7.4418659503        7.0938975901       14.7365666879  CLST          19          1.0000000000
        57        19  TIP3  H2            6.7505803847        8.3787586939       14.9366534315  CLST          19          1.0000000000
        58        20  TIP3  OH2           4.0553616110        9.4523924855        9.0422908800  CLST          20          1.0000000000
        59        20  TIP3  H1            3.3006315547        9.9545404712        8.6463068188  CLST          20          1.0000000000
        60        20  TIP3  H2            3.7574827746        8.5789816796        8.6817746796  CLST          20          1.0000000000
        61        21  TIP3  OH2           0.5469013844       -8.4714905562        1.0032524259  CLST          21          1.0000000000
        62        21  TIP3  H1            0.4744144331       -8.1546410374        1.9507428978  CLST          21          1.0000000000
        63        21  TIP3  H2           -0.3447617750       -8.9392771096        1.0413496148  CLST          21          1.0000000000
        64        22  TIP3  OH2          11.4555451001       -9.4382504903       10.4185147009  CLST          22          1.0000000000
        65        22  TIP3  H1           11.1222155299       -8.9501293891        9.6352363254  CLST          22          1.0000000000
        66        22  TIP3  H2           10.9158728430      -10.2389533808       10.2779140249  CLST          22          1.0000000000
        67        23  TIP3  OH2          12.2175671925      -14.3862524585      -10.9135817999  CLST          23          1.0000000000
        68        23  TIP3  H1           11.6498838375      -14.9295136414      -10.3189628945  CLST          23          1.0000000000
        69        23  TIP3  H2           13.1412355225      -14.6121022022      -10.4959133012  CLST          23          1.0000000000
        70        24  TIP3  OH2          12.8871265076       -7.1996835936       14.2044730363  CLST          24          1.0000000000
        71        24  TIP3  H1           12.3106730171       -7.2008885742       13.3820204548  CLST          24          1.0000000000
        72        24  TIP3  H2           12.2739442735       -7.0836123841       14.9366534315  CLST          24          1.0000000000
        73        25  TIP3  OH2           0.0799386308       -5.5074886704        5.5650035276  CLST          25          1.0000000000
        74        25  TIP3  H1           -0.5377889223       -5.3779675742        4.8004864416  CLST          25          1.0000000000
        75        25  TIP3  H2           -0.1349945696       -6.3526885513        6.0089946533  CLST          25          1.0000000000
        76        26  TIP3  OH2          -5.5762448765       -5.4786147803       -7.8655007102  CLST          26          1.0000000000
        77        26  TIP3  H1           -6.5181675886       -5.6829890625       -8.0036866984  CLST          26          1.0000000000
        78        26  TIP3  H2           -5.3050039825       -5.6560212675       -8.7989323546  CLST          26          1.0000000000
        79        27  TIP3  OH2           4.1591263869       12.1953975873       -0.7822272544  CLST          27          1.0000000000
        80        27  TIP3  H1            5.1073965533       12.0266032955       -0.4640917794  CLST          27          1.0000000000
        81        27  TIP3  H2            4.1004885920       13.1713822508       -0.8337370518  CLST          27          1.0000000000
        82        28  TIP3  OH2          -5.0599634197       -6.1974800696        6.6983144087  CLST          28          1.0000000000
        83        28  TIP3  H1           -4.1124557112       -6.4484316113        6.6959660954  CLST          28          1.0000000000
        84        28  TIP3  H2           -5.2672899729       -6.5592666956        5.8084734137  CLST          28          1.0000000000
        85        29  TIP3  OH2           4.1310847463      -10.1008566254       13.1442953134  CLST          29          1.0000000000
        86        29  TIP3  H1            4.9866342286       -9.6567122259       13.0300000623  CLST          29          1.0000000000
        87        29  TIP3  H2            3.5543852119       -9.3060078274       13.0750511899  CLST          29          1.0000000000
        88        30  TIP3  OH2          -0.9310539263       -3.4718741480       11.8794374566  CLST          30          1.0000000000
        89        30  TIP3  H1           -1.5339763474       -3.8984077243       12.5280648927  CLST          30          1.0000000000
        90        30  TIP3  H2           -0.3380381663       -2.9369013449       12.4512899698  CLST          30          1.0000000000
        91        31  TIP3  OH2          -5.6201397138      -10.0779814255       -9.7991328976  CLST          31          1.0000000000
        92        31  TIP3  H1           -6.5444532234       -9.8688153468       -9.4900851402  CLST          31          1.0000000000
        93        31  TIP3  H2           -5.0741832075       -9.4477721496       -9.3162192436  CLST          31          1.0000000000
        94        32  TIP3  OH2           4.3848815175        6.4671156000       14.9357703893  CLST          32          1.0000000000
        95        32  TIP3  H1            5.1030411049        6.5403819304       14.2776079056  CLST          32          1.0000000000
        96        32  TIP3  H2            3.6092523442        6.3058596694       14.3488361066  CLST          32          1.0000000000
        97        33  TIP3  OH2           1.7054260827       -5.3208579701       11.9850155754  CLST          33          1.0000000000
        98        33  TIP3  H1            1.9045125847       -4.7050905408       12.7468617093  CLST          33          1.0000000000
        99        33  TIP3  H2            1.6954365253       -4.7303765680       11.2181024821  CLST          33          1.0000000000
       100        34  TIP3  OH2         -12.4007104416       -6.7534701167        5.6297781195  CLST          34          1.0000000000
       101        34  TIP3  H1          -12.1540439259       -6.3526721612        4.7788310690  CLST          34          1.0000000000
       102        34  TIP3  H2          -13.3106772625       -6.4199469922        5.6813522419  CLST          34          1.0000000000
       103        35  TIP3  OH2         -12.6741260489        9.3001273223       14.3528236106  CLST          35          1.0000000000
       104        35  TIP3  H1          -12.9970728080        9.8674750692       13.5861107470  CLST          35          1.0000000000
       105        35  TIP3  H2          -13.4497436180        9.0091987719       14.7874547447  CLST          35          1.0000000000
       106        36  TIP3  OH2           6.7470217308       -8.7632218056      -11.7170613177  CLST          36          1.0000000000
       107        36  TIP3  H1            7.4036905590       -9.2116150559      -11.1235603868  CLST          36          1.0000000000
       108        36  TIP3  H2            7.1247157922       -9.0599965403      -12.5969652072  CLST          36          1.0000000000
       109        37  TIP3  OH2          10.3708938240      -11.8829556992        6.4931092083  CLST          37          1.0000000000
       110        37  TIP3  H1            9.6084617446      -11.7270018290        7.1004734041  CLST          37          1.0000000000
       111        37  TIP3  H2           10.9016126877      -12.3770236697        7.1605502961  CLST          37          1.0000000000
       112        38  TIP3  OH2           5.7416284086      -12.0473971331       -0.5875823669  CLST          38          1.0000000000
       113        38  TIP3  H1            6.5516663832      -12.4853682041       -0.2462491617  CLST          38          1.0000000000
       114        38  TIP3  H2            5.6996317971      -12.2639431458       -1.5187912168  CLST          38          1.0000000000
       115        39  TIP3  OH2          13.4260615791        6.3566845260       -6.7324578856  CLST          39          1.0000000000
       116        39  TIP3  H1           13.5353109924        5.4289463557       -7.0484728018  CLST          39          1.0000000000
       117        39  TIP3  H2           12.6977688809        6.1551605445       -6.0930793258  CLST          39          1.0000000000
       118        40  TIP3  OH2          -4.6963676889       14.3227461066       -5.9842446996  CLST          40          1.0000000000
       119        40  TIP3  H1           -5.4619226523       14.4203901791       -5.4058796028  CLST          40          1.0000000000
       120        40  TIP3  H2           -4.0340693480       13.7518061103       -5.5269241272  CLST          40          1.0000000000
       121        41  TIP3  OH2          11.1168021212        5.4205026261      -11.1470756599  CLST          41          1.0000000000
       122        41  TIP3  H1           10.9874898384        4.9472315057      -12.0225066721  CLST          41          1.0000000000
       123        41  TIP3  H2           10.4089125030        6.1439254216      -11.3188041071  CLST          41          1.0000000000
       124        42  TIP3  OH2          -1.2475104534       -6.9866638027       -2.2555973063  CLST          42          1.0000000000
       125        42  TIP3  H1           -1.4402284827       -6.1460496390       -2.7128235247  CLST          42          1.0000000000
       126        42  TIP3  H2           -1.2817136242       -7.6212998231       -3.0214700734  CLST          42          1.0000000000
       127        43  TIP3  OH2           9.8265157837      -11.0922315754       -1.8830240469  CLST          43          1.0000000000
       128        43  TIP3  H1            9.7972908716      -11.3163384695       -0.9306543188  CLST          43          1.0000000000
       129        43  TIP3  H2            9.4020271646      -11.9501402070       -2.2250905608  CLST          43          1.0000000000
       130        44  TIP3  OH2           0.4600222503       -3.0940070242        6.4816399396  CLST          44          1.0000000000
       131        44  TIP3  H1           -0.1797474561       -3.0879594833        7.2173577084  CLST          44          1.0000000000
       132        44  TIP3  H2            0.2020138418       -3.9716935519        6.0762890508  CLST          44          1.0000000000
       133        45  TIP3  OH2           4.7838836737       -6.3734191330        9.3182437046  CLST          45          1.0000000000
       134        45  TIP3  H1            4.5382275808       -5.4244399618        9.2116735308  CLST          45          1.0000000000
       135        45  TIP3  H2            5.0355120062       -6.3049523396       10.2731242468  CLST          45          1.0000000000
       136        46  TIP3  OH2           7.6418076410        4.7820478348       -8.1296171602  CLST          46          1.0000000000
       137        46  TIP3  H1            7.1220607377        5.3736961984       -7.5393586968  CLST          46          1.0000000000
       138        46  TIP3  H2            7.1071243034        4.7537350250       -8.9503660560  CLST          46          1.0000000000
       139        47  TIP3  OH2         -10.8812612176      -11.0856784610        3.2446020952  CLST          47          1.0000000000
       140        47  TIP3  H1          -11.3857823915      -10.3760676688        3.6976899236  CLST          47          1.0000000000
       141        47  TIP3  H2          -10.7462615804      -11.6431866213        4.0693854058  CLST          47          1.0000000000
       142        48  TIP3  OH2         -14.3243635692        9.4778485996        8.6810304073  CLST          48          1.0000000000
       143        48  TIP3  H1          -14.2615735636        9.7669062435        7.7465805987  CLST          48          1.0000000000
       144        48  TIP3  H2          -13.3847548408        9.6930229116        8.8384517930  CLST          48          1.0000000000
       145        49  TIP3  OH2           8.6777882713       -4.3389748399        4.0280701656  CLST          49          1.0000000000
       146        49  TIP3  H1            7.7048996412       -4.4711216140        4.1734793621  CLST          49          1.0000000000
       147        49  TIP3  H2            8.6633709657       -4.3281553073        3.0570848439  CLST          49          1.0000000000
       148        50  TIP3  OH2          11.3438932919        5.7893720675       -5.0762347394  CLST          50          1.0000000000
       149        50  TIP3  H1           11.5011776986        5.1435888485       -4.3533803005  CLST          50          1.0000000000
       150        50  TIP3  H2           10.3436416552        5.6393217295       -4.9800999503  CLST          50          1.0000000000
       151        51  TIP3  OH2          12.9433923192       -1.3016340385      -10.5805505427  CLST          51          1.0000000000
       152        51  TIP3  H1           13.3675454300       -1.9780550432      -11.2054869816  CLST          51          1.0000000000
       153        51  TIP3  H2           12.6893922422       -0.7558485408      -11.4069359145  CLST          51          1.0000000000
       154        52  TIP3  OH2          -1.5692078987       -1.5116095298       10.1681571959  CLST          52          1.0000000000
       155        52  TIP3  H1           -2.4093180747       -1.1333185013       10.4366964337  CLST          52          1.0000000000
       156        52  TIP3  H2           -1.4012526797       -2.1783087856       10.8667519289  CLST          52          1.0000000000
       157        53  TIP3  OH2         -10.9535988628       14.0836390349       -6.9503029611  CLST          53          1.0000000000
       158        53  TIP3  H1          -11.6419135628       14.7786071306       -6.9321782868  CLST          53          1.0000000000
       159        53  TIP3  H2          -10.1340538267       14.6627901282       -6.7431419482  CLST          53          1.0000000000
       160        54  TIP3  OH2         -13.8332719554       -5.4857010692       -8.1793912981  CLST          54          1.0000000000
       161        54  TIP3  H1          -12.8292224371       -5.4714974045       -8.1892944332  CLST          54          1.0000000000
       162        54  TIP3  H2          -13.9395648144       -4.9941811069       -9.0674877517  CLST          54          1.0000000000
       163        55  TIP3  OH2           0.4621034421        9.4562221400      -10.6344642789  CLST          55          1.0000000000
       164        55  TIP3  H1           -0.4287408546        9.7831974130      -10.7700679196  CLST          55          1.0000000000
       165        55  TIP3  H2            0.8946386245       10.2397184239      -10.2195942192  CLST          55          1.0000000000
       166        56  TIP3  OH2          -1.6103129554       -5.1742528271       13.9957852339  CLST          56          1.0000000000
       167        56  TIP3  H1           -2.2941570068       -4.8182250440       14.6303553228  CLST          56          1.0000000000
       168        56  TIP3  H2           -1.8411230358       -6.1207552965       13.8876377241  CLST          56          1.0000000000
       169        57  TIP3  OH2         -10.3368203672       11.3346886893       -1.4488208775  CLST          57          1.0000000000
       170        57  TIP3  H1          -10.7739719464       11.7062983233       -0.6530650446  CLST          57          1.0000000000
       171        57  TIP3  H2          -11.0608106086       11.5570482359       -2.1115050985  CLST          57          1.0000000000
       172        58  TIP3  OH2           9.8976221920        1.4934202797        0.2616793296  CLST          58          1.0000000000
       173        58  TIP3  H1            8.9968546981        1.1186879964        0.3894599978  CLST          58          1.0000000000
       174        58  TIP3  H2            9.7579255691        2.3786637519        0.7298380302  CLST          58          1.0000000000
       175        59  TIP3  OH2         -13.1484592971       13.1521274932        5.1739017035  CLST          59          1.0000000000
       176        59  TIP3  H1          -13.1196611658       13.4770012280        4.2600261074  CLST          59          1.0000000000
       177        59  TIP3  H2          -12.3296462380       12.6059219809        5.0695981986  CLST          59          1.0000000000
       178        60  TIP3  OH2          -4.0238527764        3.1145472203        7.1485773906  CLST          60          1.0000000000
       179        60  TIP3  H1           -3.5306483475        2.3159746105        7.4820067488  CLST          60          1.0000000000
       180        60  TIP3  H2           -3.3132317337        3.7703908397        7.2815242028  CLST          60          1.0000000000
       181        61  TIP3  OH2           0.3237043619       -1.9101311136        0.4096953720  CLST          61          1.0000000000
       182        61  TIP3  H1           -0.2084758951       -1.5347289127        1.1709108559  CLST          61          1.0000000000
       183        61  TIP3  H2           -0.0452493848       -2.8115298145        0.3568871994  CLST          61          1.0000000000
       184        62  TIP3  OH2          -3.8408824709        8.8127410880        4.4238919276  CLST          62          1.0000000000
       185        62  TIP3  H1           -3.2627340450        8.1674034814        4.9030031782  CLST          62          1.0000000000
       186        62  TIP3  H2           -3.1337090820        9.4243592658        4.1519653098  CLST          62          1.0000000000
       187        63  TIP3  OH2          -0.3286970465        7.6852342107       -3.0739469154  CLST          63          1.0000000000
       188        63  TIP3  H1           -0.5463728786        8.3124144785       -3.7927761411  CLST          63          1.0000000000
       189        63  TIP3  H2           -1.0158313171        7.8266672410       -2.3796885257  CLST          63          1.0000000000
       190        64  TIP3  OH2         -13.6065933570        3.3921776995       -3.5283000626  CLST          64          1.0000000000
       191        64  TIP3  H1          -12.7294910962        3.8357759576       -3.4538484110  CLST          64          1.0000000000
       192        64  TIP3  H2          -14.3424859767        4.0617455476       -3.4516595394  CLST          64          1.0000000000
       193        65  TIP3  OH2          -9.3005245470      -12.0046205477      -11.7086754713  CLST          65          1.0000000000
       194        65  TIP3  H1           -9.1935078888      -12.3429497809      -10.7673219824  CLST          65          1.0000000000
       195        65  TIP3  H2          -10.2765808549      -11.8414273233      -11.6652962606  CLST          65          1.0000000000
       196        66  TIP3  OH2          13.1318277715       -7.8606887003        3.7926184886  CLST          66          1.0000000000
       197        66  TIP3  H1           13.3344995712       -8.5036304674        3.0546098983  CLST          66          1.0000000000
       198        66  TIP3  H2           12.8351437177       -8.5239978194        4.4996635122  CLST          66          1.0000000000
       199        67  TIP3  OH2           7.4150804342       -0.7177836536       -6.3528586833  CLST          67          1.0000000000
       200        67  TIP3  H1            7.9052524682       -1.3233010539       -5.7477490340  CLST          67          1.0000000000
       201        67  TIP3  H2            8.1759743794       -0.3938493144       -6.9025347817  CLST          67          1.0000000000
       202        68  TIP3  OH2          -6.9807542267        1.0005523847        0.7393237547  CLST          68          1.0000000000
       203        68  TIP3  H1           -7.6661549387        0.4284140433        1.1927995493  CLST          68          1.0000000000
       204        68  TIP3  H2           -6.7513312170        1.6534034341        1.4245923854  CLST          68          1.0000000000
       205        69  TIP3  OH2         -11.7105638122       -0.6575338925        7.0809501214  CLST          69          1.0000000000
       206        69  TIP3  H1          -10.7840259426       -0.8992111872        7.3752353144  CLST          69          1.0000000000
       207        69  TIP3  H2          -11.7253163098        0.3331683597        7.1356167353  CLST          69          1.0000000000
       208        70  TIP3  OH2          -1.7921314667        7.3586495150       -8.2907779484  CLST          70          1.0000000000
       209        70  TIP3  H1           -0.8275616154        7.1547819294       -8.4663303615  CLST          70          1.0000000000
       210        70  TIP3  H2           -1.5667275837        8.2516681040       -7.8703402421  CLST          70          1.0000000000
       211        71  TIP3  OH2         -13.4509772108       -1.6832366265       -5.5572301250  CLST          71          1.0000000000
       212        71  TIP3  H1          -12.9224616767       -1.5023618088       -4.6894538410  CLST          71          1.0000000000
       213        71  TIP3  H2          -13.5145524041       -0.7686239703       -5.8602420726  CLST          71          1.0000000000
       214        72  TIP3  OH2          11.0294175760       -2.6468594810        4.8854642921  CLST          72          1.0000000000
       215        72  TIP3  H1           10.5050064676       -2.9208396897        4.0948541507  CLST          72          1.0000000000
       216        72  TIP3  H2           11.3734574194       -1.8031323886        4.4792102436  CLST          72          1.0000000000
       217        73  TIP3  OH2          -3.5356856744      -13.5112180434       -6.6703970689  CLST          73          1.0000000000
       218        73  TIP3  H1           -3.8474021044      -13.4211238186       -7.6120734436  CLST          73          1.0000000000
       219        73  TIP3  H2           -3.9351004301      -14.3615387693       -6.3396029087  CLST          73          1.0000000000
       220        74  TIP3  OH2          -4.6797061435       12.4314556680       -1.5503718087  CLST          74          1.0000000000
       221        74  TIP3  H1           -5.1932901731       11.6388287030       -1.9169302699  CLST          74          1.0000000000
       222        74  TIP3  H2           -5.4235707897       13.0939825107       -1.5887670421  CLST          74          1.0000000000
       223        75  TIP3  OH2          -9.6822149359        4.6788628299        5.3369821817  CLST          75          1.0000000000
       224        75  TIP3  H1           -8.8923413901        5.0410410326        5.7274330166  CLST          75          1.0000000000
       225        75  TIP3  H2          -10.3071829947        5.0543068046        6.0089052037  CLST          75          1.0000000000
       226        76  TIP3  OH2           8.3263736741       13.3073820958       -9.1566644746  CLST          76          1.0000000000
       227        76  TIP3  H1            8.5446449761       13.5633367409      -10.1070389486  CLST          76          1.0000000000
       228        76  TIP3  H2            9.3668801261       13.1634843578       -8.9993479806  CLST          76          1.0000000000
       229        77  TIP3  OH2           0.5424031409       -5.2474188635       -5.3384373843  CLST          77          1.0000000000
       230        77  TIP3  H1            0.7816398191       -5.0518247020       -6.2624447542  CLST          77          1.0000000000
       231        77  TIP3  H2           -0.3608722384       -5.6142905298       -5.4950100675  CLST          77          1.0000000000
       232        78  TIP3  OH2          -5.4254025134       -8.2840281426        1.5480004583  CLST          78          1.0000000000
       233        78  TIP3  H1           -5.2795610473       -7.7361756407        0.7338535472  CLST          78          1.0000000000
       234        78  TIP3  H2           -6.1411440345       -8.8846464646        1.1489670609  CLST          78          1.0000000000
       235        79  TIP3  OH2           6.8691980682      -14.2671518510       10.1527107476  CLST          79          1.0000000000
       236        79  TIP3  H1            6.4755554984      -14.2951329023       11.0528133199  CLST          79          1.0000000000
       237        79  TIP3  H2            6.1760406003      -13.9205311589        9.5535877232  CLST          79          1.0000000000
       238        80  TIP3  OH2           6.5972825108       -0.0830639256      -13.0721955620  CLST          80          1.0000000000
       239        80  TIP3  H1            6.8874102155        0.2983563478      -13.9545921627  CLST          80          1.0000000000
       240        80  TIP3  H2            7.4768824346       -0.0812265632      -12.6393278824  CLST          80          1.0000000000
       241        81  TIP3  OH2          -7.4037774129        1.0965964785        5.9933168379  CLST          81          1.0000000000
       242        81  TIP3  H1           -8.3247120193        1.4709807365        5.8520692072  CLST          81          1.0000000000
       243        81  TIP3  H2           -6.8937482448        1.9330460392        5.6994850116  CLST          81          1.0000000000
       244        82  TIP3  OH2           2.0840518550       -1.7966406722       10.8982623376  CLST          82          1.0000000000
       245        82  TIP3  H1            2.5090379027       -1.0497622413       10.4298838577  CLST          82          1.0000000000
       246        82  TIP3  H2            2.8573717737       -2.4270982347       10.8257010395  CLST          82          1.0000000000
       247        83  TIP3  OH2          10.2843223992        8.4420333857       -5.0091393794  CLST          83          1.0000000000
       248        83  TIP3  H1           10.7882871997        7.6771510651       -5.4058589862  CLST          83          1.0000000000
       249        83  TIP3  H2           10.4923252080        8.1465384326       -4.0799125813  CLST          83          1.0000000000
       250        84  TIP3  OH2         -13.4567932139        8.1183082681       -1.2137718631  CLST          84          1.0000000000
       251        84  TIP3  H1          -14.1024382065        7.5280920246       -0.6736158448  CLST          84          1.0000000000
       252        84  TIP3  H2          -12.6826678766        7.5309609052       -1.0559470203  CLST          84          1.0000000000
       253        85  TIP3  OH2           2.4060550694       -1.5823867851        7.7069126217  CLST          85          1.0000000000
       254        85  TIP3  H1            1.7879034508       -2.2671679312        7.3798836313  CLST          85          1.0000000000
       255        85  TIP3  H2            3.2242481146       -2.1318621850        7.7573966769  CLST          85          1.0000000000
       256        86  TIP3  OH2           8.0072328941       -9.1401831817        9.9166455347  CLST          86          1.0000000000
       257        86  TIP3  H1            8.4378170106       -8.4188710271       10.4305478238  CLST          86          1.0000000000
       258        86  TIP3  H2            7.6828722015       -9.7952940745       10.5789110420  CLST          86          1.0000000000
       259        87  TIP3  OH2           0.5018252300       -1.3425452563       12.9652139615  CLST          87          1.0000000000
       260        87  TIP3  H1            1.0264266679       -1.3844584466       12.0914496738  CLST          87          1.0000000000
       261        87  TIP3  H2            0.2459379628       -0.3702804641       12.9899267323  CLST          87          1.0000000000
       262        88  TIP3  OH2          14.3189630673      -11.2850545676        8.2606116615  CLST          88          1.0000000000
       263        88  TIP3  H1           13.4334389881      -11.6725355605        8.4417460814  CLST          88          1.0000000000
       264        88  TIP3  H2           14.7357614722      -11.9926301603        8.7643604561  CLST          88          1.0000000000
       265        89  TIP3  OH2           6.8122429486       11.6636068918       -3.9963495785  CLST          89          1.0000000000
       266        89  TIP3  H1            5.8451100855       11.6209625211       -3.8540797399  CLST          89          1.0000000000
       267        89  TIP3  H2            7.0562940185       10.8704373212       -3.4113667351  CLST          89          1.0000000000
       268        90  TIP3  OH2          14.4615656486       -4.7734186716       -0.3794037890  CLST          90          1.0000000000
       269        90  TIP3  H1           13.9555114259       -5.0176296695       -1.2405861753  CLST          90          1.0000000000
       270        90  TIP3  H2           14.1177232038       -5.5157500469        0.2198689855  CLST          90          1.0000000000
       271        91  TIP3  OH2          11.5071793447       10.5679531017       -5.6924872072  CLST          91          1.0000000000
       272        91  TIP3  H1           11.0204552528        9.6969781984       -5.4621374164  CLST          91          1.0000000000
       273        91  TIP3  H2           10.7893755420       11.1793021861       -5.5494553701  CLST          91          1.0000000000
       274        92  TIP3  OH2          -6.1818501076        3.6121005239        8.6961969746  CLST          92          1.0000000000
       275        92  TIP3  H1           -5.4795234440        3.3443935065        8.0334722902  CLST          92          1.0000000000
       276        92  TIP3  H2           -6.3740523765        2.6538486118        9.0015322439  CLST          92          1.0000000000
       277        93  TIP3  OH2           5.1958824642       -6.3772325463       11.9642547192  CLST          93          1.0000000000
       278        93  TIP3  H1            5.2422840985       -5.5961320341       12.6476713170  CLST          93          1.0000000000
       279        93  TIP3  H2            5.8620504251       -7.0247512127       12.2464607498  CLST          93          1.0000000000
       280        94  TIP3  OH2          -6.1179594817       12.1333513611        4.3552170382  CLST          94          1.0000000000
       281        94  TIP3  H1           -6.0992939713       11.9711629781        3.3650843040  CLST          94          1.0000000000
       282        94  TIP3  H2           -6.3300727022       11.1582740561        4.5522375334  CLST          94          1.0000000000
       283        95  TIP3  OH2           6.6154485443       11.2507943691       -0.3732766364  CLST          95          1.0000000000
       284        95  TIP3  H1            6.8492571570       10.7423996155       -1.1967917912  CLST          95          1.0000000000
       285        95  TIP3  H2            6.2055144120       10.4615489332        0.0951745732  CLST          95          1.0000000000
       286        96  TIP3  OH2          14.2707625756       -0.7998130747       12.3448669749  CLST          96          1.0000000000
       287        96  TIP3  H1           14.9366534315       -1.5629116332       12.5296588395  CLST          96          1.0000000000
       288        96  TIP3  H2           13.5869954990       -1.3070114361       11.6677045632  CLST          96          1.0000000000
       289        97  TIP3  OH2          -8.3607961196        9.6139446925       12.8890098170  CLST          97          1.0000000000
       290        97  TIP3  H1           -7.3087089629        8.8007283066       11.4807720556  CLST          97          1.0000000000
       291        97  TIP3  H2           -7.5062629217        9.2845751767       12.7285202408  CLST          97          1.0000000000
       292        98  TIP3  OH2           1.6347482071        4.2168592178       13.8772069182  CLST          98          1.0000000000
       293        98  TIP3  H1            2.1640806339        4.8099901715       13.3276388495  CLST          98          1.0000000000
       294        98  TIP3  H2            2.0351202644        3.3218637279       13.9022966073  CLST          98          1.0000000000
       295        99  TIP3  OH2         -12.6383937509       12.2955401938       -5.5498872487  CLST          99          1.0000000000
       296        99  TIP3  H1          -13.2372912599       12.2124028718       -6.5043032518  CLST          99          1.0000000000
       297        99  TIP3  H2          -12.2495297784       12.9736928657       -6.0903182063  CLST          99          1.0000000000
       298       100  TIP3  OH2           9.2648034593       -3.8216049564       -6.7777747920  CLST         100          1.0000000000
       299       100  TIP3  H1            8.4392602132       -4.2435808413       -6.3273348768  CLST         100          1.0000000000
       300       100  TIP3  H2            9.0256565174       -4.9889644032       -6.7819110703  CLST         100          1.0000000000
       301       101  TIP3  OH2          11.4469850032        2.0363120022      -10.2575985398  CLST         101          1.0000000000
       302       101  TIP3  H1           11.3123803633        2.8713742689       -9.7972423044  CLST         101          1.0000000000
       303       101  TIP3  H2           11.5985877954        1.5877141049       -9.4606635825  CLST         101          1.0000000000
       304       102  TIP3  OH2          -7.0761151821        2.3278762304      -12.9275570770  CLST         102          1.0000000000
       305       102  TIP3  H1           -7.7693365727        2.0360616998      -13.4785560474  CLST         102          1.0000000000
       306       102  TIP3  H2           -7.4204326618        3.1861310089      -12.8501805900  CLST         102          1.0000000000
       307       103  TIP3  OH2          -4.4290234081      -13.9078984517      -11.3568375700  CLST         103          1.0000000000
       308       103  TIP3  H1           -4.5980367279      -14.8130110559      -11.5727876644  CLST         103          1.0000000000
       309       103  TIP3  H2           -5.2635644572      -13.6730918794      -11.7261825415  CLST         103          1.0000000000
       310       104  TIP3  OH2         -11.0638632804      -11.5266019502        7.6750107111  CLST         104          1.0000000000
       311       104  TIP3  H1          -10.2137782243      -11.1376369010        7.2876125002  CLST         104          1.0000000000
       312       104  TIP3  H2          -10.5075947762      -11.0255984517        8.5581179683  CLST         104          1.0000000000
       313       105  TIP3  OH2           4.4599956932       -0.4986491534       14.2663252683  CLST         105          1.0000000000
       314       105  TIP3  H1            4.0035934633       -1.3629702726       14.2556304062  CLST         105          1.0000000000
       315       105  TIP3  H2            4.9178578061       -0.6393801364       13.4234111169  CLST         105          1.0000000000
       316       106  TIP3  OH2          14.0795977619       -1.3772207332        4.8309366790  CLST         106          1.0000000000
       317       106  TIP3  H1           14.5397245401       -0.6437780071        5.2148074543  CLST         106          1.0000000000
       318       106  TIP3  H2           13.5447846857       -0.8005841128        4.3058917449  CLST         106          1.0000000000
       319       107  TIP3  OH2           1.5732860638      -12.4586814398       -7.2791791993  CLST         107          1.0000000000
       320       107  TIP3  H1            0.6072622008      -12.3619033286       -7.1819745561  CLST         107          1.0000000000
       321       107  TIP3  H2            1.6783276318      -12.4902737328       -6.3343761733  CLST         107          1.0000000000
       322       108  TIP3  OH2          -6.8146283303       -3.7684197684       14.3498008563  CLST         108          1.0000000000
       323       108  TIP3  H1           -6.6740842428       -4.6136413077       13.9441053640  CLST         108          1.0000000000
       324       108  TIP3  H2           -7.7458138090       -3.6598278483       14.0546781488  CLST         108          1.0000000000
       325       109  TIP3  OH2          -4.1157517160       -1.1297565590       11.4621442570  CLST         109          1.0000000000
       326       109  TIP3  H1           -4.2025732344       -1.9653169985       11.9257709435  CLST         109          1.0000000000
       327       109  TIP3  H2           -4.7393441587       -1.2806479491       10.7049176827  CLST         109          1.0000000000
       328       110  TIP3  OH2           1.1758233643       -3.4531232565       -3.2883203337  CLST         110          1.0000000000
       329       110  TIP3  H1            0.9001822652       -3.9973252325       -4.0946210319  CLST         110          1.0000000000
       330       110  TIP3  H2            0.3006567019       -3.4140655994       -2.9216096303  CLST         110          1.0000000000
       331       111  TIP3  OH2          -5.0063154435       -0.9332946872       -6.2883043291  CLST         111          1.0000000000
       332       111  TIP3  H1           -4.3532206393       -0.6386157115       -7.2961877910  CLST         111          1.0000000000
       333       111  TIP3  H2           -4.5192849267       -1.6614181573       -6.6100623543  CLST         111          1.0000000000
       334       112  TIP3  OH2           2.2107513198      -12.2088314291       -4.5039828696  CLST         112          1.0000000000
       335       112  TIP3  H1            1.7726016918      -12.3709715361       -3.6644715498  CLST         112          1.0000000000
       336       112  TIP3  H2            2.1355287186      -11.3079674037       -4.2372977467  CLST         112          1.0000000000
       337       113  TIP3  OH2          14.0568904569        5.9471992257       12.4212727901  CLST         113          1.0000000000
       338       113  TIP3  H1           14.1169126792        6.7690763654       11.6813463754  CLST         113          1.0000000000
       339       113  TIP3  H2           14.7341128198        5.9907611593       11.5283412439  CLST         113          1.0000000000
       340       114  TIP3  OH2          -4.7609757217      -11.3481591603       -4.6416179201  CLST         114          1.0000000000
       341       114  TIP3  H1           -4.6995871267      -10.5034275635       -5.1270622264  CLST         114          1.0000000000
       342       114  TIP3  H2           -4.0901283237      -11.7447297647       -5.2271592090  CLST         114          1.0000000000
       343       115  TIP3  OH2           4.7376211352      -13.9277694227       -9.0334516339  CLST         115          1.0000000000
       344       115  TIP3  H1            4.3622195899      -14.6049010903       -9.9039068863  CLST         115          1.0000000000
       345       115  TIP3  H2            4.3800343084      -13.2570961289       -9.8011290176  CLST         115          1.0000000000
       346       116  TIP3  OH2           8.2773011742        5.6702222305      -14.3000122575  CLST         116          1.0000000000
       347       116  TIP3  H1            9.1235168064        5.3443954488      -14.0847836522  CLST         116          1.0000000000
       348       116  TIP3  H2            7.6419758190        5.3327026994      -13.6752621958  CLST         116          1.0000000000
       349       117  TIP3  OH2          -0.0483688271        1.3923951574       13.1034367419  CLST         117          1.0000000000
       350       117  TIP3  H1           -0.4869281211        2.0312095030       13.6406117640  CLST         117          1.0000000000
       351       117  TIP3  H2            0.8575554644        1.7031960005       13.0936484403  CLST         117          1.0000000000
       352       118  TIP3  OH2          12.8936926619       -9.6965009395       -6.8218443304  CLST         118          1.0000000000
       353       118  TIP3  H1           12.2941116665       -9.5578498842       -6.1093501425  CLST         118          1.0000000000
       354       118  TIP3  H2           13.1367328718       -8.7787446271       -6.7522640031  CLST         118          1.0000000000
       355       119  TIP3  OH2         -11.8841830274       -1.3523010201        4.4779146117  CLST         119          1.0000000000
       356       119  TIP3  H1          -10.9122186726       -1.2699828798        4.4856034499  CLST         119          1.0000000000
       357       119  TIP3  H2          -11.9882995937       -1.1818247873        5.4591047733  CLST         119          1.0000000000
       358       120  TIP3  OH2         -11.6215795249        4.0929798074       -7.6866871059  CLST         120          1.0000000000
       359       120  TIP3  H1          -12.2277464189        4.6879265819       -8.0888533547  CLST         120          1.0000000000
       360       120  TIP3  H2          -12.6892162921        3.8151881974       -7.1169431677  CLST         120          1.0000000000
       361       121  TIP3  OH2          -5.9247182060       -6.9140698615        4.0040561336  CLST         121          1.0000000000
       362       121  TIP3  H1           -5.8029647523       -7.2900950913        3.0979000593  CLST         121          1.0000000000
       363       121  TIP3  H2           -6.8507030385       -6.6156743355        3.7612905027  CLST         121          1.0000000000
       364       122  TIP3  OH2           9.3022077312       -7.0334564983       -6.7442266050  CLST         122          1.0000000000
       365       122  TIP3  H1            9.0937192793       -7.8991807753       -7.0463989616  CLST         122          1.0000000000
       366       122  TIP3  H2           10.0303092949       -7.0606948414       -7.3563894455  CLST         122          1.0000000000
       367       123  TIP3  OH2          -6.9439990112      -10.3525578030        0.3220192799  CLST         123          1.0000000000
       368       123  TIP3  H1           -7.4344444068      -10.3103017584       -0.5295310928  CLST         123          1.0000000000
       369       123  TIP3  H2           -7.9126024985      -10.2475433185        0.6101432993  CLST         123          1.0000000000
       370       124  TIP3  OH2         -13.0752086810       -1.9989603390       -9.7682641570  CLST         124          1.0000000000
       371       124  TIP3  H1          -14.0574372325       -2.2482547224       -9.5065547384  CLST         124          1.0000000000
       372       124  TIP3  H2          -13.1212207639       -2.7098796264      -10.4223731933  CLST         124          1.0000000000
       373       125  TIP3  OH2           6.8095362857        2.7245410940       -5.2564234865  CLST         125          1.0000000000
       374       125  TIP3  H1            6.5048392806        1.9014052098       -4.7061459410  CLST         125          1.0000000000
       375       125  TIP3  H2            6.1001846709        2.6532253921       -5.8725068104  CLST         125          1.0000000000
       376       126  TIP3  OH2          12.3254290516       -9.7157868029        5.4358831828  CLST         126          1.0000000000
       377       126  TIP3  H1           12.4837970620      -10.6421177390        5.2139306834  CLST         126          1.0000000000
       378       126  TIP3  H2           11.9119059032       -9.7150557093        6.2850330507  CLST         126          1.0000000000
       379       127  TIP3  OH2         -10.2985129158       -5.8471430013       -5.1309445107  CLST         127          1.0000000000
       380       127  TIP3  H1           -9.9475461062       -5.4296192852       -4.3630940592  CLST         127          1.0000000000
       381       127  TIP3  H2           -9.6554990926       -6.5912465896       -4.9407435349  CLST         127          1.0000000000
       382       128  TIP3  OH2          -6.4065788599       -3.5427070716        7.0209223740  CLST         128          1.0000000000
       383       128  TIP3  H1           -5.8700838932       -4.3290497531        6.9987642887  CLST         128          1.0000000000
       384       128  TIP3  H2           -6.1867205355       -3.1585742525        6.1826542525  CLST         128          1.0000000000
       385       129  TIP3  OH2         -11.9962003866      -14.4609656198      -10.6657717536  CLST         129          1.0000000000
       386       129  TIP3  H1          -11.1209676008      -14.4471192517      -10.3051166319  CLST         129          1.0000000000
       387       129  TIP3  H2          -12.3611548973      -14.4501424786       -9.7845112342  CLST         129          1.0000000000
       388       130  TIP3  OH2           8.9753751583       -1.0889675215       14.0647095618  CLST         130          1.0000000000
       389       130  TIP3  H1            9.0655452919       -1.7360100081       14.7541769485  CLST         130          1.0000000000
       390       130  TIP3  H2            8.1742872719       -0.7459869256       14.3547389299  CLST         130          1.0000000000
       391       131  TIP3  OH2          -9.7707034264      -11.0891489421       -1.2108376906  CLST         131          1.0000000000
       392       131  TIP3  H1           -9.1833248532      -11.7449243895       -0.9107949602  CLST         131          1.0000000000
       393       131  TIP3  H2          -10.4984427421      -11.4773528322       -0.7019817898  CLST         131          1.0000000000
       394       132  TIP3  OH2           9.2588814562       -2.5277033507        9.4322949172  CLST         132          1.0000000000
       395       132  TIP3  H1           10.1152670625       -2.3137027818        9.0733352534  CLST         132          1.0000000000
       396       132  TIP3  H2            9.2000877359       -1.7113759246        9.9178163469  CLST         132          1.0000000000
       397       133  TIP3  OH2          -9.5718340637       -7.7856964063        7.6206123787  CLST         133          1.0000000000
       398       133  TIP3  H1           -8.7704155581       -8.2827840977        7.7337936855  CLST         133          1.0000000000
       399       133  TIP3  H2           -9.0879510566       -7.1354725032        7.0744085688  CLST         133          1.0000000000
       400       134  TIP3  OH2          -8.8321519088      -12.2709062661       14.6118752039  CLST         134          1.0000000000
       401       134  TIP3  H1           -9.3081448309      -12.3530809203       13.6493951212  CLST         134          1.0000000000
       402       134  TIP3  H2           -8.8662894570      -11.3317454225       13.9931805093  CLST         134          1.0000000000
       403       135  TIP3  OH2          -8.9931358075       10.8506364703        3.4575244818  CLST         135          1.0000000000
       404       135  TIP3  H1           -8.8857575472       10.8007727318        2.4994663094  CLST         135          1.0000000000
       405       135  TIP3  H2           -8.0583145244       10.6903505230        3.5828327953  CLST         135          1.0000000000
       406       136  TIP3  OH2          -5.0864164632       13.3362415845      -11.4825963190  CLST         136          1.0000000000
       407       136  TIP3  H1           -5.4753268766       13.4963565150      -10.5969018392  CLST         136          1.0000000000
       408       136  TIP3  H2           -5.9457138740       13.6996557393      -11.7702869228  CLST         136          1.0000000000
       409       137  TIP3  OH2          -5.8134168684      -11.1066262136        7.6261872781  CLST         137          1.0000000000
       410       137  TIP3  H1           -4.8630759752      -11.3856932346        6.9235668694  CLST         137          1.0000000000
       411       137  TIP3  H2           -5.2534537780      -11.7545664914        7.7683926352  CLST         137          1.0000000000
       412       138  TIP3  OH2           9.9585189684        8.4748485197       11.1771428782  CLST         138          1.0000000000
       413       138  TIP3  H1            9.8982608523        7.8812295744       11.9537985391  CLST         138          1.0000000000
       414       138  TIP3  H2           10.5594644202        9.0374215164       11.5949605945  CLST         138          1.0000000000
       415       139  TIP3  OH2           2.0143422537        9.8584528994       12.4757927650  CLST         139          1.0000000000
       416       139  TIP3  H1            2.8949722047        9.7479462060       12.1226609860  CLST         139          1.0000000000
       417       139  TIP3  H2            2.2847704372        9.2765411847       13.1702429434  CLST         139          1.0000000000
       418       140  TIP3  OH2          -3.1329051798       -1.3948762290       -7.8076458991  CLST         140          1.0000000000
       419       140  TIP3  H1           -2.2666220663       -1.0282405950       -7.9284415069  CLST         140          1.0000000000
       420       140  TIP3  H2           -2.5602503213       -2.2006951029       -7.6468653293  CLST         140          1.0000000000
       421       141  TIP3  OH2         -13.0130270406        5.3277429747       12.5536312085  CLST         141          1.0000000000
       422       141  TIP3  H1          -12.5776392635        6.1740369298       12.4339850665  CLST         141          1.0000000000
       423       141  TIP3  H2          -12.4909961425        5.0808257648       13.3095381105  CLST         141          1.0000000000
       424       142  TIP3  OH2          14.8171480669       -6.4758405083        5.2267654196  CLST         142          1.0000000000
       425       142  TIP3  H1           14.3596622911       -6.8574060065        4.4626761524  CLST         142          1.0000000000
       426       142  TIP3  H2           14.6807898370       -7.1937641604        5.8504026578  CLST         142          1.0000000000
       427       143  TIP3  OH2           6.6498134989       -6.8359522155        2.0592424115  CLST         143          1.0000000000
       428       143  TIP3  H1            6.9250737960       -7.0022646027        1.1061355857  CLST         143          1.0000000000
       429       143  TIP3  H2            5.7902239071       -7.0010789025        1.3006702161  CLST         143          1.0000000000
       430       144  TIP3  OH2          -1.5998683802      -13.9320175762        7.7974471494  CLST         144          1.0000000000
       431       144  TIP3  H1           -1.4480727346      -14.0941331056        6.8794473116  CLST         144          1.0000000000
       432       144  TIP3  H2           -1.0468735039      -14.6704809299        7.9788374532  CLST         144          1.0000000000
       433       145  TIP3  OH2           1.9700814459        7.1784759571       13.7339221877  CLST         145          1.0000000000
       434       145  TIP3  H1            1.0410022995        7.3353596231       13.6973967790  CLST         145          1.0000000000
       435       145  TIP3  H2            2.0737114413        6.8986332584       12.8286726536  CLST         145          1.0000000000
       436       146  TIP3  OH2          -5.9243810582       10.5329206175       -8.3657920961  CLST         146          1.0000000000
       437       146  TIP3  H1           -5.5676567041       11.4555411884       -8.3855363562  CLST         146          1.0000000000
       438       146  TIP3  H2           -6.7071832440       10.9318198136       -8.0398410819  CLST         146          1.0000000000
       439       147  TIP3  OH2           0.9420082765        2.9948133903       -4.5032252876  CLST         147          1.0000000000
       440       147  TIP3  H1           -0.0523393802        3.2696499756       -4.4684334561  CLST         147          1.0000000000
       441       147  TIP3  H2            0.2395662579        2.9563018236       -5.4248846875  CLST         147          1.0000000000
       442       148  TIP3  OH2           7.4138770466        6.6761180188       -3.4562765412  CLST         148          1.0000000000
       443       148  TIP3  H1            7.7686651450        5.9696937516       -3.2192974570  CLST         148          1.0000000000
       444       148  TIP3  H2            6.7703847289        6.1207126353       -2.7127021117  CLST         148          1.0000000000
       445       149  TIP3  OH2          -4.1285941901      -13.0064486621       11.1710894584  CLST         149          1.0000000000
       446       149  TIP3  H1           -4.3367422603      -12.0734138363       11.4809354714  CLST         149          1.0000000000
       447       149  TIP3  H2           -3.4581479806      -12.8789891235       11.8115577866  CLST         149          1.0000000000
       448       150  TIP3  OH2          10.7327291099        1.2917178895       -2.4100150178  CLST         150          1.0000000000
       449       150  TIP3  H1           10.2109196610        1.3195549236       -1.5563909172  CLST         150          1.0000000000
       450       150  TIP3  H2            9.9238605685        0.9074704652       -2.9116979712  CLST         150          1.0000000000
       451       151  TIP3  OH2           3.7027650983      -12.2623801924        3.8139639055  CLST         151          1.0000000000
       452       151  TIP3  H1            4.0952019929      -13.1589522601        2.9654090125  CLST         151          1.0000000000
       453       151  TIP3  H2            2.9688975292      -12.3892081672        3.0626969128  CLST         151          1.0000000000
       454       152  TIP3  OH2           0.5744838427        6.1706194663       -5.9745058900  CLST         152          1.0000000000
       455       152  TIP3  H1            0.8823730636        7.0683366494       -6.0588818334  CLST         152          1.0000000000
       456       152  TIP3  H2            1.3777022239        5.9527621473       -6.4743694226  CLST         152          1.0000000000
       457       153  TIP3  OH2          -1.4452353755        9.9758602112       -7.7686515208  CLST         153          1.0000000000
       458       153  TIP3  H1           -1.4383395807       10.6134803119       -7.0721418279  CLST         153          1.0000000000
       459       153  TIP3  H2           -1.3211760531       10.6009350419       -8.4582719087  CLST         153          1.0000000000
       460       154  TIP3  OH2         -12.0150624734       -7.7123871608       -0.5115238965  CLST         154          1.0000000000
       461       154  TIP3  H1          -12.2565747379       -6.8053793089       -0.1340022978  CLST         154          1.0000000000
       462       154  TIP3  H2          -11.1668685326       -7.3055258405       -0.7556991735  CLST         154          1.0000000000
       463       155  TIP3  OH2          10.5182785925       -5.0623218163       14.3351027176  CLST         155          1.0000000000
       464       155  TIP3  H1           11.0624490856       -4.3140891795       14.5872430756  CLST         155          1.0000000000
       465       155  TIP3  H2           10.6627038638       -5.0686786094       13.3875785658  CLST         155          1.0000000000
       466       156  TIP3  OH2          14.0911872025        1.9954927806        0.0784547168  CLST         156          1.0000000000
       467       156  TIP3  H1           14.5368372382        1.1589329909        0.1882274099  CLST         156          1.0000000000
       468       156  TIP3  H2           14.1472611282        1.9110457029       -0.8613501546  CLST         156          1.0000000000
       469       157  TIP3  OH2           0.2103026292       -4.8787159200       -8.7823758273  CLST         157          1.0000000000
       470       157  TIP3  H1            0.8760973577       -4.1810027120       -8.9798525255  CLST         157          1.0000000000
       471       157  TIP3  H2            0.5690230060       -5.6749351843       -9.2509268072  CLST         157          1.0000000000
       472       158  TIP3  OH2          -6.9075183280       -1.5399180535       -2.1619965373  CLST         158          1.0000000000
       473       158  TIP3  H1           -7.6895503067       -1.6927131464       -2.7395652420  CLST         158          1.0000000000
       474       158  TIP3  H2           -6.5936142657       -2.3853189187       -2.5826150411  CLST         158          1.0000000000
       475       159  TIP3  OH2           8.1898261931      -11.4527029664        8.0826710276  CLST         159          1.0000000000
       476       159  TIP3  H1            7.4002123551      -11.5202797042        7.5112512195  CLST         159          1.0000000000
       477       159  TIP3  H2            8.0636872446      -10.5766230661        8.5649358033  CLST         159          1.0000000000
       478       160  TIP3  OH2           4.6257128701       -9.2113444873        1.9079580662  CLST         160          1.0000000000
       479       160  TIP3  H1            4.6411109978       -9.0520076452        2.7693291689  CLST         160          1.0000000000
       480       160  TIP3  H2            5.4712600441       -9.5834702290        2.7198845615  CLST         160          1.0000000000
       481       161  TIP3  OH2           3.6915530097       -7.0337825062       -2.9532353797  CLST         161          1.0000000000
       482       161  TIP3  H1            4.3785877198       -7.4729838090       -2.3985668905  CLST         161          1.0000000000
       483       161  TIP3  H2            3.0917580410       -7.5471926109       -2.4149049618  CLST         161          1.0000000000
       484       162  TIP3  OH2           6.5243354682      -10.4923790146        2.9791983324  CLST         162          1.0000000000
       485       162  TIP3  H1            6.9224420151      -11.3421585075        2.9490628804  CLST         162          1.0000000000
       486       162  TIP3  H2            7.3165414292      -10.1545280809        3.4431354221  CLST         162          1.0000000000
       487       163  TIP3  OH2         -13.4288460337        0.1110677779        2.7115695808  CLST         163          1.0000000000
       488       163  TIP3  H1          -13.8027100514        0.4872780242        3.5152745642  CLST         163          1.0000000000
       489       163  TIP3  H2          -12.7505433313       -0.2389536566        3.2671262499  CLST         163          1.0000000000
       490       164  TIP3  OH2           8.4248353784        2.8993357526       10.1843951935  CLST         164          1.0000000000
       491       164  TIP3  H1            8.6083116709        3.5188578867        9.3341594543  CLST         164          1.0000000000
       492       164  TIP3  H2            9.5494892492        2.8315436568        9.8971589523  CLST         164          1.0000000000
       493       165  TIP3  OH2          14.1836589791        3.7660028965        4.9534333416  CLST         165          1.0000000000
       494       165  TIP3  H1           13.3768619363        4.1731746913        4.7452658849  CLST         165          1.0000000000
       495       165  TIP3  H2           14.0210241127        3.0843317347        4.0499944361  CLST         165          1.0000000000
       496       166  TIP3  OH2          -6.2750849309      -12.8014965695        5.1201513559  CLST         166          1.0000000000
       497       166  TIP3  H1           -6.2237396321      -12.2800893773        4.2898281707  CLST         166          1.0000000000
       498       166  TIP3  H2           -7.1300042289      -12.3834307787        5.2392491434  CLST         166          1.0000000000
       499       167  TIP3  OH2           0.0091556640       -7.7337963132       -9.2931096959  CLST         167          1.0000000000
       500       167  TIP3  H1            0.1956821673       -7.5897509486      -10.1858265859  CLST         167          1.0000000000
       501       167  TIP3  H2            0.9089109541       -8.0468320361       -9.0723867020  CLST         167          1.0000000000
       502       168  TIP3  OH2          -2.7374976206       -2.6500781806        1.5190213004  CLST         168          1.0000000000
       503       168  TIP3  H1           -3.0212554454       -3.5798964814        2.1635640664  CLST         168          1.0000000000
       504       168  TIP3  H2           -2.8747162246       -3.6329003542        0.8121020240  CLST         168          1.0000000000
       505       169  TIP3  OH2           0.8043092852       11.9962374487       12.7376863826  CLST         169          1.0000000000
       506       169  TIP3  H1            1.2709005514       11.1173814229       12.5887394726  CLST         169          1.0000000000
       507       169  TIP3  H2            1.6409295343       12.3592884000       12.9110207923  CLST         169          1.0000000000
       508       170  TIP3  OH2         -14.3968054906      -12.3805906184        4.9272445997  CLST         170          1.0000000000
       509       170  TIP3  H1          -13.9254390927      -13.0516349240        5.4225012030  CLST         170          1.0000000000
       510       170  TIP3  H2          -14.5335065931      -11.8934714663        5.7783138357  CLST         170          1.0000000000
       511       171  TIP3  OH2          -9.6449677324        2.5449956481        2.5541649004  CLST         171          1.0000000000
       512       171  TIP3  H1           -8.7659824339        2.9514054723        2.4851407974  CLST         171          1.0000000000
       513       171  TIP3  H2           -9.4531039382        2.3275199781        3.5275253597  CLST         171          1.0000000000
       514       172  TIP3  OH2          13.7847188702       -6.9632053307      -11.7452463668  CLST         172          1.0000000000
       515       172  TIP3  H1           13.9199537969       -6.9532497568      -10.8030561647  CLST         172          1.0000000000
       516       172  TIP3  H2           13.0800274037       -7.5913122133      -11.5951368822  CLST         172          1.0000000000
       517       173  TIP3  OH2         -12.7139579143       -5.5173971399        2.8751019312  CLST         173          1.0000000000
       518       173  TIP3  H1          -13.1396026086       -4.6723573291        3.0770890061  CLST         173          1.0000000000
       519       173  TIP3  H2          -12.9011468883       -5.5019511874        1.8480235190  CLST         173          1.0000000000
       520       174  TIP3  OH2           5.6290881735      -14.1122813025        5.8399569431  CLST         174          1.0000000000
       521       174  TIP3  H1            5.1025392105      -14.4449072345        6.6267035439  CLST         174          1.0000000000
       522       174  TIP3  H2            4.7473705574      -13.7348126415        5.7001945747  CLST         174          1.0000000000
       523       175  TIP3  OH2           4.3312335374       -3.5330460733        7.6681122798  CLST         175          1.0000000000
       524       175  TIP3  H1            3.9018793961       -4.0986643604        6.9978230648  CLST         175          1.0000000000
       525       175  TIP3  H2            5.1926451486       -3.6100497245        7.2419107178  CLST         175          1.0000000000
       526       176  TIP3  OH2           8.1815051826        2.7540734506      -10.9085671284  CLST         176          1.0000000000
       527       176  TIP3  H1            8.6768586661        2.3082501957      -10.2169052044  CLST         176          1.0000000000
       528       176  TIP3  H2            8.4874537381        2.0754038481      -11.5609458808  CLST         176          1.0000000000
       529       177  TIP3  OH2          -4.1992901817       10.8702229487        7.1962032541  CLST         177          1.0000000000
       530       177  TIP3  H1           -3.5519108731       10.9553797429        6.4654945178  CLST         177          1.0000000000
       531       177  TIP3  H2           -4.3717520676        9.9415555258        6.9815554618  CLST         177          1.0000000000
       532       178  TIP3  OH2           4.1531166788       -6.4708530983        0.7946637232  CLST         178          1.0000000000
       533       178  TIP3  H1            3.5918479341       -5.7489335893        0.5159255894  CLST         178          1.0000000000
       534       178  TIP3  H2            3.5421184704       -7.0270750609        0.3266949850  CLST         178          1.0000000000
       535       179  TIP3  OH2           2.7468772456       -9.9344191453        0.1258282617  CLST         179          1.0000000000
       536       179  TIP3  H1            2.1381077584       -9.3243753960        0.4670638805  CLST         179          1.0000000000
       537       179  TIP3  H2            3.3324362124       -9.8182283008        0.9345418649  CLST         179          1.0000000000
       538       180  TIP3  OH2          -1.9731915245       -3.5863705136        8.2358608788  CLST         180          1.0000000000
       539       180  TIP3  H1           -1.9072548280       -2.6665921805        8.5709159797  CLST         180          1.0000000000
       540       180  TIP3  H2           -2.5586290006       -3.4390843934        7.4413464097  CLST         180          1.0000000000
       541       181  TIP3  OH2         -12.0281099904        0.1561515616      -11.0930032557  CLST         181          1.0000000000
       542       181  TIP3  H1          -11.2312575242       -0.0737546436      -10.6243733565  CLST         181          1.0000000000
       543       181  TIP3  H2          -12.4772414357       -0.5453069042      -10.5605353877  CLST         181          1.0000000000
       544       182  TIP3  OH2         -10.3579787838      -12.7286529349        5.2340740523  CLST         182          1.0000000000
       545       182  TIP3  H1          -10.9056554031      -12.8952766250        5.9797696553  CLST         182          1.0000000000
       546       182  TIP3  H2           -9.8467133594      -12.1043690932        5.8192154657  CLST         182          1.0000000000
       547       183  TIP3  OH2          11.6133938304        5.5602549815        4.5473139440  CLST         183          1.0000000000
       548       183  TIP3  H1           11.9148963198        5.6027890501        3.6445567980  CLST         183          1.0000000000
       549       183  TIP3  H2           11.0381952292        6.2604142568        4.4597235908  CLST         183          1.0000000000
       550       184  TIP3  OH2          -0.2518794225       -0.6908771360        8.0453627848  CLST         184          1.0000000000
       551       184  TIP3  H1            0.7007161693       -0.5450877645        8.0938262865  CLST         184          1.0000000000
       552       184  TIP3  H2           -0.5125669838       -0.9169447125        8.9720933298  CLST         184          1.0000000000
       553       185  TIP3  OH2           9.2093490718       12.8441752228       -3.7373091164  CLST         185          1.0000000000
       554       185  TIP3  H1            8.3077134010       12.4060283575       -3.7428235969  CLST         185          1.0000000000
       555       185  TIP3  H2            8.8995413931       13.5687735929       -4.2207503434  CLST         185          1.0000000000
       556       186  TIP3  OH2          11.6858697591       -0.1777244631        4.0843835990  CLST         186          1.0000000000
       557       186  TIP3  H1           11.7585068382        0.3141360033        3.2400104397  CLST         186          1.0000000000
       558       186  TIP3  H2           10.8100044444        0.2748556295        4.2026126088  CLST         186          1.0000000000
       559       187  TIP3  OH2         -10.0369145184       -7.6035819977      -11.3481421572  CLST         187          1.0000000000
       560       187  TIP3  H1          -10.5556633993       -7.4977449582      -10.5439031445  CLST         187          1.0000000000
       561       187  TIP3  H2           -9.7344975673       -6.7060678288      -11.3081050848  CLST         187          1.0000000000
       562       188  TIP3  OH2         -14.8041979871       -0.4370855437        1.0446308700  CLST         188          1.0000000000
       563       188  TIP3  H1          -14.0538111599       -0.2548720328        1.8982514246  CLST         188          1.0000000000
       564       188  TIP3  H2          -14.6058333088       -0.9747079124        0.2590219026  CLST         188          1.0000000000
       565       189  TIP3  OH2          13.6401658943        0.3948377402       14.5322798614  CLST         189          1.0000000000
       566       189  TIP3  H1           14.6333135666        0.6675412023       14.8214541963  CLST         189          1.0000000000
       567       189  TIP3  H2           13.9157487760        0.0210836074       13.4127261298  CLST         189          1.0000000000
       568       190  TIP3  OH2           0.3921792597       -7.6720629060        3.8809341396  CLST         190          1.0000000000
       569       190  TIP3  H1            0.9198061511       -8.1908479810        4.4749026219  CLST         190          1.0000000000
       570       190  TIP3  H2            1.0187768388       -6.9053855785        3.8940236685  CLST         190          1.0000000000
       571       191  TIP3  OH2          -0.9527102062       13.9431912374       -3.9397319839  CLST         191          1.0000000000
       572       191  TIP3  H1           -1.8474658993       13.3804092747       -3.9514414257  CLST         191          1.0000000000
       573       191  TIP3  H2           -1.6194539188       14.6584623143       -3.8121254287  CLST         191          1.0000000000
       574       192  TIP3  OH2          -5.1623040441       -0.3129806466       -0.8184901183  CLST         192          1.0000000000
       575       192  TIP3  H1           -5.9874886309       -0.7805979764       -1.2602133459  CLST         192          1.0000000000
       576       192  TIP3  H2           -5.7918461572        0.2565916510       -0.2134878825  CLST         192          1.0000000000
       577       193  TIP3  OH2         -12.9934925179      -13.1426086208        6.8665956720  CLST         193          1.0000000000
       578       193  TIP3  H1          -12.8298209194      -13.6972577219        7.6286811575  CLST         193          1.0000000000
       579       193  TIP3  H2          -12.2877290533      -12.5631495180        7.3550888109  CLST         193          1.0000000000
       580       194  TIP3  OH2          12.6273409312       12.5479439830      -11.1074655671  CLST         194          1.0000000000
       581       194  TIP3  H1           13.2411996411       13.2801645386      -11.3151705278  CLST         194          1.0000000000
       582       194  TIP3  H2           12.8339798807       12.1383037325      -11.9466742441  CLST         194          1.0000000000
       583       195  TIP3  OH2           4.9565544148        2.6993736155        3.4401491715  CLST         195          1.0000000000
       584       195  TIP3  H1            4.2747057157        2.4775132743        2.9115623544  CLST         195          1.0000000000
       585       195  TIP3  H2            4.7596535509        1.6332958119        2.8938047866  CLST         195          1.0000000000
       586       196  TIP3  OH2           7.0749847713        6.3869206899       11.8988852153  CLST         196          1.0000000000
       587       196  TIP3  H1            8.0191397663        6.2859965520       12.0449768880  CLST         196          1.0000000000
       588       196  TIP3  H2            7.0770576296        7.0275671738       12.7289197374  CLST         196          1.0000000000
       589       197  TIP3  OH2          -4.4375187076       -9.4022715760        3.8098288014  CLST         197          1.0000000000
       590       197  TIP3  H1           -4.8633455156       -8.8991730128        2.9901959810  CLST         197          1.0000000000
       591       197  TIP3  H2           -3.6238876794       -8.7450947567        3.8507038753  CLST         197          1.0000000000
       592       198  TIP3  OH2          -4.4744652543       -8.9187566173       -6.0557968679  CLST         198          1.0000000000
       593       198  TIP3  H1           -4.0055786547       -8.6888408018       -6.8647052782  CLST         198          1.0000000000
       594       198  TIP3  H2           -5.3621356723       -8.8185316665       -6.4698912360  CLST         198          1.0000000000
       595       199  TIP3  OH2          11.2954528668        7.7438739816       -2.6366046895  CLST         199          1.0000000000
       596       199  TIP3  H1           10.8998497595        8.7042327742       -2.3136613861  CLST         199          1.0000000000
       597       199  TIP3  H2           11.9522164211        7.8445835975       -1.9358759668  CLST         199          1.0000000000
       598       200  TIP3  OH2          -4.5696336730       -7.3425479611       -1.2521990966  CLST         200          1.0000000000
       599       200  TIP3  H1           -3.6927522586       -7.5966275698       -1.2614251703  CLST         200          1.0000000000
       600       200  TIP3  H2           -4.5152840485       -6.5408178883       -1.8019487125  CLST         200          1.0000000000
       601       201  TIP3  OH2          13.7659982294      -10.4229231783       11.8332501016  CLST         201          1.0000000000
       602       201  TIP3  H1           14.3494425331      -10.0923814049       11.1691949467  CLST         201          1.0000000000
       603       201  TIP3  H2           12.8570899673      -10.1627499700       11.5299222681  CLST         201          1.0000000000
       604       202  TIP3  OH2          -2.8583616217       -9.3856126797        7.9553125151  CLST         202          1.0000000000
       605       202  TIP3  H1           -1.9059021403       -9.8908558501        8.1940524366  CLST         202          1.0000000000
       606       202  TIP3  H2           -2.8938503907      -10.4190463305        7.5974117897  CLST         202          1.0000000000
       607       203  TIP3  OH2          10.5775249043        4.3550506234       13.8243274044  CLST         203          1.0000000000
       608       203  TIP3  H1            9.6030146477        3.7068784889       13.7459101106  CLST         203          1.0000000000
       609       203  TIP3  H2           10.0924752846        4.0856301435       14.4906195784  CLST         203          1.0000000000
       610       204  TIP3  OH2          -5.2805157808        6.1066015434        6.0421370953  CLST         204          1.0000000000
       611       204  TIP3  H1           -6.1255146704        6.6534509637        6.1170483758  CLST         204          1.0000000000
       612       204  TIP3  H2           -4.9190399553        6.7494355343        6.7010674903  CLST         204          1.0000000000
       613       205  TIP3  OH2          -2.4607986801        1.2799602999       -4.7833753073  CLST         205          1.0000000000
       614       205  TIP3  H1           -1.7065824802        1.7409589475       -5.2152782903  CLST         205          1.0000000000
       615       205  TIP3  H2           -2.9743337258        1.8029669469       -5.3934162610  CLST         205          1.0000000000
       616       206  TIP3  OH2          -8.6732895585       -1.1712515595        4.6005898839  CLST         206          1.0000000000
       617       206  TIP3  H1           -8.8470378638       -1.2865980865        5.5448286470  CLST         206          1.0000000000
       618       206  TIP3  H2           -7.9634805164       -0.5277039885        4.8798666495  CLST         206          1.0000000000
       619       207  TIP3  OH2          -7.6952793518        9.5395219018        0.2233251514  CLST         207          1.0000000000
       620       207  TIP3  H1           -7.0277951415        8.5167997505        0.3776095296  CLST         207          1.0000000000
       621       207  TIP3  H2           -8.0298987048        8.8466350916        0.7096595102  CLST         207          1.0000000000
       622       208  TIP3  OH2           9.3597385831       14.2270360869      -11.5548795436  CLST         208          1.0000000000
       623       208  TIP3  H1            9.3840736483       13.6841572344      -12.3027623939  CLST         208          1.0000000000
       624       208  TIP3  H2           10.1334316314       14.8176876627      -11.6880506102  CLST         208          1.0000000000
       625       209  TIP3  OH2          -6.5988036935       -6.4139524167      -14.4356348062  CLST         209          1.0000000000
       626       209  TIP3  H1           -7.9329337498       -6.5498852348      -14.3885786599  CLST         209          1.0000000000
       627       209  TIP3  H2           -7.0518997377       -6.8260310052      -13.6753533979  CLST         209          1.0000000000
       628       210  TIP3  OH2          -2.1569011273        1.2190406183        8.1233010266  CLST         210          1.0000000000
       629       210  TIP3  H1           -1.4716517293        0.5344212005        7.9871045385  CLST         210          1.0000000000
       630       210  TIP3  H2           -1.9717686415        1.3151281748        9.0846976922  CLST         210          1.0000000000
       631       211  TIP3  OH2          -0.8659491228       -0.1172837712       -2.8012196574  CLST         211          1.0000000000
       632       211  TIP3  H1           -1.4095109971       -0.8411207833       -2.4089275456  CLST         211          1.0000000000
       633       211  TIP3  H2           -1.4586430474        0.4473103119       -3.3064473974  CLST         211          1.0000000000
       634       212  TIP3  OH2           6.8718383950        3.0846323075        5.5948107302  CLST         212          1.0000000000
       635       212  TIP3  H1            6.4496304640        2.0590942612        5.6320359761  CLST         212          1.0000000000
       636       212  TIP3  H2            6.1091208363        2.7038225663        4.8625528160  CLST         212          1.0000000000
       637       213  TIP3  OH2           1.9118607027       -4.8088668771       -0.4428908878  CLST         213          1.0000000000
       638       213  TIP3  H1            1.8437913226       -4.2516344069       -1.2335593770  CLST         213          1.0000000000
       639       213  TIP3  H2            1.5784531242       -5.5350350537       -1.0270395518  CLST         213          1.0000000000
       640       214  TIP3  OH2           2.1183252384       -6.9794938122      -11.6041584054  CLST         214          1.0000000000
       641       214  TIP3  H1            2.5173912348       -7.8635635816      -11.5211867150  CLST         214          1.0000000000
       642       214  TIP3  H2            2.9716438816       -6.7328592155      -11.1090351620  CLST         214          1.0000000000
       643       215  TIP3  OH2         -12.6887003012        2.6694219323      -11.0344335812  CLST         215          1.0000000000
       644       215  TIP3  H1          -12.0407176378        2.4688476417      -10.3253913809  CLST         215          1.0000000000
       645       215  TIP3  H2          -12.2750083016        1.6021102237      -11.2158607335  CLST         215          1.0000000000
       646       216  TIP3  OH2          11.6436197878       -6.5219806994       -4.5748049944  CLST         216          1.0000000000
       647       216  TIP3  H1           11.1459499883       -7.3268365168       -4.4754670800  CLST         216          1.0000000000
       648       216  TIP3  H2           10.8187260299       -6.0870142574       -4.7617693624  CLST         216          1.0000000000
       649       217  TIP3  OH2          -6.3829228671        9.3673648746        4.1992570168  CLST         217          1.0000000000
       650       217  TIP3  H1           -5.3748191332        9.0910671687        4.3627498199  CLST         217          1.0000000000
       651       217  TIP3  H2           -6.6158261233        8.5283543287        3.7997613874  CLST         217          1.0000000000
       652       218  TIP3  OH2           5.8402716810       -7.4099249500       -8.3830751903  CLST         218          1.0000000000
       653       218  TIP3  H1            6.1517855831       -8.1138162671       -7.9209612082  CLST         218          1.0000000000
       654       218  TIP3  H2            5.6112195803       -7.5656843131       -7.3093663666  CLST         218          1.0000000000
       655       219  TIP3  OH2           2.5910463955      -13.5741773955        7.6061694121  CLST         219          1.0000000000
       656       219  TIP3  H1            2.2686730310      -12.9834991787        8.4391126740  CLST         219          1.0000000000
       657       219  TIP3  H2            3.4733735616      -13.1642520376        8.2468837899  CLST         219          1.0000000000
       658       220  TIP3  OH2           2.3539037457        1.4152388435      -11.1478212124  CLST         220          1.0000000000
       659       220  TIP3  H1            2.5758144255        1.9105627164      -11.9113665163  CLST         220          1.0000000000
       660       220  TIP3  H2            3.3287264221        1.2644742070      -11.0833489338  CLST         220          1.0000000000
       661       221  TIP3  OH2           1.7250109053       -0.5763131441        2.9311366844  CLST         221          1.0000000000
       662       221  TIP3  H1            0.8087205692       -0.3196879253        2.8413529139  CLST         221          1.0000000000
       663       221  TIP3  H2            1.9335102338       -0.0174655443        3.6446171791  CLST         221          1.0000000000
       664       222  TIP3  OH2          12.0006031949        0.6407196645        1.7298869449  CLST         222          1.0000000000
       665       222  TIP3  H1           12.4319972445        0.2590652715        1.0062127202  CLST         222          1.0000000000
       666       222  TIP3  H2           11.0918813924        0.7973890943        1.2099462117  CLST         222          1.0000000000
       667       223  TIP3  OH2           1.2965461276      -10.5200795428      -13.1330092453  CLST         223          1.0000000000
       668       223  TIP3  H1            0.7254543725      -10.6265722869      -12.2603385818  CLST         223          1.0000000000
       669       223  TIP3  H2            0.5220101608       -9.8520775927      -13.1844493045  CLST         223          1.0000000000
       670       224  TIP3  OH2          -9.0232773581        6.7921618793      -12.9621059292  CLST         224          1.0000000000
       671       224  TIP3  H1           -9.7143659915        6.0255030779      -12.6790597659  CLST         224          1.0000000000
       672       224  TIP3  H2           -8.4737868128        5.8428269274      -12.5023845272  CLST         224          1.0000000000
       673       225  TIP3  OH2          13.1270008038        3.7135227251       -7.5837002751  CLST         225          1.0000000000
       674       225  TIP3  H1           12.2026107645        3.9617237407       -7.9309204311  CLST         225          1.0000000000
       675       225  TIP3  H2           12.7278056676        3.3122545993       -6.7880394254  CLST         225          1.0000000000
       676       226  TIP3  OH2           5.1691161457        4.9808859395       10.7212195034  CLST         226          1.0000000000
       677       226  TIP3  H1            5.8351871669        5.6458672006       11.0729638113  CLST         226          1.0000000000
       678       226  TIP3  H2            5.6896813724        4.4086254748       11.2794534470  CLST         226          1.0000000000
       679       227  TIP3  OH2          -6.1547278154        1.1082386777        9.7812058856  CLST         227          1.0000000000
       680       227  TIP3  H1           -6.8526051544        0.8481522991       10.3934265619  CLST         227          1.0000000000
       681       227  TIP3  H2           -5.9095046844        0.2018864054        9.5249103803  CLST         227          1.0000000000
       682       228  TIP3  OH2          -8.5652938115       -5.1703267654       10.4670736318  CLST         228          1.0000000000
       683       228  TIP3  H1           -8.3397204401       -4.7642560127        9.6680061084  CLST         228          1.0000000000
       684       228  TIP3  H2           -7.6844953450       -5.5901112808       10.5944876230  CLST         228          1.0000000000
       685       229  TIP3  OH2          11.1953933039        8.0592814371      -14.9366534315  CLST         229          1.0000000000
       686       229  TIP3  H1           11.5478734812        8.2877866061      -14.0836415051  CLST         229          1.0000000000
       687       229  TIP3  H2           11.9897297044        7.2891871196      -14.3339682805  CLST         229          1.0000000000
       688       230  TIP3  OH2         -10.8020744422       -3.4668048152        8.6345635408  CLST         230          1.0000000000
       689       230  TIP3  H1          -10.9502343530       -4.3735663649        8.5497927309  CLST         230          1.0000000000
       690       230  TIP3  H2          -11.5321327043       -3.3228697737        9.2575415544  CLST         230          1.0000000000
       691       231  TIP3  OH2          -0.3927876456        3.0208246515      -11.9285896381  CLST         231          1.0000000000
       692       231  TIP3  H1            0.0875589599        2.6233745349      -11.2621195406  CLST         231          1.0000000000
       693       231  TIP3  H2            0.3563070807        3.1189785067      -12.5079207383  CLST         231          1.0000000000
       694       232  TIP3  OH2           1.8711254668      -14.9316158668      -12.0421114364  CLST         232          1.0000000000
       695       232  TIP3  H1            1.9048520278      -14.3375984529      -11.2693392493  CLST         232          1.0000000000
       696       232  TIP3  H2            1.9960923623      -14.1992698269      -12.5733776267  CLST         232          1.0000000000
       697       233  TIP3  OH2         -12.1903081472        9.6240234945        2.0385222175  CLST         233          1.0000000000
       698       233  TIP3  H1          -12.8479716382        9.5924055258        2.7178165703  CLST         233          1.0000000000
       699       233  TIP3  H2          -12.8942358377       10.0194510587        1.4523879309  CLST         233          1.0000000000
       700       234  TIP3  OH2          -2.2259532674        4.4818109230       -8.2437945468  CLST         234          1.0000000000
       701       234  TIP3  H1           -2.2811425816        5.4474348715       -8.1691678276  CLST         234          1.0000000000
       702       234  TIP3  H2           -2.3532502795        4.3979105376       -9.1922803219  CLST         234          1.0000000000
       703       235  TIP3  OH2         -10.6532863203        5.1547961126       -5.5736606052  CLST         235          1.0000000000
       704       235  TIP3  H1          -10.9582185002        4.6810863932       -6.5508227467  CLST         235          1.0000000000
       705       235  TIP3  H2           -9.8660326694        4.5722542895       -5.9614087493  CLST         235          1.0000000000
       706       236  TIP3  OH2         -12.4062854311      -10.6999434874       13.5948168730  CLST         236          1.0000000000
       707       236  TIP3  H1          -11.7058278333      -11.1240092789       12.9013657663  CLST         236          1.0000000000
       708       236  TIP3  H2          -12.1519081069      -10.0597586903       12.6835595975  CLST         236          1.0000000000
       709       237  TIP3  OH2          -6.2783524254       -6.4848166108       10.4773672401  CLST         237          1.0000000000
       710       237  TIP3  H1           -5.9954465351       -7.1619149475        9.8189042722  CLST         237          1.0000000000
       711       237  TIP3  H2           -5.4416212446       -6.2674486760       10.8902232543  CLST         237          1.0000000000
       712       238  TIP3  OH2          -0.9094695987        3.7617338131       -2.9363620065  CLST         238          1.0000000000
       713       238  TIP3  H1           -1.4261732990        4.5232824458       -3.7478353879  CLST         238          1.0000000000
       714       238  TIP3  H2           -1.9292655875        3.9220539068       -2.9171253906  CLST         238          1.0000000000
       715       239  TIP3  OH2           7.9624200915        7.3733779670       -0.0240382993  CLST         239          1.0000000000
       716       239  TIP3  H1            8.5256806577        6.5752886755       -0.6710286154  CLST         239          1.0000000000
       717       239  TIP3  H2            8.8734732782        7.6452917157        0.2764409099  CLST         239          1.0000000000
       718       240  TIP3  OH2          -9.9421933301        8.4964221244        1.7182904884  CLST         240          1.0000000000
       719       240  TIP3  H1          -10.8595734618        8.9685337322        1.8101927919  CLST         240          1.0000000000
       720       240  TIP3  H2          -10.3838575982        7.7132235937        2.0776853405  CLST         240          1.0000000000
       721       241  TIP3  OH2          10.9324089955       -4.4392274310       -1.7240277583  CLST         241          1.0000000000
       722       241  TIP3  H1           10.2115623225       -4.7918119972       -2.2908841014  CLST         241          1.0000000000
       723       241  TIP3  H2           11.5301926073       -4.8432179437       -2.2867217709  CLST         241          1.0000000000
       724       242  TIP3  OH2           9.3172360892       -1.6508549669       -4.4094372083  CLST         242          1.0000000000
       725       242  TIP3  H1           10.2327993781       -1.6689880219       -4.3252847750  CLST         242          1.0000000000
       726       242  TIP3  H2            9.2682226980       -1.9172840509       -3.3688359765  CLST         242          1.0000000000
       727       243  TIP3  OH2           5.0364926768        9.4306801582      -12.1647094465  CLST         243          1.0000000000
       728       243  TIP3  H1            4.4737485036       10.1668756887      -11.4641249774  CLST         243          1.0000000000
       729       243  TIP3  H2            4.8982600940        8.8869781208      -11.5085208106  CLST         243          1.0000000000
       730       244  TIP3  OH2          -8.9590044923       -6.6672129997      -14.3120952529  CLST         244          1.0000000000
       731       244  TIP3  H1           -9.6285761419       -6.1179202634      -13.9492711585  CLST         244          1.0000000000
       732       244  TIP3  H2          -10.0196172283       -6.9274975386      -14.8649879395  CLST         244          1.0000000000
       733       245  TIP3  OH2         -13.1898577987        6.2195717956        2.1826751893  CLST         245          1.0000000000
       734       245  TIP3  H1          -13.0109325726        6.7340475587        2.9677343566  CLST         245          1.0000000000
       735       245  TIP3  H2          -12.3045282128        5.9049890247        2.0735678035  CLST         245          1.0000000000
       736       246  TIP3  OH2          -9.2090136827        6.3095573395       -1.8401477230  CLST         246          1.0000000000
       737       246  TIP3  H1          -10.0230936811        6.3286038851       -2.3067347075  CLST         246          1.0000000000
       738       246  TIP3  H2           -9.3004686182        7.4820549788       -2.1833558929  CLST         246          1.0000000000
       739       247  TIP3  OH2          -4.5032934070        7.8852938411        7.9273412920  CLST         247          1.0000000000
       740       247  TIP3  H1           -3.5677868624        7.8154567370        8.1313514194  CLST         247          1.0000000000
       741       247  TIP3  H2           -4.7390439274        7.9481832080        8.8394488728  CLST         247          1.0000000000
       742       248  TIP3  OH2           9.8318000211       -7.9863666185        7.9684128744  CLST         248          1.0000000000
       743       248  TIP3  H1            8.9809784987       -8.4745592135        7.9744446674  CLST         248          1.0000000000
       744       248  TIP3  H2            9.8096219192       -8.0603400794        7.0035410026  CLST         248          1.0000000000
       745       249  TIP3  OH2           9.6985998124        5.7196598117       -1.1107129794  CLST         249          1.0000000000
       746       249  TIP3  H1           10.6559531677        5.1142761053       -1.1724908665  CLST         249          1.0000000000
       747       249  TIP3  H2           10.3763331996        6.0072679878       -1.6330759654  CLST         249          1.0000000000
       748       250  TIP3  OH2           5.6824904545       -4.8557642517        3.2285235744  CLST         250          1.0000000000
       749       250  TIP3  H1            6.1781608979       -5.5718224039        2.7902342724  CLST         250          1.0000000000
       750       250  TIP3  H2            5.0514238555       -5.2462575270        3.8247534510  CLST         250          1.0000000000
       751       251  TIP3  OH2         -14.6622790867      -11.6793791607        1.8253376647  CLST         251          1.0000000000
       752       251  TIP3  H1          -14.2408074251      -12.3437649145        1.2779879982  CLST         251          1.0000000000
       753       251  TIP3  H2          -14.3585436389      -12.0555017631        2.6086201471  CLST         251          1.0000000000
       754       252  TIP3  OH2          -7.2210270120      -14.6178369332      -11.9386953718  CLST         252          1.0000000000
       755       252  TIP3  H1           -8.1332506766      -14.3302720605      -11.9001104507  CLST         252          1.0000000000
       756       252  TIP3  H2           -7.1010692174      -13.8733604764      -12.5286005731  CLST         252          1.0000000000
       757       253  TIP3  OH2           0.8334644398        7.4021433898        7.8444732688  CLST         253          1.0000000000
       758       253  TIP3  H1            0.8025586421        7.2016915921        6.6522908225  CLST         253          1.0000000000
       759       253  TIP3  H2            1.6333154089        7.2617131471        7.4909221338  CLST         253          1.0000000000
       760       254  TIP3  OH2         -11.5089508155        1.2400717326      -14.5044265942  CLST         254          1.0000000000
       761       254  TIP3  H1          -12.2442103499        0.6670714817      -14.1818527814  CLST         254          1.0000000000
       762       254  TIP3  H2          -12.1794211798        1.9165800941      -14.4590259481  CLST         254          1.0000000000
       763       255  TIP3  OH2           4.1108506642       -0.0130133838       -0.8154049407  CLST         255          1.0000000000
       764       255  TIP3  H1            3.9145798075       -0.6332458332       -0.1619763239  CLST         255          1.0000000000
       765       255  TIP3  H2            3.1786062501       -0.0076179341       -1.1891810062  CLST         255          1.0000000000
       766       256  TIP3  OH2          14.0647410442       -3.1546055802      -12.1189442810  CLST         256          1.0000000000
       767       256  TIP3  H1           14.6582438634       -3.3438507914      -12.7757658200  CLST         256          1.0000000000
       768       256  TIP3  H2           13.4338048005       -3.8120563905      -12.5371409306  CLST         256          1.0000000000
       769       257  TIP3  OH2          -6.3638540734      -13.3505913254       10.1009771694  CLST         257          1.0000000000
       770       257  TIP3  H1           -6.7509735707      -14.3021512162        9.9732148096  CLST         257          1.0000000000
       771       257  TIP3  H2           -5.6706610696      -13.8034977850       10.6094198960  CLST         257          1.0000000000
       772       258  TIP3  OH2         -10.4725307198      -11.9116009466       -6.5964684962  CLST         258          1.0000000000
       773       258  TIP3  H1          -10.0678089527      -11.7084970201       -5.7235999023  CLST         258          1.0000000000
       774       258  TIP3  H2          -10.6403611567      -10.9800962160       -6.6428388706  CLST         258          1.0000000000
       775       259  TIP3  OH2           2.7587988103        1.5976033490       13.9570362010  CLST         259          1.0000000000
       776       259  TIP3  H1            3.1873735107        0.7518190131       14.0179705191  CLST         259          1.0000000000
       777       259  TIP3  H2            2.7464324957        1.5973910553       14.9366534315  CLST         259          1.0000000000
       778       260  TIP3  OH2         -10.6713102470      -10.3192153560       -9.5257223742  CLST         260          1.0000000000
       779       260  TIP3  H1          -11.3633692256      -10.8872532316       -9.7722423411  CLST         260          1.0000000000
       780       260  TIP3  H2          -11.2455481996       -9.5994091562       -9.3890192077  CLST         260          1.0000000000
       781       261  TIP3  OH2           7.0131016320        1.1169743166       -0.2362863115  CLST         261          1.0000000000
       782       261  TIP3  H1            6.9181183651        1.9781898887       -0.8039033764  CLST         261          1.0000000000
       783       261  TIP3  H2            6.1400725509        0.8650576480       -0.3641456535  CLST         261          1.0000000000
       784       262  TIP3  OH2          -2.0594588458       14.3015477963        3.0423265981  CLST         262          1.0000000000
       785       262  TIP3  H1           -2.6991772997       13.9939044310        3.6714255901  CLST         262          1.0000000000
       786       262  TIP3  H2           -1.4557146541       13.6506213201        3.2520673623  CLST         262          1.0000000000
       787       263  TIP3  OH2           6.6843548274        3.8603505673        1.8272313490  CLST         263          1.0000000000
       788       263  TIP3  H1            6.3693150132        3.1935586750        1.2414939776  CLST         263          1.0000000000
       789       263  TIP3  H2            6.2601064189        3.4433078836        2.5332123833  CLST         263          1.0000000000
       790       264  TIP3  OH2          -3.1851186919       10.3391372830       10.0291776892  CLST         264          1.0000000000
       791       264  TIP3  H1           -2.4786534878       10.8768911208       10.2577840324  CLST         264          1.0000000000
       792       264  TIP3  H2           -2.2356664472        9.8239025784        9.5313479578  CLST         264          1.0000000000
       793       265  TIP3  OH2         -12.8127023905       12.5850770980       -0.1380487507  CLST         265          1.0000000000
       794       265  TIP3  H1          -13.1246649335       12.8722648092       -0.9490591098  CLST         265          1.0000000000
       795       265  TIP3  H2          -13.2511659523       11.6728957250       -0.2297059776  CLST         265          1.0000000000
       796       266  TIP3  OH2          -4.0184416319        1.5508137973        4.1453154915  CLST         266          1.0000000000
       797       266  TIP3  H1           -4.1081134352        0.6814505433        3.6091148056  CLST         266          1.0000000000
       798       266  TIP3  H2           -3.9831834584        2.0051512589        3.3125358154  CLST         266          1.0000000000
       799       267  TIP3  OH2          -7.2652416667       11.6374511622       -5.3508916633  CLST         267          1.0000000000
       800       267  TIP3  H1           -7.9994970331       11.5603688526       -5.9834225988  CLST         267          1.0000000000
       801       267  TIP3  H2           -7.8935542189       12.1112960638       -4.8300893641  CLST         267          1.0000000000
       802       268  TIP3  OH2           4.9098549285        3.5034844470      -14.0427638713  CLST         268          1.0000000000
       803       268  TIP3  H1            5.5974500687        3.6478946885      -13.3512222791  CLST         268          1.0000000000
       804       268  TIP3  H2            4.9311817123        4.3990825284      -14.4263710434  CLST         268          1.0000000000
       805       269  TIP3  OH2           9.3427271240       -0.4140861710       11.2052168905  CLST         269          1.0000000000
       806       269  TIP3  H1           10.1048669534        0.1025652948       11.7877949631  CLST         269          1.0000000000
       807       269  TIP3  H2            9.3953313609       -0.6033942462       12.0803234456  CLST         269          1.0000000000
       808       270  TIP3  OH2          -8.0197091417       -6.0020316955        6.1879887285  CLST         270          1.0000000000
       809       270  TIP3  H1           -8.1528159585       -5.9383796398        5.2556807414  CLST         270          1.0000000000
       810       270  TIP3  H2           -7.0928880518       -6.0284380536        6.3250757085  CLST         270          1.0000000000
       811       271  TIP3  OH2         -11.8460992797       12.1708219737       11.6045561097  CLST         271          1.0000000000
       812       271  TIP3  H1          -11.1082216012       12.0462242140       12.1998094510  CLST         271          1.0000000000
       813       271  TIP3  H2          -10.7362061938       12.6110011109       11.2526431570  CLST         271          1.0000000000
       814       272  TIP3  OH2           7.1383490933      -14.0975770108        3.2044391274  CLST         272          1.0000000000
       815       272  TIP3  H1            7.4582331545      -13.4179736001        3.7885414795  CLST         272          1.0000000000
       816       272  TIP3  H2            6.9358968501      -14.0765544086        4.3536727215  CLST         272          1.0000000000
       817       273  TIP3  OH2          -8.6497648856       11.0393213284       -7.5581414427  CLST         273          1.0000000000
       818       273  TIP3  H1           -9.3314185114       11.5961663857       -7.9299869374  CLST         273          1.0000000000
       819       273  TIP3  H2           -9.2207908448       10.2795673243       -7.5752039632  CLST         273          1.0000000000
       820       274  TIP3  OH2          -6.8653939241        0.5749047589       13.7957734960  CLST         274          1.0000000000
       821       274  TIP3  H1           -7.6979460355        0.6555035399       14.2623575882  CLST         274          1.0000000000
       822       274  TIP3  H2           -7.2826291666        0.5033307414       12.9554260452  CLST         274          1.0000000000
       823       275  TIP3  OH2           3.8127942728      -14.8851416403       -0.8847471649  CLST         275          1.0000000000
       824       275  TIP3  H1            3.4484407300      -14.1379962829       -0.3025047193  CLST         275          1.0000000000
       825       275  TIP3  H2            4.0317709820      -14.1424813927       -1.5103478087  CLST         275          1.0000000000
       826       276  TIP3  OH2           2.2657310807       -9.9173079819        7.1765667381  CLST         276          1.0000000000
       827       276  TIP3  H1            2.0516961839      -10.2961210730        8.0824820211  CLST         276          1.0000000000
       828       276  TIP3  H2            2.9907697688       -9.4986511218        7.6412843816  CLST         276          1.0000000000
       829       277  TIP3  OH2          -7.1485556751        7.0436371906        2.8230454985  CLST         277          1.0000000000
       830       277  TIP3  H1           -7.9700293569        6.7956769551        2.4566364361  CLST         277          1.0000000000
       831       277  TIP3  H2           -6.7427538711        6.2529856241        2.5036753395  CLST         277          1.0000000000
       832       278  TIP3  OH2           4.9785902321      -10.6057059642        9.8926501941  CLST         278          1.0000000000
       833       278  TIP3  H1            5.2828596945       -9.8238947529        9.3692673794  CLST         278          1.0000000000
       834       278  TIP3  H2            4.4385981792      -10.1017876193       10.5230865658  CLST         278          1.0000000000
       835       279  TIP3  OH2          11.9886748241       -5.7044723359        7.4305711270  CLST         279          1.0000000000
       836       279  TIP3  H1           11.3011039372       -6.1220030215        6.8681204438  CLST         279          1.0000000000
       837       279  TIP3  H2           12.5322548518       -5.5572379398        6.6068004664  CLST         279          1.0000000000
       838       280  TIP3  OH2           6.7823760721       -8.8804068787       12.7527874454  CLST         280          1.0000000000
       839       280  TIP3  H1            6.9451128680       -9.8097420390       12.7447524527  CLST         280          1.0000000000
       840       280  TIP3  H2            7.6305466715       -8.4652851176       12.4972171656  CLST         280          1.0000000000
       841       281  TIP3  OH2          -1.4121263623        4.6350562700       10.7078369946  CLST         281          1.0000000000
       842       281  TIP3  H1           -1.9707822954        3.8720148560       10.7295953111  CLST         281          1.0000000000
       843       281  TIP3  H2           -1.4498594483        4.9999697038       11.5562683398  CLST         281          1.0000000000
       844       282  TIP3  OH2          10.6523576256       10.8489140983      -10.9103623627  CLST         282          1.0000000000
       845       282  TIP3  H1           11.2556346336       10.2719410296      -11.3252399889  CLST         282          1.0000000000
       846       282  TIP3  H2           11.3328930924       11.4867575107      -10.8795711676  CLST         282          1.0000000000
       847       283  TIP3  OH2          -3.0702686492       -4.3280008469        0.0849156118  CLST         283          1.0000000000
       848       283  TIP3  H1           -3.5889813245       -4.5884810543       -0.6478175528  CLST         283          1.0000000000
       849       283  TIP3  H2           -2.9794006160       -5.2967865022        0.3157991257  CLST         283          1.0000000000
       850       284  TIP3  OH2           4.0973827792       10.9246981628        2.1253344496  CLST         284          1.0000000000
       851       284  TIP3  H1            4.5359773337       10.1160602206        2.0064634849  CLST         284          1.0000000000
       852       284  TIP3  H2            3.4177944413       10.5821234828        2.6818205875  CLST         284          1.0000000000
       853       285  TIP3  OH2         -11.5838631033       -6.1570343513        8.2731053830  CLST         285          1.0000000000
       854       285  TIP3  H1          -10.7148726446       -6.8993933024        8.0735986228  CLST         285          1.0000000000
       855       285  TIP3  H2          -11.8043864512       -6.4313810615        7.3617357820  CLST         285          1.0000000000
       856       286  TIP3  OH2          -2.7312075249       -9.7397255384      -10.6132891005  CLST         286          1.0000000000
       857       286  TIP3  H1           -2.3643513484       -9.3457722592      -11.3816780518  CLST         286          1.0000000000
       858       286  TIP3  H2           -2.9839283070      -10.4859798125      -11.1258764471  CLST         286          1.0000000000
       859       287  TIP3  OH2           2.6794583867       -0.7669047117       -7.8201071116  CLST         287          1.0000000000
       860       287  TIP3  H1            2.7737682264        0.1631531761       -7.9174531575  CLST         287          1.0000000000
       861       287  TIP3  H2            3.7424010565       -0.3739039827       -8.2344754249  CLST         287          1.0000000000
       862       288  TIP3  OH2          13.8235828015      -14.4002471230       -8.2873776786  CLST         288          1.0000000000
       863       288  TIP3  H1           13.3754659745      -13.6460216635       -7.7069858649  CLST         288          1.0000000000
       864       288  TIP3  H2           14.3446724784      -14.5815338379       -7.5486289450  CLST         288          1.0000000000
       865       289  TIP3  OH2          13.9713137034        3.6571022816      -10.1937583515  CLST         289          1.0000000000
       866       289  TIP3  H1           13.8615683528        3.5866832305       -9.1891666704  CLST         289          1.0000000000
       867       289  TIP3  H2           14.8658071062        3.4282813757      -10.0624147317  CLST         289          1.0000000000
       868       290  TIP3  OH2          11.5569455686        0.9609353779       12.1311235905  CLST         290          1.0000000000
       869       290  TIP3  H1           11.2533044991        1.0759888786       13.1405857788  CLST         290          1.0000000000
       870       290  TIP3  H2           11.9749826131        1.7862654102       12.1709711501  CLST         290          1.0000000000
       871       291  TIP3  OH2         -11.2998409785       -9.3887621946       -2.8054649974  CLST         291          1.0000000000
       872       291  TIP3  H1          -10.6947654527       -9.9483937314       -2.2345343021  CLST         291          1.0000000000
       873       291  TIP3  H2          -11.5325999938       -8.9284293506       -1.9922958208  CLST         291          1.0000000000
       874       292  TIP3  OH2           9.1929202693       -1.9366306150      -11.5687139855  CLST         292          1.0000000000
       875       292  TIP3  H1            8.6061045214       -2.6595469836      -11.6931671897  CLST         292          1.0000000000
       876       292  TIP3  H2            9.2462169304       -2.0306695010      -10.5546493606  CLST         292          1.0000000000
       877       293  TIP3  OH2           2.4180462080        2.7272060028      -13.5848003188  CLST         293          1.0000000000
       878       293  TIP3  H1            2.0123766164        3.5295594642      -13.8953707853  CLST         293          1.0000000000
       879       293  TIP3  H2            3.3189216526        3.1339482463      -13.5899515792  CLST         293          1.0000000000
       880       294  TIP3  OH2           1.6827118379        7.9907337468        0.8335386133  CLST         294          1.0000000000
       881       294  TIP3  H1            1.6608571309        7.1661965099        1.4634465883  CLST         294          1.0000000000
       882       294  TIP3  H2            2.3438182872        8.1436362561        1.8237411808  CLST         294          1.0000000000
       883       295  TIP3  OH2           3.7931295387       12.8386649704       -4.3577199115  CLST         295          1.0000000000
       884       295  TIP3  H1            3.6134906715       13.5047790451       -3.6819077684  CLST         295          1.0000000000
       885       295  TIP3  H2            3.9730125589       13.5820904241       -4.9847559765  CLST         295          1.0000000000
       886       296  TIP3  OH2           2.7531243639        5.5570255359      -11.3303073666  CLST         296          1.0000000000
       887       296  TIP3  H1            2.2052080057        5.5667631911      -12.3266985578  CLST         296          1.0000000000
       888       296  TIP3  H2            1.7459679457        5.2999883725      -11.4020519959  CLST         296          1.0000000000
       889       297  TIP3  OH2          13.5300097550        0.1533179159        8.9178880695  CLST         297          1.0000000000
       890       297  TIP3  H1           13.7918052192        1.0583870071        9.0505719803  CLST         297          1.0000000000
       891       297  TIP3  H2           14.4311597127       -0.0951622012        8.9929054620  CLST         297          1.0000000000
       892       298  TIP3  OH2          12.2490143431       -5.1959374104      -12.4901402736  CLST         298          1.0000000000
       893       298  TIP3  H1           11.6240487548       -5.8060389731      -12.8843988905  CLST         298          1.0000000000
       894       298  TIP3  H2           12.9128844548       -5.9812291906      -12.2858620258  CLST         298          1.0000000000
       895       299  TIP3  OH2           3.4093285261       -5.7136870894       -7.5162603684  CLST         299          1.0000000000
       896       299  TIP3  H1            3.0263126445       -4.6561252550       -7.2431706799  CLST         299          1.0000000000
       897       299  TIP3  H2            3.1512591771       -5.8470558873       -6.6136969529  CLST         299          1.0000000000
       898       300  TIP3  OH2          10.2402126376       -6.9039677845      -13.8057731980  CLST         300          1.0000000000
       899       300  TIP3  H1            9.8943711256       -6.0856049100      -14.2675403488  CLST         300          1.0000000000
       900       300  TIP3  H2            9.2757000830       -6.3710965265      -13.3787283008  CLST         300          1.0000000000
       901       301  TIP3  OH2          11.3016493219       -6.8320126058        0.4080073722  CLST         301          1.0000000000
       902       301  TIP3  H1           11.0804979003       -6.0889987020       -0.1011389198  CLST         301          1.0000000000
       903       301  TIP3  H2           11.0240463447       -7.3878966235       -0.3209753318  CLST         301          1.0000000000
       904       302  TIP3  OH2          11.5993564311       -7.3637682474       12.0697189506  CLST         302          1.0000000000
       905       302  TIP3  H1           11.8821618153       -6.6822416161       11.4309704018  CLST         302          1.0000000000
       906       302  TIP3  H2           11.6478053730       -8.1990166210       11.5093949079  CLST         302          1.0000000000
       907       303  TIP3  OH2          -8.9074168486       11.5747453895        6.9198210633  CLST         303          1.0000000000
       908       303  TIP3  H1           -9.3733433279       11.7484309379        6.0736892304  CLST         303          1.0000000000
       909       303  TIP3  H2           -8.2575759294       12.2738059880        6.7070520867  CLST         303          1.0000000000
       910       304  TIP3  OH2          -1.8953744846        8.2272215540       -0.8133801621  CLST         304          1.0000000000
       911       304  TIP3  H1           -2.4423833099        7.7519991723       -0.2096463386  CLST         304          1.0000000000
       912       304  TIP3  H2           -2.5875498302        8.8620317672       -0.9724194865  CLST         304          1.0000000000
       913       305  TIP3  OH2          -2.5724458946       -6.1633297193      -10.3531970864  CLST         305          1.0000000000
       914       305  TIP3  H1           -1.8992033787       -5.2402171371      -10.4469048459  CLST         305          1.0000000000
       915       305  TIP3  H2           -1.8968033059       -6.6315607943      -10.8337936348  CLST         305          1.0000000000
       916       306  TIP3  OH2          -8.4231082142      -14.3535886509       -6.9371101494  CLST         306          1.0000000000
       917       306  TIP3  H1           -7.4115511722      -14.1466604901       -7.0541063570  CLST         306          1.0000000000
       918       306  TIP3  H2           -7.3126454376      -13.8358966445       -5.8236303251  CLST         306          1.0000000000
       919       307  TIP3  OH2           0.5388532086       10.2308955810      -14.5273115731  CLST         307          1.0000000000
       920       307  TIP3  H1            1.0351075084       10.7766586844      -13.8953998229  CLST         307          1.0000000000
       921       307  TIP3  H2            1.1589905258        9.5024559973      -14.3667195010  CLST         307          1.0000000000
       922       308  TIP3  OH2          12.5414582383       -3.4072310872       13.2475221080  CLST         308          1.0000000000
       923       308  TIP3  H1           12.8281071844       -3.2408150693       12.3597010360  CLST         308          1.0000000000
       924       308  TIP3  H2           13.2406165810       -4.0018528468       13.4812273540  CLST         308          1.0000000000
       925       309  TIP3  OH2          12.9010472337       12.4909968284       14.8090092424  CLST         309          1.0000000000
       926       309  TIP3  H1           12.1797842380       12.1760308695       14.2492611509  CLST         309          1.0000000000
       927       309  TIP3  H2           13.1476166733       13.1053107426       14.1505218379  CLST         309          1.0000000000
       928       310  TIP3  OH2           4.3427733853       14.6228028894       -6.4387331654  CLST         310          1.0000000000
       929       310  TIP3  H1            4.2345639442       14.8769907874       -7.3479655364  CLST         310          1.0000000000
       930       310  TIP3  H2            3.2960556016       14.1087615061       -6.7032703519  CLST         310          1.0000000000
       931       311  TIP3  OH2          -5.6889144719        5.9118769087       -5.2809372792  CLST         311          1.0000000000
       932       311  TIP3  H1           -6.5317289314        5.4520714608       -5.1559363246  CLST         311          1.0000000000
       933       311  TIP3  H2           -5.8894617395        6.0738076657       -6.2255598772  CLST         311          1.0000000000
       934       312  TIP3  OH2           5.0577771513       -8.7745603816        8.0373259187  CLST         312          1.0000000000
       935       312  TIP3  H1            4.8537912572       -7.8544821277        8.5218633250  CLST         312          1.0000000000
       936       312  TIP3  H2            5.9579210983       -8.4956342804        7.8215376774  CLST         312          1.0000000000
       937       313  TIP3  OH2          -2.3501380109        7.9382863962       11.0485035084  CLST         313          1.0000000000
       938       313  TIP3  H1           -2.8129216990        8.6826234410       11.3499969442  CLST         313          1.0000000000
       939       313  TIP3  H2           -3.1315384944        7.2991704715       10.8317866448  CLST         313          1.0000000000
       940       314  TIP3  OH2           9.2902019942       -2.3170620894       -1.9210228563  CLST         314          1.0000000000
       941       314  TIP3  H1            9.3218772082       -3.1263936929       -1.5795828893  CLST         314          1.0000000000
       942       314  TIP3  H2            8.5500349121       -2.0934811269       -1.1898901955  CLST         314          1.0000000000
       943       315  TIP3  OH2           4.4830937204       10.0384693131       -2.5517824408  CLST         315          1.0000000000
       944       315  TIP3  H1            3.7515107719        9.4095970544       -2.4815016625  CLST         315          1.0000000000
       945       315  TIP3  H2            4.1181833923       10.7087303154       -1.9252492913  CLST         315          1.0000000000
       946       316  TIP3  OH2          13.8874211646       -6.6306417512       -5.9100334798  CLST         316          1.0000000000
       947       316  TIP3  H1           13.0104959612       -6.5392506885       -5.5033406210  CLST         316          1.0000000000
       948       316  TIP3  H2           13.7930937875       -5.7747550348       -6.3941418001  CLST         316          1.0000000000
       949       317  TIP3  OH2          -3.0487183286       -9.9717961411       -2.4830988615  CLST         317          1.0000000000
       950       317  TIP3  H1           -3.5089180253      -10.1006275249       -3.3080445784  CLST         317          1.0000000000
       951       317  TIP3  H2           -2.2623511616       -9.6703204610       -2.9843356525  CLST         317          1.0000000000
       952       318  TIP3  OH2          -1.3206364818        9.7209197768       -4.7171314721  CLST         318          1.0000000000
       953       318  TIP3  H1           -2.0218804089        9.4095638449       -5.2797499705  CLST         318          1.0000000000
       954       318  TIP3  H2           -1.5342203833       10.6001054581       -4.7733990339  CLST         318          1.0000000000
       955       319  TIP3  OH2           6.1066669915       -7.9641007663       -2.1372405907  CLST         319          1.0000000000
       956       319  TIP3  H1            6.7745798272       -8.4092033753       -2.6929626576  CLST         319          1.0000000000
       957       319  TIP3  H2            6.1693197168       -8.6992261654       -1.5017910281  CLST         319          1.0000000000
       958       320  TIP3  OH2           5.8227210279       12.8262305769      -12.1285724963  CLST         320          1.0000000000
       959       320  TIP3  H1            6.1423078464       12.2217002928      -12.9773486973  CLST         320          1.0000000000
       960       320  TIP3  H2            6.7762149768       12.1956546392      -12.0078147703  CLST         320          1.0000000000
       961       321  TIP3  OH2           1.3862456790      -11.4524204638        9.2855193136  CLST         321          1.0000000000
       962       321  TIP3  H1            1.6300981812      -12.1447730667        9.9316306369  CLST         321          1.0000000000
       963       321  TIP3  H2            1.8427822333      -10.8307228783        9.8257928976  CLST         321          1.0000000000
       964       322  TIP3  OH2           0.9931516110        5.7338635437       10.0742542364  CLST         322          1.0000000000
       965       322  TIP3  H1            0.6091324209        6.3138083876        9.3821833621  CLST         322          1.0000000000
       966       322  TIP3  H2            0.0847716755        5.5646064680       10.3869371213  CLST         322          1.0000000000
       967       323  TIP3  OH2           8.0761751398        3.3299787236       12.6556138862  CLST         323          1.0000000000
       968       323  TIP3  H1            7.1345308065        3.1273262610       12.6368297774  CLST         323          1.0000000000
       969       323  TIP3  H2            8.1309401633        3.1895289714       11.6966340365  CLST         323          1.0000000000
       970       324  TIP3  OH2           6.4619457304        3.0832890309       -1.7260854971  CLST         324          1.0000000000
       971       324  TIP3  H1            6.2517021100        3.9899254189       -1.7126627479  CLST         324          1.0000000000
       972       324  TIP3  H2            6.3441596576        3.0087074429       -2.6556086997  CLST         324          1.0000000000
       973       325  TIP3  OH2         -12.5506228230       -8.6932091089       11.8998578029  CLST         325          1.0000000000
       974       325  TIP3  H1          -12.8280630599       -7.8712819322       11.5151680723  CLST         325          1.0000000000
       975       325  TIP3  H2          -11.6703973223       -8.3497247906       11.8447977971  CLST         325          1.0000000000
       976       326  TIP3  OH2         -12.2144337612        9.1725724217       -5.1077363061  CLST         326          1.0000000000
       977       326  TIP3  H1          -12.0154111739       10.0438314602       -5.4880654190  CLST         326          1.0000000000
       978       326  TIP3  H2          -11.5311955922        8.8227197501       -5.6326884457  CLST         326          1.0000000000
       979       327  TIP3  OH2          12.4332396808       -5.8293327079        9.8000316303  CLST         327          1.0000000000
       980       327  TIP3  H1           12.0663173459       -6.0646110457        8.9400592942  CLST         327          1.0000000000
       981       327  TIP3  H2           13.0728167857       -5.1585878026        9.4889095684  CLST         327          1.0000000000
       982       328  TIP3  OH2         -12.2847513911       -7.9013609474      -12.6577910140  CLST         328          1.0000000000
       983       328  TIP3  H1          -11.4019684144       -7.6201079937      -12.3287878435  CLST         328          1.0000000000
       984       328  TIP3  H2          -11.9117815814       -8.7935573498      -12.5515139049  CLST         328          1.0000000000
       985       329  TIP3  OH2           6.6763399981       -4.3790319673       -1.6655035464  CLST         329          1.0000000000
       986       329  TIP3  H1            6.1986799011       -3.9222046602       -1.0810684034  CLST         329          1.0000000000
       987       329  TIP3  H2            5.5202067210       -4.2142069373       -1.8094824197  CLST         329          1.0000000000
       988       330  TIP3  OH2          12.7700317703        5.7116745772      -14.2827091901  CLST         330          1.0000000000
       989       330  TIP3  H1           13.5620465080        5.6498944314      -14.7680820958  CLST         330          1.0000000000
       990       330  TIP3  H2           13.3148994550        5.6267793134      -13.4530944190  CLST         330          1.0000000000
       991       331  TIP3  OH2          -4.4365394568       -0.0745321103        6.0787918326  CLST         331          1.0000000000
       992       331  TIP3  H1           -4.4404299463        0.5907242490        5.3100401455  CLST         331          1.0000000000
       993       331  TIP3  H2           -5.3606003321        0.1518248748        6.2974880636  CLST         331          1.0000000000
       994       332  TIP3  OH2          -8.7794715254        9.1290984860       -2.1428902061  CLST         332          1.0000000000
       995       332  TIP3  H1           -9.3683718892        9.9379014674       -1.8012445236  CLST         332          1.0000000000
       996       332  TIP3  H2           -8.3336916911        9.3501834912       -1.1348787410  CLST         332          1.0000000000
       997       333  TIP3  OH2          -6.9218031673       -8.7118490394       -6.7915878359  CLST         333          1.0000000000
       998       333  TIP3  H1           -7.5458920062       -9.1051157320       -7.4139332106  CLST         333          1.0000000000
       999       333  TIP3  H2           -7.4394018275       -7.8606761305       -6.7897177997  CLST         333          1.0000000000
      1000       334  TIP3  OH2         -10.5372751887        8.2792686137       -9.4408381480  CLST         334          1.0000000000
      1001       334  TIP3  H1          -10.1368865319        9.1222919638       -9.7182934800  CLST         334          1.0000000000
      1002       334  TIP3  H2           -9.9806616571        8.3216654482       -8.6740837882  CLST         334          1.0000000000
      1003       335  TIP3  OH2           1.3884491573        0.1020077645       -1.2942820806  CLST         335          1.0000000000
      1004       335  TIP3  H1            0.9499788723       -0.5870450206       -0.7171658114  CLST         335          1.0000000000
      1005       335  TIP3  H2            0.3639841608       -0.0080261025       -1.8421930161  CLST         335          1.0000000000
      1006       336  TIP3  OH2          11.7001427333        5.5941983523        1.4750172816  CLST         336          1.0000000000
      1007       336  TIP3  H1           10.8897791419        5.0929672880        1.3425148776  CLST         336          1.0000000000
      1008       336  TIP3  H2           11.2165941635        6.3897698404        1.3286095345  CLST         336          1.0000000000
      1009       337  TIP3  OH2           2.2521607365      -14.8394837784        5.2951083079  CLST         337          1.0000000000
      1010       337  TIP3  H1            2.1522014102      -14.0929161641        5.6405364748  CLST         337          1.0000000000
      1011       337  TIP3  H2            1.7858678022      -14.0627168133        4.6996523210  CLST         337          1.0000000000
      1012       338  TIP3  OH2          -4.2578483438        2.8006964253      -11.5829129703  CLST         338          1.0000000000
      1013       338  TIP3  H1           -5.1588803510        2.9319062194      -11.9087042203  CLST         338          1.0000000000
      1014       338  TIP3  H2           -4.4198254592        1.9040496527      -11.9838452535  CLST         338          1.0000000000
      1015       339  TIP3  OH2           5.0294102908        2.1805459543       -7.8900995092  CLST         339          1.0000000000
      1016       339  TIP3  H1            4.0708013503        2.0473840635       -7.8906267984  CLST         339          1.0000000000
      1017       339  TIP3  H2            4.9953139986        2.8677890932       -8.5847663242  CLST         339          1.0000000000
      1018       340  TIP3  OH2         -10.7552986639       12.0462179228       -8.8031819430  CLST         340          1.0000000000
      1019       340  TIP3  H1          -11.6783123500       12.0439399475       -9.0777416724  CLST         340          1.0000000000
      1020       340  TIP3  H2          -10.7882545410       12.6449368028       -8.0008144941  CLST         340          1.0000000000
      1021       341  TIP3  OH2          -1.8732627000       13.9112578184       -0.7205171296  CLST         341          1.0000000000
      1022       341  TIP3  H1           -1.6685405147       13.0868944823       -1.1570569888  CLST         341          1.0000000000
      1023       341  TIP3  H2           -2.4750295967       14.1582398188       -1.4056619668  CLST         341          1.0000000000
      1024       342  TIP3  OH2         -11.7372847033        3.5448185717        9.6572965268  CLST         342          1.0000000000
      1025       342  TIP3  H1          -12.4875218510        3.1118255031       10.0846407495  CLST         342          1.0000000000
      1026       342  TIP3  H2          -11.2240254911        3.7064269564       10.3815841521  CLST         342          1.0000000000
      1027       343  TIP3  OH2          -0.7359409609       -1.3849012536      -13.9856805593  CLST         343          1.0000000000
      1028       343  TIP3  H1           -1.3614449669       -0.6684930498      -13.9675664117  CLST         343          1.0000000000
      1029       343  TIP3  H2           -0.5293457095       -1.3443759868      -14.8955831693  CLST         343          1.0000000000
      1030       344  TIP3  OH2           8.9829617646        4.1399068767        4.2346575899  CLST         344          1.0000000000
      1031       344  TIP3  H1            8.4992254505        5.0917424476        4.7810687496  CLST         344          1.0000000000
      1032       344  TIP3  H2            8.2099576794        4.0199124501        4.9418707050  CLST         344          1.0000000000
      1033       345  TIP3  OH2           0.1968812074        9.7714905951       -0.3458998368  CLST         345          1.0000000000
      1034       345  TIP3  H1            0.8058056199        9.1097907773        0.0798065199  CLST         345          1.0000000000
      1035       345  TIP3  H2           -0.4800137310        9.0870377059       -0.3235429127  CLST         345          1.0000000000
      1036       346  TIP3  OH2          -4.9049078123      -14.6341735652        6.2231155793  CLST         346          1.0000000000
      1037       346  TIP3  H1           -5.4648439612      -13.6918174168        5.7131724822  CLST         346          1.0000000000
      1038       346  TIP3  H2           -4.6585273861      -13.8251228734        6.5521642098  CLST         346          1.0000000000
      1039       347  TIP3  OH2         -13.8771352412      -11.5932041465       -2.0228033976  CLST         347          1.0000000000
      1040       347  TIP3  H1          -14.0359208781      -10.9600674211       -2.6379482632  CLST         347          1.0000000000
      1041       347  TIP3  H2          -13.6558328730      -10.8871298687       -1.3196216967  CLST         347          1.0000000000
      1042       348  TIP3  OH2           4.3385897090        7.5218620117       -7.4111111812  CLST         348          1.0000000000
      1043       348  TIP3  H1            5.1236314338        7.1246371172       -6.6290531595  CLST         348          1.0000000000
      1044       348  TIP3  H2            4.6952999222        8.1844478385       -6.5723036034  CLST         348          1.0000000000
      1045       349  TIP3  OH2           8.0888794547        9.9803183690        2.4847119431  CLST         349          1.0000000000
      1046       349  TIP3  H1            8.5709775169       10.1887841060        1.6675753288  CLST         349          1.0000000000
      1047       349  TIP3  H2            7.5629908445        9.3541501528        1.9905691526  CLST         349          1.0000000000
      1048       350  TIP3  OH2          -8.8334646759        1.0204701060      -14.7167900530  CLST         350          1.0000000000
      1049       350  TIP3  H1           -9.3022200833        0.3175378059      -14.0853841704  CLST         350          1.0000000000
      1050       350  TIP3  H2          -10.0180752579        1.2204925153      -14.6091371523  CLST         350          1.0000000000
      1051       351  TIP3  OH2          10.2760545498        3.2875570631        6.2453329383  CLST         351          1.0000000000
      1052       351  TIP3  H1           10.7137893859        4.0900454831        5.9727955882  CLST         351          1.0000000000
      1053       351  TIP3  H2           10.1343310781        3.2482512648        5.2688209498  CLST         351          1.0000000000
      1054       352  TIP3  OH2           5.3386224069       -0.4584185144       -8.1587300063  CLST         352          1.0000000000
      1055       352  TIP3  H1            6.0194131432       -0.7575465801       -7.4350968849  CLST         352          1.0000000000
      1056       352  TIP3  H2            5.6247580342        0.4695126944       -7.9498064615  CLST         352          1.0000000000
      1057       353  TIP3  OH2          -1.5708547573        9.6740805097      -12.7385770494  CLST         353          1.0000000000
      1058       353  TIP3  H1           -0.9593920247        9.7334084738      -13.5052524408  CLST         353          1.0000000000
      1059       353  TIP3  H2           -1.6704317601        8.7346472980      -12.7783466514  CLST         353          1.0000000000
      1060       354  TIP3  OH2         -11.8197881014      -11.0132057354      -13.8133017026  CLST         354          1.0000000000
      1061       354  TIP3  H1          -12.1707580549      -10.9821369554      -14.7563672501  CLST         354          1.0000000000
      1062       354  TIP3  H2          -10.9815110391      -11.2806388288      -14.2300992286  CLST         354          1.0000000000
      1063       355  TIP3  OH2           1.7435569379      -13.6405683471       -9.9337726629  CLST         355          1.0000000000
      1064       355  TIP3  H1            1.6517011871      -13.1429592917       -9.1593594814  CLST         355          1.0000000000
      1065       355  TIP3  H2            1.0117193576      -12.7258582563       -9.8982438333  CLST         355          1.0000000000
      1066       356  TIP3  OH2         -12.9983585774       -5.0935077706       -3.0826452993  CLST         356          1.0000000000
      1067       356  TIP3  H1          -13.2604568089       -6.0020353610       -3.3964889954  CLST         356          1.0000000000
      1068       356  TIP3  H2          -13.3531880581       -4.6750086371       -3.9147179337  CLST         356          1.0000000000
      1069       357  TIP3  OH2          -6.6008391437       -9.4746398901        4.7962096894  CLST         357          1.0000000000
      1070       357  TIP3  H1           -5.6246531096       -9.5070414851        4.4607551208  CLST         357          1.0000000000
      1071       357  TIP3  H2           -6.4561378212       -8.5177273233        4.5138189854  CLST         357          1.0000000000
      1072       358  TIP3  OH2          -2.4545203595       -7.6647781812        4.2197752418  CLST         358          1.0000000000
      1073       358  TIP3  H1           -1.4958289177       -7.7248522741        4.0884773279  CLST         358          1.0000000000
      1074       358  TIP3  H2           -2.3879773727       -7.4381408209        5.1890918895  CLST         358          1.0000000000
      1075       359  TIP3  OH2          10.3811645869        9.8655861720       -1.7387398934  CLST         359          1.0000000000
      1076       359  TIP3  H1            9.7713629273       10.5396667564       -0.7641419399  CLST         359          1.0000000000
      1077       359  TIP3  H2           10.6341963779       10.8070627011       -1.6330182723  CLST         359          1.0000000000
      1078       360  TIP3  OH2           7.4427546330       12.7563970307       12.9269985811  CLST         360          1.0000000000
      1079       360  TIP3  H1            8.2283456153       12.9559285858       12.3804839825  CLST         360          1.0000000000
      1080       360  TIP3  H2            6.9110489889       12.9517488279       12.0830227401  CLST         360          1.0000000000
      1081       361  TIP3  OH2          -6.0172973419      -10.8797769221       10.5040114816  CLST         361          1.0000000000
      1082       361  TIP3  H1           -5.9666896961      -11.3660864967        9.6062236318  CLST         361          1.0000000000
      1083       361  TIP3  H2           -6.1378557733      -12.0249126019       10.7100758372  CLST         361          1.0000000000
      1084       362  TIP3  OH2           4.5330825736       -3.5070229959       10.4513454405  CLST         362          1.0000000000
      1085       362  TIP3  H1            4.5920877403       -3.3094945441        9.5311742089  CLST         362          1.0000000000
      1086       362  TIP3  H2            5.4560925700       -3.6853427281       10.6227628469  CLST         362          1.0000000000
      1087       363  TIP3  OH2           4.9279243581       -4.6696210043       13.9334034350  CLST         363          1.0000000000
      1088       363  TIP3  H1            5.0129341054       -4.4448469670       14.7625978182  CLST         363          1.0000000000
      1089       363  TIP3  H2            6.2032458205       -4.4750625945       14.5104727462  CLST         363          1.0000000000
      1090       364  TIP3  OH2          -1.1177458429        4.8961080659       13.3734678554  CLST         364          1.0000000000
      1091       364  TIP3  H1           -0.1324409038        4.6615420445       13.5258098276  CLST         364          1.0000000000
      1092       364  TIP3  H2           -0.8018195874        5.8183517667       13.3196615859  CLST         364          1.0000000000
      1093       365  TIP3  OH2          -7.7226933497        5.0030658199      -11.6128281803  CLST         365          1.0000000000
      1094       365  TIP3  H1           -8.2134202065        5.2537253749      -10.8043934596  CLST         365          1.0000000000
      1095       365  TIP3  H2           -6.9087939126        5.3026003069      -11.2227672542  CLST         365          1.0000000000
      1096       366  TIP3  OH2         -10.0562086611       -2.8271234146        0.7061043033  CLST         366          1.0000000000
      1097       366  TIP3  H1          -10.9755240078       -2.7691149503        0.9969134595  CLST         366          1.0000000000
      1098       366  TIP3  H2          -10.3536318325       -2.7517887654       -0.2125570944  CLST         366          1.0000000000
      1099       367  TIP3  OH2          13.7035708422       10.4443672876       11.7038770060  CLST         367          1.0000000000
      1100       367  TIP3  H1           12.8963937915       11.2544526363       11.4475203186  CLST         367          1.0000000000
      1101       367  TIP3  H2           12.9987903092       10.9164672125       12.4379347335  CLST         367          1.0000000000
      1102       368  TIP3  OH2          -9.7529724122       -1.2975201660       12.9413569773  CLST         368          1.0000000000
      1103       368  TIP3  H1          -10.6182674998       -1.5174082620       12.5753845079  CLST         368          1.0000000000
      1104       368  TIP3  H2           -9.6522714783       -2.3040830359       13.0760840621  CLST         368          1.0000000000
      1105       369  TIP3  OH2           7.7854846098        9.6339306696       -2.5913963238  CLST         369          1.0000000000
      1106       369  TIP3  H1            8.7315501998        9.6699766916       -2.2938593303  CLST         369          1.0000000000
      1107       369  TIP3  H2            7.7800216820        8.7037853198       -2.4598169414  CLST         369          1.0000000000
      1108       370  TIP3  OH2          -6.8721168293      -12.9015806769       -0.9734811240  CLST         370          1.0000000000
      1109       370  TIP3  H1           -6.0065388626      -13.2267150946       -0.7277108226  CLST         370          1.0000000000
      1110       370  TIP3  H2           -7.2179786506      -13.3544553277       -0.2386296249  CLST         370          1.0000000000
      1111       371  TIP3  OH2           8.7736306015       12.3164193534        9.8913481359  CLST         371          1.0000000000
      1112       371  TIP3  H1            8.7832463037       11.9921481515        8.9676859101  CLST         371          1.0000000000
      1113       371  TIP3  H2            7.8201669724       12.2204637613        9.9549301746  CLST         371          1.0000000000
      1114       372  TIP3  OH2          -1.0690026919       11.4733927915       -2.0068478707  CLST         372          1.0000000000
      1115       372  TIP3  H1           -1.8744809745       10.9622405274       -2.0303419765  CLST         372          1.0000000000
      1116       372  TIP3  H2           -0.6191243128       10.8383798307       -1.3872650648  CLST         372          1.0000000000
      1117       373  TIP3  OH2           8.7381509574       -5.5642349318        8.4792645329  CLST         373          1.0000000000
      1118       373  TIP3  H1            8.9389984405       -6.5586448512        8.5284503829  CLST         373          1.0000000000
      1119       373  TIP3  H2            9.6994297040       -5.5006308980        8.4525918866  CLST         373          1.0000000000
      1120       374  TIP3  OH2          11.3707467217       -9.7809291817       -4.4615362038  CLST         374          1.0000000000
      1121       374  TIP3  H1           10.9860916613       -9.7076196211       -3.5802510233  CLST         374          1.0000000000
      1122       374  TIP3  H2           10.9996568840      -10.6672862565       -4.4814503820  CLST         374          1.0000000000
      1123       375  TIP3  OH2           1.3122952390       13.5491806042       -2.8230052977  CLST         375          1.0000000000
      1124       375  TIP3  H1            1.2501583637       14.2328098944       -2.1377250682  CLST         375          1.0000000000
      1125       375  TIP3  H2            0.4476599408       13.8847052793       -3.1493295369  CLST         375          1.0000000000
      1126       376  TIP3  OH2          10.8519748652        4.4348442598       -8.7322112524  CLST         376          1.0000000000
      1127       376  TIP3  H1            9.9962719748        4.8078705624       -8.5238411037  CLST         376          1.0000000000
      1128       376  TIP3  H2           10.8995197844        4.8053169168       -9.7253024612  CLST         376          1.0000000000
      1129       377  TIP3  OH2           7.8990126749       11.0487934461      -11.7529432357  CLST         377          1.0000000000
      1130       377  TIP3  H1            8.4343373074       10.4172574062      -12.3201148426  CLST         377          1.0000000000
      1131       377  TIP3  H2            8.6247922913       10.8884133994      -11.1213605703  CLST         377          1.0000000000
      1132       378  TIP3  OH2           6.6331567088        9.5160504066        7.4101242553  CLST         378          1.0000000000
      1133       378  TIP3  H1            6.8290818571        8.7445502070        7.9538571765  CLST         378          1.0000000000
      1134       378  TIP3  H2            5.7784714710        9.6601313436        7.8162361965  CLST         378          1.0000000000
      1135       379  TIP3  OH2          -6.9019917751      -10.3817911405       -2.3398012015  CLST         379          1.0000000000
      1136       379  TIP3  H1           -6.4784105850      -10.6391665798       -3.1253079899  CLST         379          1.0000000000
      1137       379  TIP3  H2           -6.8551173508      -11.3211335125       -2.0306154081  CLST         379          1.0000000000
      1138       380  TIP3  OH2           7.4574448695       11.4610490776        4.7523760890  CLST         380          1.0000000000
      1139       380  TIP3  H1            6.5489882329       11.7265762235        4.5338423821  CLST         380          1.0000000000
      1140       380  TIP3  H2            7.3504854027       10.8938816033        3.9580400556  CLST         380          1.0000000000
      1141       381  TIP3  OH2          -7.3980967670       -6.7628486119      -10.1159002753  CLST         381          1.0000000000
      1142       381  TIP3  H1           -7.8743474072       -6.3473773014      -10.8131114894  CLST         381          1.0000000000
      1143       381  TIP3  H2           -6.4921171056       -6.5454973441      -10.5100080746  CLST         381          1.0000000000
      1144       382  TIP3  OH2          -3.6367322710        2.5232923062       -1.9926960941  CLST         382          1.0000000000
      1145       382  TIP3  H1           -4.2263330960        2.7517007836       -2.7796673258  CLST         382          1.0000000000
      1146       382  TIP3  H2           -3.9296735125        1.6140290841       -2.1487881364  CLST         382          1.0000000000
      1147       383  TIP3  OH2          -7.4169429103       -9.3480559239        8.5454618288  CLST         383          1.0000000000
      1148       383  TIP3  H1           -6.5405638817       -9.0273575908        8.5509786257  CLST         383          1.0000000000
      1149       383  TIP3  H2           -6.6776711896      -10.1598272168        7.9615358162  CLST         383          1.0000000000
      1150       384  TIP3  OH2         -11.8046771197       -5.2965534057       13.2893915524  CLST         384          1.0000000000
      1151       384  TIP3  H1          -11.7461492863       -6.2273356040       13.6382356545  CLST         384          1.0000000000
      1152       384  TIP3  H2          -12.1330092435       -5.7046581683       12.3957854068  CLST         384          1.0000000000
      1153       385  TIP3  OH2           7.8343590997        0.4928432069        9.0083679647  CLST         385          1.0000000000
      1154       385  TIP3  H1            7.7986609937        1.4130610398        9.4244303640  CLST         385          1.0000000000
      1155       385  TIP3  H2            8.6326013287        0.3219051879        9.8579840545  CLST         385          1.0000000000
      1156       386  TIP3  OH2         -12.5485747328       -8.6655781006        8.3555722513  CLST         386          1.0000000000
      1157       386  TIP3  H1          -12.0430914879       -7.8199486286        8.3769687029  CLST         386          1.0000000000
      1158       386  TIP3  H2          -12.8009576799       -8.5816534482        9.2478165681  CLST         386          1.0000000000
      1159       387  TIP3  OH2          -1.1366377941      -12.8076316884       -1.0331802733  CLST         387          1.0000000000
      1160       387  TIP3  H1           -1.6071161428      -12.6312968761        0.1612623418  CLST         387          1.0000000000
      1161       387  TIP3  H2           -1.5109578251      -12.0405508855       -0.6442379398  CLST         387          1.0000000000
      1162       388  TIP3  OH2           3.4582093546        7.2520943615        7.0423237952  CLST         388          1.0000000000
      1163       388  TIP3  H1            2.9059180115        7.2140203272        6.2741431368  CLST         388          1.0000000000
      1164       388  TIP3  H2            4.1984938651        7.2369297960        6.4405819002  CLST         388          1.0000000000
      1165       389  TIP3  OH2          -3.6368079103      -11.0935085842       -0.2116879202  CLST         389          1.0000000000
      1166       389  TIP3  H1           -4.5795149953      -11.0071276248       -0.3140915673  CLST         389          1.0000000000
      1167       389  TIP3  H2           -3.5172799257      -10.4449862726       -0.9348055985  CLST         389          1.0000000000
      1168       390  TIP3  OH2          -1.0946731672        4.9069258505        4.6435454711  CLST         390          1.0000000000
      1169       390  TIP3  H1           -0.5292398753        4.1481222215        5.3739197229  CLST         390          1.0000000000
      1170       390  TIP3  H2           -0.6386382484        3.7591752196        4.3645915105  CLST         390          1.0000000000
      1171       391  TIP3  OH2          -6.0276712322       -4.7783060389        1.5216754608  CLST         391          1.0000000000
      1172       391  TIP3  H1           -6.0539669601       -3.7545778170        1.5604675767  CLST         391          1.0000000000
      1173       391  TIP3  H2           -6.8636306233       -4.9368876696        1.8569468149  CLST         391          1.0000000000
      1174       392  TIP3  OH2           4.9784923955        9.0796631364       -5.4246878050  CLST         392          1.0000000000
      1175       392  TIP3  H1            5.9795399943        8.8791748160       -5.1199266225  CLST         392          1.0000000000
      1176       392  TIP3  H2            4.6732385873        9.1803631563       -4.5103075462  CLST         392          1.0000000000
      1177       393  TIP3  OH2          13.1212771023       10.8782647462       -7.8452953873  CLST         393          1.0000000000
      1178       393  TIP3  H1           13.1194222355        9.9246770006       -7.8859725382  CLST         393          1.0000000000
      1179       393  TIP3  H2           12.5232321226       10.8813821941       -7.0366890640  CLST         393          1.0000000000
      1180       394  TIP3  OH2           1.1216048882        6.7917181712        5.3540264025  CLST         394          1.0000000000
      1181       394  TIP3  H1            0.4841034397        6.9998674336        4.6023998885  CLST         394          1.0000000000
      1182       394  TIP3  H2            1.4755112791        6.1816486414        4.6935399133  CLST         394          1.0000000000
      1183       395  TIP3  OH2          -6.0675633122        7.4467948888        0.3216855927  CLST         395          1.0000000000
      1184       395  TIP3  H1           -5.4741736635        6.6436780600        0.7609022624  CLST         395          1.0000000000
      1185       395  TIP3  H2           -5.3525193237        7.5631794966        0.6728060917  CLST         395          1.0000000000
      1186       396  TIP3  OH2          -3.6712067896        9.4887962019       -2.4691300289  CLST         396          1.0000000000
      1187       396  TIP3  H1           -3.6495644312        8.5840709397       -2.7646617795  CLST         396          1.0000000000
      1188       396  TIP3  H2           -4.5389771699        9.5945303240       -2.8202563353  CLST         396          1.0000000000
      1189       397  TIP3  OH2           2.5370258363      -12.6767735726      -13.3462324451  CLST         397          1.0000000000
      1190       397  TIP3  H1            1.9812755764      -11.8492422075      -13.4769890281  CLST         397          1.0000000000
      1191       397  TIP3  H2            2.8513720588      -12.2401825301      -12.5978032321  CLST         397          1.0000000000
      1192       398  TIP3  OH2           8.7810425570       -4.4291588455        0.7948775407  CLST         398          1.0000000000
      1193       398  TIP3  H1            8.4214271940       -5.3759924850        0.3361673924  CLST         398          1.0000000000
      1194       398  TIP3  H2            8.1978888971       -4.4486279719       -0.1710102605  CLST         398          1.0000000000
      1195       399  TIP3  OH2         -14.3753502366       -3.0779924566       13.4211803904  CLST         399          1.0000000000
      1196       399  TIP3  H1          -14.9366534315       -3.9118825419       13.3710149836  CLST         399          1.0000000000
      1197       399  TIP3  H2          -13.7420528348       -3.4659273093       13.9296204626  CLST         399          1.0000000000
      1198       400  TIP3  OH2         -13.1819160797        8.6171471735        4.4417212980  CLST         400          1.0000000000
      1199       400  TIP3  H1          -13.4166664792        9.2348570106        5.1355550497  CLST         400          1.0000000000
      1200       400  TIP3  H2          -13.1234866234        7.8712548372        5.0815568195  CLST         400          1.0000000000
      1201       401  TIP3  OH2           1.5195492359        5.4039056411      -13.5941696848  CLST         401          1.0000000000
      1202       401  TIP3  H1            1.3169027088        5.2137604790      -14.5470706028  CLST         401          1.0000000000
      1203       401  TIP3  H2            1.1815048289        6.3414767600      -13.7118076108  CLST         401          1.0000000000
      1204       402  TIP3  OH2          14.4490400853       -4.9984741648       13.9807345587  CLST         402          1.0000000000
      1205       402  TIP3  H1           13.9204850273       -5.9354110190       13.8609456814  CLST         402          1.0000000000
      1206       402  TIP3  H2           14.8267632367       -5.3040942787       14.7683214583  CLST         402          1.0000000000
      1207       403  TIP3  OH2         -13.1855676882       12.2037538280       -2.8153038460  CLST         403          1.0000000000
      1208       403  TIP3  H1          -13.8999452492       11.9896062718       -3.3139662788  CLST         403          1.0000000000
      1209       403  TIP3  H2          -12.7156550311       12.3204820789       -3.9282945350  CLST         403          1.0000000000
      1210       404  TIP3  OH2           5.3620424302       -3.1565581639        0.3766604820  CLST         404          1.0000000000
      1211       404  TIP3  H1            4.6609354318       -2.6207195514        0.7218638492  CLST         404          1.0000000000
      1212       404  TIP3  H2            5.3504214032       -3.6937350386        1.1402583955  CLST         404          1.0000000000
      1213       405  TIP3  OH2           2.4510313648        8.4224091384       -3.2063569527  CLST         405          1.0000000000
      1214       405  TIP3  H1            1.9560588964        9.5111433902       -3.0012672799  CLST         405          1.0000000000
      1215       405  TIP3  H2            1.4476615674        8.2854627818       -3.1559448190  CLST         405          1.0000000000
      1216       406  TIP3  OH2          -9.0073475718       -2.5710138552       -7.4188162344  CLST         406          1.0000000000
      1217       406  TIP3  H1           -8.7774952778       -1.7353311368       -7.0813516073  CLST         406          1.0000000000
      1218       406  TIP3  H2           -9.9120239059       -2.3978495686       -7.1736989975  CLST         406          1.0000000000
      1219       407  TIP3  OH2           5.4012528393        5.5734132665        4.9535039830  CLST         407          1.0000000000
      1220       407  TIP3  H1            6.1704338793        5.2655239812        5.3612699118  CLST         407          1.0000000000
      1221       407  TIP3  H2            5.7906003402        5.6796756036        4.1285164802  CLST         407          1.0000000000
      1222       408  TIP3  OH2         -13.9648688152       -4.4619657467       -5.5524374253  CLST         408          1.0000000000
      1223       408  TIP3  H1          -13.8351859946       -3.4633450553       -5.5265929017  CLST         408          1.0000000000
      1224       408  TIP3  H2          -14.0794509185       -4.5412627318       -6.5068076039  CLST         408          1.0000000000
      1225       409  TIP3  OH2          -2.0143316730      -12.6816253038        1.4547102071  CLST         409          1.0000000000
      1226       409  TIP3  H1           -2.6927292829      -12.9737198631        2.1246508620  CLST         409          1.0000000000
      1227       409  TIP3  H2           -1.5189116097      -12.0682040059        2.1541433280  CLST         409          1.0000000000
      1228       410  TIP3  OH2          12.8935383199       -2.0101666826       10.9938806580  CLST         410          1.0000000000
      1229       410  TIP3  H1           12.3991289951       -1.4267529598       10.4495044588  CLST         410          1.0000000000
      1230       410  TIP3  H2           13.3739912039       -2.5212663949       10.3207025398  CLST         410          1.0000000000
      1231       411  TIP3  OH2           8.5872611073      -13.3434909658       -2.3810139158  CLST         411          1.0000000000
      1232       411  TIP3  H1            8.6855075543      -13.8548174360       -1.5744470509  CLST         411          1.0000000000
      1233       411  TIP3  H2            7.9119550736      -13.7511418797       -2.8186393419  CLST         411          1.0000000000
      1234       412  TIP3  OH2          13.1335976212       -4.2626398124       -7.4773938672  CLST         412          1.0000000000
      1235       412  TIP3  H1           12.5435888839       -4.3387296166       -8.2214396884  CLST         412          1.0000000000
      1236       412  TIP3  H2           12.4632139791       -3.9588467627       -6.7417531203  CLST         412          1.0000000000
      1237       413  TIP3  OH2           7.4003242727        8.5068311455       -5.1903447304  CLST         413          1.0000000000
      1238       413  TIP3  H1            7.2792149932        7.9159152197       -4.3742028497  CLST         413          1.0000000000
      1239       413  TIP3  H2            8.4087376840        8.5165122976       -5.1264732381  CLST         413          1.0000000000
      1240       414  TIP3  OH2          -9.1408046404       -5.1186929956      -11.8024913181  CLST         414          1.0000000000
      1241       414  TIP3  H1           -8.2038646180       -4.3970798107      -12.1665141624  CLST         414          1.0000000000
      1242       414  TIP3  H2           -9.1553308523       -4.3305039308      -11.3312996812  CLST         414          1.0000000000
      1243       415  TIP3  OH2         -14.1357889795        0.8362412747        5.4161147404  CLST         415          1.0000000000
      1244       415  TIP3  H1          -14.6957105426        1.5496179531        5.7950904178  CLST         415          1.0000000000
      1245       415  TIP3  H2          -13.4562821781        1.2918643727        5.9685009676  CLST         415          1.0000000000
      1246       416  TIP3  OH2          11.5196880210       12.3575126968       -2.1569632021  CLST         416          1.0000000000
      1247       416  TIP3  H1           11.8102036797       12.7246313413       -2.8166092567  CLST         416          1.0000000000
      1248       416  TIP3  H2           10.8413627830       12.4883662567       -3.1024006197  CLST         416          1.0000000000
      1249       417  TIP3  OH2          10.6255568101      -12.7122574648       -5.0345105319  CLST         417          1.0000000000
      1250       417  TIP3  H1            9.9887394108      -13.0828988220       -4.4755812024  CLST         417          1.0000000000
      1251       417  TIP3  H2            9.9989632388      -12.6660409502       -5.7579486006  CLST         417          1.0000000000
      1252       418  TIP3  OH2          -1.9334259205        5.3988572920        1.1033329037  CLST         418          1.0000000000
      1253       418  TIP3  H1           -2.4410900517        5.3529340789        0.2899731156  CLST         418          1.0000000000
      1254       418  TIP3  H2           -2.7394626207        5.4570332776        1.5493667164  CLST         418          1.0000000000
      1255       419  TIP3  OH2          -8.2480124509        9.2512346412        7.9642248524  CLST         419          1.0000000000
      1256       419  TIP3  H1           -8.4531985200       10.3789110312        7.6068841772  CLST         419          1.0000000000
      1257       419  TIP3  H2           -9.0206201608       10.0082189867        8.3809684021  CLST         419          1.0000000000
      1258       420  TIP3  OH2           3.3510423880        9.0658812633      -14.2413999183  CLST         420          1.0000000000
      1259       420  TIP3  H1            3.9553786206        8.9881901812      -13.4657496421  CLST         420          1.0000000000
      1260       420  TIP3  H2            3.4265509370        8.1833616387      -14.5924466999  CLST         420          1.0000000000
      1261       421  TIP3  OH2          -3.7598556394        7.0566566489       -3.7768204214  CLST         421          1.0000000000
      1262       421  TIP3  H1           -4.4644185119        6.5689718327       -4.2848007229  CLST         421          1.0000000000
      1263       421  TIP3  H2           -3.9754881434        6.4732663990       -3.0832589264  CLST         421          1.0000000000
      1264       422  TIP3  OH2           3.1307216074      -10.4599164034       -2.3295422769  CLST         422          1.0000000000
      1265       422  TIP3  H1            2.6070011990      -11.1247358744       -1.9115425124  CLST         422          1.0000000000
      1266       422  TIP3  H2            2.8877199851      -10.3787617553       -1.1068677625  CLST         422          1.0000000000
      1267       423  TIP3  OH2          -5.3054213942        5.3409615595        1.5865519904  CLST         423          1.0000000000
      1268       423  TIP3  H1           -4.7553902872        4.3944212235        1.4986351339  CLST         423          1.0000000000
      1269       423  TIP3  H2           -4.4917561605        5.2017097722        2.4235002671  CLST         423          1.0000000000
      1270       424  TIP3  OH2          -9.6691313436        8.5342573174        4.6597529368  CLST         424          1.0000000000
      1271       424  TIP3  H1           -9.3857894164        9.0127590711        3.9480136595  CLST         424          1.0000000000
      1272       424  TIP3  H2          -10.0639106241        7.8556846635        4.0994336080  CLST         424          1.0000000000
      1273       425  TIP3  OH2          -9.7997723088        2.5399895646       -9.1782624630  CLST         425          1.0000000000
      1274       425  TIP3  H1          -10.1770919647        1.6912483708       -9.0894371088  CLST         425          1.0000000000
      1275       425  TIP3  H2          -10.2572899251        2.8594923356       -8.4249480057  CLST         425          1.0000000000
      1276       426  TIP3  OH2          -1.0185954364       -8.8443231569       -4.1693231981  CLST         426          1.0000000000
      1277       426  TIP3  H1           -0.1051911200       -9.2323039706       -4.1332438432  CLST         426          1.0000000000
      1278       426  TIP3  H2           -0.9997205821       -8.8413683949       -5.1644510428  CLST         426          1.0000000000
      1279       427  TIP3  OH2          -9.7624748779        2.0787723464        5.2475687523  CLST         427          1.0000000000
      1280       427  TIP3  H1           -9.6938325373        3.1209180910        5.4372568996  CLST         427          1.0000000000
      1281       427  TIP3  H2          -10.7023412445        1.9570353933        5.4204463773  CLST         427          1.0000000000
      1282       428  TIP3  OH2          -6.5581825839       13.7057543796        6.7761544204  CLST         428          1.0000000000
      1283       428  TIP3  H1           -5.9722770657       14.4379630441        6.4836741351  CLST         428          1.0000000000
      1284       428  TIP3  H2           -6.4477697431       13.1433073876        6.0126436255  CLST         428          1.0000000000
      1285       429  TIP3  OH2           0.1844417667      -11.4570486936      -10.7894319798  CLST         429          1.0000000000
      1286       429  TIP3  H1           -0.2889672546      -12.2547044580      -11.0851761168  CLST         429          1.0000000000
      1287       429  TIP3  H2           -0.4641099520      -11.4762298362      -10.0229568249  CLST         429          1.0000000000
      1288       430  TIP3  OH2           0.5041846861        9.9985290630       10.0465543799  CLST         430          1.0000000000
      1289       430  TIP3  H1            0.2113226220       10.8335731691       10.3760766348  CLST         430          1.0000000000
      1290       430  TIP3  H2            1.0088311685        9.8858063245       10.8461255491  CLST         430          1.0000000000
      1291       431  TIP3  OH2          -6.2441651806       -3.6011863512       -3.9338935314  CLST         431          1.0000000000
      1292       431  TIP3  H1           -6.0975168845       -3.2874462766       -4.8485314122  CLST         431          1.0000000000
      1293       431  TIP3  H2           -6.9484645358       -4.1422989412       -4.9246342488  CLST         431          1.0000000000
      1294       432  TIP3  OH2          -5.1257936127        3.4826460336       -3.6536049319  CLST         432          1.0000000000
      1295       432  TIP3  H1           -6.2934960339        3.1236263953       -3.7815932661  CLST         432          1.0000000000
      1296       432  TIP3  H2           -5.8846394266        4.1368729071       -3.4028753784  CLST         432          1.0000000000
      1297       433  TIP3  OH2          -8.8288193057        3.1993944622       10.1416122654  CLST         433          1.0000000000
      1298       433  TIP3  H1           -8.1867724869        3.9032976192       10.0241040189  CLST         433          1.0000000000
      1299       433  TIP3  H2           -9.1421942418        3.6894245907       10.9424150884  CLST         433          1.0000000000
      1300       434  TIP3  OH2           1.0904724369       -4.1014476877        9.6965965216  CLST         434          1.0000000000
      1301       434  TIP3  H1            0.1811212678       -3.9971182250       10.0675934434  CLST         434          1.0000000000
      1302       434  TIP3  H2            1.2998483563       -3.1285519222        9.7110068692  CLST         434          1.0000000000
      1303       435  TIP3  OH2           7.4677070175       -8.4012929446        6.4355362279  CLST         435          1.0000000000
      1304       435  TIP3  H1            7.9026432066       -8.4022292421        5.5455021335  CLST         435          1.0000000000
      1305       435  TIP3  H2            6.9382330817       -7.6842361632        6.0510349113  CLST         435          1.0000000000
      1306       436  TIP3  OH2          -6.7772182657       13.9309247836       -2.0724363749  CLST         436          1.0000000000
      1307       436  TIP3  H1           -6.6743976474       14.8003692161       -2.4704599228  CLST         436          1.0000000000
      1308       436  TIP3  H2           -7.0354389365       14.1769455366       -1.2132513703  CLST         436          1.0000000000
      1309       437  TIP3  OH2          -0.9605974701      -13.2120134680        5.2419480703  CLST         437          1.0000000000
      1310       437  TIP3  H1           -1.6278354813      -12.5388626918        5.4319336374  CLST         437          1.0000000000
      1311       437  TIP3  H2           -0.3282850755      -12.4781877265        5.4585560207  CLST         437          1.0000000000
      1312       438  TIP3  OH2         -12.2029810665       -1.0301261041       -3.2443175186  CLST         438          1.0000000000
      1313       438  TIP3  H1          -11.9026647546       -1.6882631654       -2.5826133380  CLST         438          1.0000000000
      1314       438  TIP3  H2          -12.6936730392       -0.4800434660       -2.6699537658  CLST         438          1.0000000000
      1315       439  TIP3  OH2          -3.8510994480       -3.7787041189        3.4663467300  CLST         439          1.0000000000
      1316       439  TIP3  H1           -4.7770290033       -3.3780673536        3.9218922272  CLST         439          1.0000000000
      1317       439  TIP3  H2           -4.6485067004       -4.3581191254        3.5755891190  CLST         439          1.0000000000
      1318       440  TIP3  OH2         -10.0025215756      -11.4747923754       12.0784528514  CLST         440          1.0000000000
      1319       440  TIP3  H1          -10.2663352431      -11.1568384773       11.1609660079  CLST         440          1.0000000000
      1320       440  TIP3  H2           -9.1227210623      -11.4331030809       11.6777860554  CLST         440          1.0000000000
      1321       441  TIP3  OH2         -14.0530402799        3.6635004905        7.1846022785  CLST         441          1.0000000000
      1322       441  TIP3  H1          -14.4522610306        4.6175750448        7.6061135889  CLST         441          1.0000000000
      1323       441  TIP3  H2          -14.9336385647        4.1287769759        6.6623557533  CLST         441          1.0000000000
      1324       442  TIP3  OH2           9.2322920677        0.6975074050      -12.2720780001  CLST         442          1.0000000000
      1325       442  TIP3  H1            9.3212832469       -0.2923846482      -12.0079986450  CLST         442          1.0000000000
      1326       442  TIP3  H2           10.1928985539        0.6373154738      -12.2872551281  CLST         442          1.0000000000
      1327       443  TIP3  OH2           8.0102726001       -8.3137145570        3.5911367361  CLST         443          1.0000000000
      1328       443  TIP3  H1            8.6936261949       -8.0006640497        2.8793405515  CLST         443          1.0000000000
      1329       443  TIP3  H2            7.6491697145       -7.5202473478        2.8007300778  CLST         443          1.0000000000
      1330       444  TIP3  OH2          12.8908180052        8.1767208479       -0.3107394333  CLST         444          1.0000000000
      1331       444  TIP3  H1           13.2477620224        9.0935595687       -0.1276937399  CLST         444          1.0000000000
      1332       444  TIP3  H2           13.8047152223        7.9479408779        0.0475672814  CLST         444          1.0000000000
      1333       445  TIP3  OH2          -8.8557709182       -9.6793234357       14.2916480858  CLST         445          1.0000000000
      1334       445  TIP3  H1           -8.5645426960       -9.1831488949       13.4868016378  CLST         445          1.0000000000
      1335       445  TIP3  H2           -8.5307714075       -8.9163837408       14.7962042310  CLST         445          1.0000000000
      1336       446  TIP3  OH2          12.7498936247       10.9830002195        0.0309117772  CLST         446          1.0000000000
      1337       446  TIP3  H1           12.2714763870       11.3313176975        0.7957275334  CLST         446          1.0000000000
      1338       446  TIP3  H2           12.4160978708       11.7124748524       -0.5206383562  CLST         446          1.0000000000
      1339       447  TIP3  OH2          -3.5723797433       13.3948478450        4.9373581078  CLST         447          1.0000000000
      1340       447  TIP3  H1           -3.8198899014       14.0738562996        5.5301901589  CLST         447          1.0000000000
      1341       447  TIP3  H2           -4.4383604867       13.0231595174        4.7799557374  CLST         447          1.0000000000
      1342       448  TIP3  OH2         -10.6655451414        9.3515760757      -13.0282206976  CLST         448          1.0000000000
      1343       448  TIP3  H1          -10.1815978270        9.4574059920      -12.1804705809  CLST         448          1.0000000000
      1344       448  TIP3  H2          -10.0265741245        8.6223705408      -13.0982331191  CLST         448          1.0000000000
      1345       449  TIP3  OH2           5.2833886959       -7.8823166831       -5.6931172411  CLST         449          1.0000000000
      1346       449  TIP3  H1            5.3338316233       -8.8234900111       -5.1288197810  CLST         449          1.0000000000
      1347       449  TIP3  H2            4.9478064848       -8.1153069032       -4.6771379210  CLST         449          1.0000000000
      1348       450  TIP3  OH2           4.8061148442       10.2189777210       11.6385488896  CLST         450          1.0000000000
      1349       450  TIP3  H1            5.7037037032        9.8628229146       11.4568909817  CLST         450          1.0000000000
      1350       450  TIP3  H2            4.4547741170        9.9989338244       10.7168655104  CLST         450          1.0000000000
      1351       451  TIP3  OH2         -12.6311647590       11.1598142838      -12.5344515530  CLST         451          1.0000000000
      1352       451  TIP3  H1          -12.9728880458       11.3824134736      -13.3787433130  CLST         451          1.0000000000
      1353       451  TIP3  H2          -12.0684586856       10.4218946002      -12.8232241779  CLST         451          1.0000000000
      1354       452  TIP3  OH2         -10.0072363357       14.3293468576        1.6662089854  CLST         452          1.0000000000
      1355       452  TIP3  H1          -10.9508028565       13.8702179726        2.0220250450  CLST         452          1.0000000000
      1356       452  TIP3  H2          -10.7071066687       14.5233023365        1.2427196158  CLST         452          1.0000000000
      1357       453  TIP3  OH2          -3.1479857791       -8.6245207026      -13.6627557410  CLST         453          1.0000000000
      1358       453  TIP3  H1           -3.9927317767       -8.9452169148      -13.2862516752  CLST         453          1.0000000000
      1359       453  TIP3  H2           -3.2563324673       -9.1149159642      -14.5446009645  CLST         453          1.0000000000
      1360       454  TIP3  OH2          13.5406692520      -13.3351154964       11.2186678557  CLST         454          1.0000000000
      1361       454  TIP3  H1           14.4086300812      -13.4913332371       11.5194994475  CLST         454          1.0000000000
      1362       454  TIP3  H2           13.4369968716      -12.6482947666       11.8685788928  CLST         454          1.0000000000
      1363       455  TIP3  OH2         -13.4219693617       -9.7515465188       -4.3948349128  CLST         455          1.0000000000
      1364       455  TIP3  H1          -13.6536536632       -8.8298450718       -4.3722527285  CLST         455          1.0000000000
      1365       455  TIP3  H2          -12.6259708793       -9.5380611716       -3.9118083180  CLST         455          1.0000000000
      1366       456  TIP3  OH2          -8.0140211487        7.2290533006        6.5374052018  CLST         456          1.0000000000
      1367       456  TIP3  H1           -8.0713918353        8.0319159883        7.2147378385  CLST         456          1.0000000000
      1368       456  TIP3  H2           -8.5807107832        7.7887910672        5.9875063362  CLST         456          1.0000000000
      1369       457  TIP3  OH2          -3.8414405407      -12.8501604478        8.3353540992  CLST         457          1.0000000000
      1370       457  TIP3  H1           -3.9777680919      -13.1771641417        9.1988924636  CLST         457          1.0000000000
      1371       457  TIP3  H2           -2.9647118921      -13.4098733308        8.3094835824  CLST         457          1.0000000000
      1372       458  TIP3  OH2          -2.3191469417       12.1827630205      -11.3883086834  CLST         458          1.0000000000
      1373       458  TIP3  H1           -3.2291635500       12.4831184442      -11.3622436043  CLST         458          1.0000000000
      1374       458  TIP3  H2           -2.5776543413       11.4465263311      -11.9089363841  CLST         458          1.0000000000
      1375       459  TIP3  OH2         -13.4664101404        7.2317496513       -3.8369124493  CLST         459          1.0000000000
      1376       459  TIP3  H1          -13.4859678048        7.6695571269       -2.9365772363  CLST         459          1.0000000000
      1377       459  TIP3  H2          -13.1749713909        8.3299878104       -4.2217419388  CLST         459          1.0000000000
      1378       460  TIP3  OH2           7.2264007651        9.5892080184      -13.8271649985  CLST         460          1.0000000000
      1379       460  TIP3  H1            6.2584583568        9.7173758229      -13.0381637152  CLST         460          1.0000000000
      1380       460  TIP3  H2            6.5404718868       10.2511259314      -13.9279256214  CLST         460          1.0000000000
      1381       461  TIP3  OH2           0.4835525548        7.6007179185      -12.7060025622  CLST         461          1.0000000000
      1382       461  TIP3  H1           -0.4147644449        7.3457982675      -12.4725646329  CLST         461          1.0000000000
      1383       461  TIP3  H2            0.6327128453        8.2163660906      -11.9522121384  CLST         461          1.0000000000
      1384       462  TIP3  OH2           4.4617412434        7.9162995671      -10.1890499741  CLST         462          1.0000000000
      1385       462  TIP3  H1            3.9076145415        7.1652391144      -10.4548945605  CLST         462          1.0000000000
      1386       462  TIP3  H2            4.2441720913        7.8625354128       -9.2902899863  CLST         462          1.0000000000
      1387       463  TIP3  OH2          -1.1766304115      -11.6189055892       -8.2527277055  CLST         463          1.0000000000
      1388       463  TIP3  H1           -2.0533343906      -11.9699158943       -8.5993334387  CLST         463          1.0000000000
      1389       463  TIP3  H2           -1.5569289280      -11.6354609613       -7.3266376096  CLST         463          1.0000000000
      1390       464  TIP3  OH2          -2.0438431694        2.6277757789       14.4435276141  CLST         464          1.0000000000
      1391       464  TIP3  H1           -2.8129676675        2.9104784591       13.9445510636  CLST         464          1.0000000000
      1392       464  TIP3  H2           -1.6230850161        3.4227639260       14.0041683225  CLST         464          1.0000000000
      1393       465  TIP3  OH2         -14.5247990385        6.1401181209        8.0833925393  CLST         465          1.0000000000
      1394       465  TIP3  H1          -14.4871214859        6.0233899820        9.0256395392  CLST         465          1.0000000000
      1395       465  TIP3  H2          -14.5474437261        7.1189722508        8.1120906494  CLST         465          1.0000000000
      1396       466  TIP3  OH2          -4.0323617315      -13.3870649519        2.9636096339  CLST         466          1.0000000000
      1397       466  TIP3  H1           -4.5313623649      -14.0899581344        3.2434477626  CLST         466          1.0000000000
      1398       466  TIP3  H2           -4.9459650537      -12.8724877756        2.7656352987  CLST         466          1.0000000000
      1399       467  TIP3  OH2           4.4342163851       14.6121441624        8.1153324005  CLST         467          1.0000000000
      1400       467  TIP3  H1            5.2183162082       14.2572335948        8.5376098446  CLST         467          1.0000000000
      1401       467  TIP3  H2            3.9504752065       14.6484441882        8.9282507960  CLST         467          1.0000000000
      1402       468  TIP3  OH2          -8.4985131774       -0.9142577473        1.8222748245  CLST         468          1.0000000000
      1403       468  TIP3  H1           -9.0394301896       -0.8934132873        2.6319712140  CLST         468          1.0000000000
      1404       468  TIP3  H2           -9.0795266799       -1.6311234706        1.5630785083  CLST         468          1.0000000000
      1405       469  TIP3  OH2           7.0628586228        0.9068451711       14.6611712794  CLST         469          1.0000000000
      1406       469  TIP3  H1            6.3076712790        0.7167519815       14.1210232987  CLST         469          1.0000000000
      1407       469  TIP3  H2            7.0490775590        1.7918787190       14.3735731821  CLST         469          1.0000000000
      1408       470  TIP3  OH2           1.1278366658       11.5027667741       -8.7397006595  CLST         470          1.0000000000
      1409       470  TIP3  H1            1.4133351721       12.3632285084       -8.6312866712  CLST         470          1.0000000000
      1410       470  TIP3  H2            1.8771354784       11.0669189426       -8.3805452533  CLST         470          1.0000000000
      1411       471  TIP3  OH2           5.2704440964        5.5519132610       -2.1289481368  CLST         471          1.0000000000
      1412       471  TIP3  H1            4.4353261638        5.7466541728       -2.6288537781  CLST         471          1.0000000000
      1413       471  TIP3  H2            4.5735951233        5.7713959234       -1.2677865268  CLST         471          1.0000000000
      1414       472  TIP3  OH2           5.3909417024      -12.3071700264       -6.9830623380  CLST         472          1.0000000000
      1415       472  TIP3  H1            5.1284142074      -12.9539069198       -7.6528942700  CLST         472          1.0000000000
      1416       472  TIP3  H2            5.5106318791      -13.0097970643       -6.3993522266  CLST         472          1.0000000000
      1417       473  TIP3  OH2          -3.9275567168        2.8625913743        1.2294580350  CLST         473          1.0000000000
      1418       473  TIP3  H1           -3.0143866254        2.4104211517        0.7278283166  CLST         473          1.0000000000
      1419       473  TIP3  H2           -3.8313249495        2.1231622253        0.3960845287  CLST         473          1.0000000000
      1420       474  TIP3  OH2           8.2260775502        4.5456138300        7.5599362456  CLST         474          1.0000000000
      1421       474  TIP3  H1            7.9860371698        3.9550207111        6.7436711596  CLST         474          1.0000000000
      1422       474  TIP3  H2            8.9974890440        3.7283993560        7.0674796930  CLST         474          1.0000000000
      1423       475  TIP3  OH2           6.0013424648       -3.8983210384       -7.8810368235  CLST         475          1.0000000000
      1424       475  TIP3  H1            5.8525936175       -3.2557460710       -8.5654218669  CLST         475          1.0000000000
      1425       475  TIP3  H2            6.5728874921       -4.3095619411       -8.5742240951  CLST         475          1.0000000000
      1426       476  TIP3  OH2           3.3194516643       10.1518716389       -8.0709017650  CLST         476          1.0000000000
      1427       476  TIP3  H1            3.4616035906        9.2222867688       -8.1191489199  CLST         476          1.0000000000
      1428       476  TIP3  H2            3.1585096855       10.1929235886       -7.1204951233  CLST         476          1.0000000000
      1429       477  TIP3  OH2          -7.2546262268       -3.4612028732       -9.8640530233  CLST         477          1.0000000000
      1430       477  TIP3  H1           -6.4173047627       -3.2033117201      -10.3128877596  CLST         477          1.0000000000
      1431       477  TIP3  H2           -6.7361566194       -3.4719392467       -9.0513010453  CLST         477          1.0000000000
      1432       478  TIP3  OH2           0.7531430173       -4.9949882707      -12.5721486343  CLST         478          1.0000000000
      1433       478  TIP3  H1            1.2075430850       -6.0113336666      -12.2685475364  CLST         478          1.0000000000
      1434       478  TIP3  H2            1.5008504406       -5.0447335809      -12.1558801202  CLST         478          1.0000000000
      1435       479  TIP3  OH2           0.2796448578       -1.5624478161       -7.3671637607  CLST         479          1.0000000000
      1436       479  TIP3  H1            0.4189283075       -1.5624735352       -6.3849172514  CLST         479          1.0000000000
      1437       479  TIP3  H2            1.2130081811       -1.3835310731       -7.5404434081  CLST         479          1.0000000000
      1438       480  TIP3  OH2           5.5962364978       -0.9468840815        9.1093769670  CLST         480          1.0000000000
      1439       480  TIP3  H1            6.2078488431       -1.6404756309        9.1219593510  CLST         480          1.0000000000
      1440       480  TIP3  H2            6.3808744476       -0.3446330893        8.9477299412  CLST         480          1.0000000000
      1441       481  TIP3  OH2          -6.8107207843        2.2346630644       -5.8168303509  CLST         481          1.0000000000
      1442       481  TIP3  H1           -7.1378967158        3.1361711734       -6.5140996049  CLST         481          1.0000000000
      1443       481  TIP3  H2           -6.1184978431        2.9068200728       -6.0662640592  CLST         481          1.0000000000
      1444       482  TIP3  OH2           3.5799579459       -7.8689105639        4.3485253642  CLST         482          1.0000000000
      1445       482  TIP3  H1            4.0696274186       -7.2736197814        4.9045510481  CLST         482          1.0000000000
      1446       482  TIP3  H2            3.0510976083       -7.1147376948        4.1163593334  CLST         482          1.0000000000
      1447       483  TIP3  OH2         -14.8665334332        0.3874010630       -8.1975102087  CLST         483          1.0000000000
      1448       483  TIP3  H1          -14.6725841122       -0.4122530768       -8.6260528503  CLST         483          1.0000000000
      1449       483  TIP3  H2          -14.0812306958        0.6618845300       -7.7100735653  CLST         483          1.0000000000
      1450       484  TIP3  OH2          14.8414840180       -2.3196992708       -8.8613321066  CLST         484          1.0000000000
      1451       484  TIP3  H1           14.3717363689       -2.9768216364       -8.3062013572  CLST         484          1.0000000000
      1452       484  TIP3  H2           13.9766004781       -2.0783999288       -9.3045382014  CLST         484          1.0000000000
      1453       485  TIP3  OH2          -3.5779444918        5.4494623606        3.6572447539  CLST         485          1.0000000000
      1454       485  TIP3  H1           -2.6761921339        5.3174280869        4.0226662263  CLST         485          1.0000000000
      1455       485  TIP3  H2           -3.8738219222        5.7241225512        4.5723090506  CLST         485          1.0000000000
      1456       486  TIP3  OH2          11.1965767760       12.9784777619       -9.0807434082  CLST         486          1.0000000000
      1457       486  TIP3  H1           11.7587490029       12.3427896524       -8.6892884643  CLST         486          1.0000000000
      1458       486  TIP3  H2           11.6937756862       12.8109320967       -9.9387330508  CLST         486          1.0000000000
      1459       487  TIP3  OH2           2.2826612473       -5.8196484335        3.5169690009  CLST         487          1.0000000000
      1460       487  TIP3  H1            2.5110071939       -4.9262949056        3.7904731346  CLST         487          1.0000000000
      1461       487  TIP3  H2            2.0344301143       -5.5709985999        2.6365851590  CLST         487          1.0000000000
      1462       488  TIP3  OH2         -11.4651514886       -0.7449603988       10.9778361723  CLST         488          1.0000000000
      1463       488  TIP3  H1          -11.7195678291        0.2077990094       10.7222914356  CLST         488          1.0000000000
      1464       488  TIP3  H2          -10.7191985983        0.0850600053       10.5355430473  CLST         488          1.0000000000
      1465       489  TIP3  OH2          -8.5184752487        8.1494988444       -4.6236076600  CLST         489          1.0000000000
      1466       489  TIP3  H1           -8.6041046234        8.7364237827       -3.8598680205  CLST         489          1.0000000000
      1467       489  TIP3  H2           -7.7600662061        7.8176323343       -4.2217902238  CLST         489          1.0000000000
      1468       490  TIP3  OH2         -11.2355665300       11.1188560214        5.1289216845  CLST         490          1.0000000000
      1469       490  TIP3  H1          -11.3278121804       10.1904504313        5.2222807726  CLST         490          1.0000000000
      1470       490  TIP3  H2          -10.4749217624       11.0698124031        4.5493329570  CLST         490          1.0000000000
      1471       491  TIP3  OH2          -0.8929763786      -10.0616073171       10.9283759245  CLST         491          1.0000000000
      1472       491  TIP3  H1           -0.0292791562      -10.0838332842       10.5624090513  CLST         491          1.0000000000
      1473       491  TIP3  H2           -0.6143006132       -9.2166552915       11.3291697686  CLST         491          1.0000000000
      1474       492  TIP3  OH2          -2.1349086757       10.2055471191        2.6369059783  CLST         492          1.0000000000
      1475       492  TIP3  H1           -1.5772630467       10.9285641326        2.4518590346  CLST         492          1.0000000000
      1476       492  TIP3  H2           -2.6647833341       10.3853894142        1.7888721756  CLST         492          1.0000000000
      1477       493  TIP3  OH2          -6.0782343417       10.4517345929       -2.7215355381  CLST         493          1.0000000000
      1478       493  TIP3  H1           -6.4911475332       10.9498614070       -3.4774283611  CLST         493          1.0000000000
      1479       493  TIP3  H2           -6.7830765721        9.8448573747       -2.7190034305  CLST         493          1.0000000000
      1480       494  TIP3  OH2         -13.7001692801       10.7683961083       12.3392789530  CLST         494          1.0000000000
      1481       494  TIP3  H1          -14.3618833196       10.8081940865       11.6895440489  CLST         494          1.0000000000
      1482       494  TIP3  H2          -12.9952201228       11.4472446820       11.9878306184  CLST         494          1.0000000000
      1483       495  TIP3  OH2           3.1643661677      -12.9262232250       13.8271092926  CLST         495          1.0000000000
      1484       495  TIP3  H1            3.1753611892      -12.6957977731       14.7550147362  CLST         495          1.0000000000
      1485       495  TIP3  H2            3.2517632615      -11.9834851105       13.6294563402  CLST         495          1.0000000000
      1486       496  TIP3  OH2         -14.8282763653        6.4844919111        0.2717299828  CLST         496          1.0000000000
      1487       496  TIP3  H1          -14.4139936335        6.4368517771        1.1649060485  CLST         496          1.0000000000
      1488       496  TIP3  H2          -14.8734392744        5.5907142278        0.0506931931  CLST         496          1.0000000000
      1489       497  TIP3  OH2         -13.4567098664       -8.5911704244        3.2558481490  CLST         497          1.0000000000
      1490       497  TIP3  H1          -14.2436070569       -8.1053912820        3.4694706404  CLST         497          1.0000000000
      1491       497  TIP3  H2          -13.7333721536       -9.2720679256        3.8877866901  CLST         497          1.0000000000
      1492       498  TIP3  OH2           4.3116040176       13.9618277654      -10.7619099056  CLST         498          1.0000000000
      1493       498  TIP3  H1            4.6070276661       13.9482645816      -11.7093190710  CLST         498          1.0000000000
      1494       498  TIP3  H2            5.0327417340       13.3824347531      -10.4127945537  CLST         498          1.0000000000
      1495       499  TIP3  OH2           1.5792581325       10.8668108339       -2.9013596114  CLST         499          1.0000000000
      1496       499  TIP3  H1            0.6410035507       11.4258908485       -2.4793813084  CLST         499          1.0000000000
      1497       499  TIP3  H2            1.3749211529       12.0084449040       -2.9447887461  CLST         499          1.0000000000
      1498       500  TIP3  OH2          -6.1687023520       -2.5260859694        4.3415528406  CLST         500          1.0000000000
      1499       500  TIP3  H1           -7.0922701494       -2.2775976494        4.2991126953  CLST         500          1.0000000000
      1500       500  TIP3  H2           -5.9143399715       -1.7279148532        3.8438006248  CLST         500          1.0000000000
      1501       501  TIP3  OH2         -12.4531653937      -13.2699200110       -6.1241147266  CLST         501          1.0000000000
      1502       501  TIP3  H1          -13.0981440276      -12.6079417815       -6.2585300413  CLST         501          1.0000000000
      1503       501  TIP3  H2          -11.7024600205      -12.6241086334       -6.4217295175  CLST         501          1.0000000000
      1504       502  TIP3  OH2          -1.5425076593       -3.7676912616      -11.4623689259  CLST         502          1.0000000000
      1505       502  TIP3  H1           -1.0410341958       -2.9714663929      -11.5015401376  CLST         502          1.0000000000
      1506       502  TIP3  H2           -0.9092559230       -4.1806970438      -12.0221006676  CLST         502          1.0000000000
      1507       503  TIP3  OH2          -0.3016020177       -4.9528029166        1.1742252232  CLST         503          1.0000000000
      1508       503  TIP3  H1            0.5041079698       -5.0260859346        0.6226895143  CLST         503          1.0000000000
      1509       503  TIP3  H2           -0.8175386124       -5.6980745694        0.8301677187  CLST         503          1.0000000000
      1510       504  TIP3  OH2          -4.2687508428       -3.6599778216       12.5458856944  CLST         504          1.0000000000
      1511       504  TIP3  H1           -4.5117336875       -4.5201870181       12.9000072223  CLST         504          1.0000000000
      1512       504  TIP3  H2           -4.2021768089       -3.2066778824       13.3769901183  CLST         504          1.0000000000
      1513       505  TIP3  OH2           5.6461175902       12.0807755028       -9.4167958399  CLST         505          1.0000000000
      1514       505  TIP3  H1            5.7393005435       11.9127355996       -8.4865354209  CLST         505          1.0000000000
      1515       505  TIP3  H2            6.5638356332       12.5435099979       -9.4130654848  CLST         505          1.0000000000
      1516       506  TIP3  OH2          -4.0107375277        3.6856680540       10.3465343688  CLST         506          1.0000000000
      1517       506  TIP3  H1           -4.8876307024        3.7147957417        9.8577165681  CLST         506          1.0000000000
      1518       506  TIP3  H2           -4.1084782636        2.8002927463       10.7190533452  CLST         506          1.0000000000
      1519       507  TIP3  OH2          -2.0088967953        6.7977197462      -12.5999168131  CLST         507          1.0000000000
      1520       507  TIP3  H1           -2.1373249897        5.9235537182      -12.2021516973  CLST         507          1.0000000000
      1521       507  TIP3  H2           -2.9397700870        6.9191790838      -12.6425784001  CLST         507          1.0000000000
      1522       508  TIP3  OH2         -11.2526276839        5.0349558221      -11.5614020295  CLST         508          1.0000000000
      1523       508  TIP3  H1          -12.1685898678        5.0715382211      -11.3948299758  CLST         508          1.0000000000
      1524       508  TIP3  H2          -11.9427246037        4.1052658054      -11.7072060093  CLST         508          1.0000000000
      1525       509  TIP3  OH2           5.0111446206        0.4966591474      -11.0111851361  CLST         509          1.0000000000
      1526       509  TIP3  H1            5.7764451570        0.5216866490      -10.4902946268  CLST         509          1.0000000000
      1527       509  TIP3  H2            5.5913551786        0.4347546425      -11.8770186905  CLST         509          1.0000000000
      1528       510  TIP3  OH2          -4.3460875492        0.1277612682       -3.8311743886  CLST         510          1.0000000000
      1529       510  TIP3  H1           -4.8055475206       -0.2253849992       -4.6506035451  CLST         510          1.0000000000
      1530       510  TIP3  H2           -3.5581326638        0.6230783266       -4.1008088404  CLST         510          1.0000000000
      1531       511  TIP3  OH2         -10.6296096495        1.7185047341       -0.9421704067  CLST         511          1.0000000000
      1532       511  TIP3  H1          -11.1950774895        2.2830734477       -0.3412958948  CLST         511          1.0000000000
      1533       511  TIP3  H2          -11.1466780862        0.9504470734       -0.6403143183  CLST         511          1.0000000000
      1534       512  TIP3  OH2          -3.3555627807       -8.2972177619       -8.5619964723  CLST         512          1.0000000000
      1535       512  TIP3  H1           -2.9253219924       -8.9876460793       -9.0511646438  CLST         512          1.0000000000
      1536       512  TIP3  H2           -3.1735124995       -7.5908638377       -9.1941185586  CLST         512          1.0000000000
      1537       513  TIP3  OH2           9.4282087293       14.0170627386       11.3388535172  CLST         513          1.0000000000
      1538       513  TIP3  H1            9.0416487411       14.6283920609       10.7036950291  CLST         513          1.0000000000
      1539       513  TIP3  H2            9.2907735801       13.2444361383       10.6240944170  CLST         513          1.0000000000
      1540       514  TIP3  OH2          -4.9596101708        7.7573901933      -12.9851039376  CLST         514          1.0000000000
      1541       514  TIP3  H1           -5.7716699376        7.8068168552      -13.3753354432  CLST         514          1.0000000000
      1542       514  TIP3  H2           -5.7999530878        8.0442400133      -12.0729058551  CLST         514          1.0000000000
      1543       515  TIP3  OH2           5.9379639775        5.8598765185       -5.9492577684  CLST         515          1.0000000000
      1544       515  TIP3  H1            5.3224293075        5.9254097921       -5.1694158398  CLST         515          1.0000000000
      1545       515  TIP3  H2            6.6233184063        6.4382968912       -5.6189391245  CLST         515          1.0000000000
      1546       516  TIP3  OH2           9.3539595849        0.3349950086       -8.1020369263  CLST         516          1.0000000000
      1547       516  TIP3  H1           10.2908286280        0.4989618303       -8.1303657986  CLST         516          1.0000000000
      1548       516  TIP3  H2            9.1712183825        1.2641336991       -7.7761721478  CLST         516          1.0000000000
      1549       517  TIP3  OH2          13.9382379654       -7.0829876577       -9.1204616597  CLST         517          1.0000000000
      1550       517  TIP3  H1           14.4569628794       -6.5565960583       -8.5290007603  CLST         517          1.0000000000
      1551       517  TIP3  H2           14.5963056212       -7.7984592810       -9.1011975069  CLST         517          1.0000000000
      1552       518  TIP3  OH2          -0.8088197583       12.2862008348       -5.8868750273  CLST         518          1.0000000000
      1553       518  TIP3  H1            0.1398949002       12.2952588824       -5.8220346501  CLST         518          1.0000000000
      1554       518  TIP3  H2           -0.7424820510       12.7353300823       -4.9891947085  CLST         518          1.0000000000
      1555       519  TIP3  OH2           0.8107245347        5.0551882474        1.1348602395  CLST         519          1.0000000000
      1556       519  TIP3  H1            0.3363711735        4.3623701601        0.6519203429  CLST         519          1.0000000000
      1557       519  TIP3  H2           -0.0864237748        5.3837924251        1.3153178464  CLST         519          1.0000000000
      1558       520  TIP3  OH2           6.8942907146        6.7343333145      -10.4614364543  CLST         520          1.0000000000
      1559       520  TIP3  H1            5.8853694110        7.0599438530      -10.3488385804  CLST         520          1.0000000000
      1560       520  TIP3  H2            6.9018088007        7.7218634722       -9.7479022229  CLST         520          1.0000000000
      1561       521  TIP3  OH2          -5.6743393894       10.0844227973        9.6250956849  CLST         521          1.0000000000
      1562       521  TIP3  H1           -4.5526000158       10.1903943136        9.8087168673  CLST         521          1.0000000000
      1563       521  TIP3  H2           -5.0974800745       10.2470233697        8.9882090956  CLST         521          1.0000000000
      1564       522  TIP3  OH2           3.0427377178        4.0667409985        2.3486894325  CLST         522          1.0000000000
      1565       522  TIP3  H1            2.4617770665        4.1244352014        1.7385060721  CLST         522          1.0000000000
      1566       522  TIP3  H2            3.0629855644        3.6074505447        1.2467126880  CLST         522          1.0000000000
      1567       523  TIP3  OH2           8.4382678764        0.6454640403       -3.4160936585  CLST         523          1.0000000000
      1568       523  TIP3  H1            7.4935436266        0.6554999905       -3.6779102518  CLST         523          1.0000000000
      1569       523  TIP3  H2            8.5087361840       -0.2452026632       -3.7565674437  CLST         523          1.0000000000
      1570       524  TIP3  OH2          -5.3112259474        5.6044526196      -10.6696347759  CLST         524          1.0000000000
      1571       524  TIP3  H1           -4.9914464968        6.5143698012      -10.8338962450  CLST         524          1.0000000000
      1572       524  TIP3  H2           -4.5336681493        5.1317533367      -10.9431906267  CLST         524          1.0000000000
      1573       525  TIP3  OH2          -5.7648371271        5.7695761594       -8.0564437553  CLST         525          1.0000000000
      1574       525  TIP3  H1           -5.2175483863        6.6543253956       -8.1974846528  CLST         525          1.0000000000
      1575       525  TIP3  H2           -5.3974086678        5.5700838899       -8.9655272571  CLST         525          1.0000000000
      1576       526  TIP3  OH2           9.3061541881      -11.0894973655      -12.8083572951  CLST         526          1.0000000000
      1577       526  TIP3  H1            9.6324182520      -11.2440974088      -13.7023530584  CLST         526          1.0000000000
      1578       526  TIP3  H2            8.5668245844      -10.5575062720      -13.6034531742  CLST         526          1.0000000000
      1579       527  TIP3  OH2         -11.5416437428       -3.1397949922       -1.7138447953  CLST         527          1.0000000000
      1580       527  TIP3  H1          -12.1771547209       -3.8497304520       -2.0170111981  CLST         527          1.0000000000
      1581       527  TIP3  H2          -10.7242611137       -3.6120537022       -1.9647719118  CLST         527          1.0000000000
      1582       528  TIP3  OH2           4.5898176735      -11.9368684568      -11.1501143408  CLST         528          1.0000000000
      1583       528  TIP3  H1            4.2787083415      -10.8908934758      -11.0262683775  CLST         528          1.0000000000
      1584       528  TIP3  H2            5.0032448462      -11.5039817368      -11.9121744849  CLST         528          1.0000000000
      1585       529  TIP3  OH2          -6.0306526305       -6.9572954949       -4.6860068607  CLST         529          1.0000000000
      1586       529  TIP3  H1           -5.3420686738       -7.5546386881       -4.9472534157  CLST         529          1.0000000000
      1587       529  TIP3  H2           -5.9982430313       -6.4613959734       -5.5046401497  CLST         529          1.0000000000
      1588       530  TIP3  OH2           2.8598712657       -5.7246637817        6.4175932152  CLST         530          1.0000000000
      1589       530  TIP3  H1            2.4968247809       -6.1870768366        7.1967672630  CLST         530          1.0000000000
      1590       530  TIP3  H2            2.0007445711       -5.4840523206        6.0149625926  CLST         530          1.0000000000
      1591       531  TIP3  OH2          -3.2779372676       -3.3577456073      -14.9080603371  CLST         531          1.0000000000
      1592       531  TIP3  H1           -4.2099798699       -2.9569139976      -14.9366534315  CLST         531          1.0000000000
      1593       531  TIP3  H2           -2.9684909569       -2.6593333583      -14.4079053530  CLST         531          1.0000000000
      1594       532  TIP3  OH2          -1.0601658773       -3.5168625600       -2.1216453716  CLST         532          1.0000000000
      1595       532  TIP3  H1           -1.5312990934       -2.6603701993       -2.0165205654  CLST         532          1.0000000000
      1596       532  TIP3  H2           -1.6509960027       -3.9541675961       -1.4913994485  CLST         532          1.0000000000
      1597       533  TIP3  OH2          -3.1025939851       13.3372304199        7.9713715893  CLST         533          1.0000000000
      1598       533  TIP3  H1           -4.0292804880       13.4303981114        7.9212902810  CLST         533          1.0000000000
      1599       533  TIP3  H2           -3.6227314973       12.3612453782        7.9132289420  CLST         533          1.0000000000
      1600       534  TIP3  OH2           6.9898514137       -4.4038513006       -5.1227767954  CLST         534          1.0000000000
      1601       534  TIP3  H1            6.0635535136       -4.3645119874       -4.7263416480  CLST         534          1.0000000000
      1602       534  TIP3  H2            6.6131959275       -3.9981102444       -5.8933580123  CLST         534          1.0000000000
      1603       535  TIP3  OH2           7.0504705651       -3.9051681543      -11.5261422550  CLST         535          1.0000000000
      1604       535  TIP3  H1            6.3270491639       -3.4160834907      -11.1657821546  CLST         535          1.0000000000
      1605       535  TIP3  H2            7.2401398462       -4.3330720592      -10.7067774506  CLST         535          1.0000000000
      1606       536  TIP3  OH2          14.3180960537        7.8852055127       10.8621356785  CLST         536          1.0000000000
      1607       536  TIP3  H1           14.0883634028        8.7745471792       11.2263953176  CLST         536          1.0000000000
      1608       536  TIP3  H2           14.8182274564        8.3579472698       10.1723904242  CLST         536          1.0000000000
      1609       537  TIP3  OH2           4.7225363710       -4.4392854922       -3.6105413326  CLST         537          1.0000000000
      1610       537  TIP3  H1            3.8958184530       -4.0562775981       -3.6348840970  CLST         537          1.0000000000
      1611       537  TIP3  H2            4.4352028117       -5.3789717182       -3.5948412417  CLST         537          1.0000000000
      1612       538  TIP3  OH2          -0.5557727332        7.5882384375       13.1284575869  CLST         538          1.0000000000
      1613       538  TIP3  H1           -1.1802079674        7.7376466472       12.4009904460  CLST         538          1.0000000000
      1614       538  TIP3  H2           -0.5509381800        8.4748955074       13.4197641776  CLST         538          1.0000000000
      1615       539  TIP3  OH2           6.1737936135        8.6927326744        1.0520729332  CLST         539          1.0000000000
      1616       539  TIP3  H1            6.7758784588        8.0137494176        0.4804605926  CLST         539          1.0000000000
      1617       539  TIP3  H2            6.0898898717        7.4455150413        0.8867933777  CLST         539          1.0000000000
      1618       540  TIP3  OH2          12.1975622721       -1.2712004988       -4.0723041999  CLST         540          1.0000000000
      1619       540  TIP3  H1           12.9178490954       -0.6306975386       -4.2155763533  CLST         540          1.0000000000
      1620       540  TIP3  H2           12.2974714337       -1.0103095710       -3.1350588478  CLST         540          1.0000000000
      1621       541  TIP3  OH2          10.2867549523        7.2135322522        8.4241920500  CLST         541          1.0000000000
      1622       541  TIP3  H1           10.8467991077        7.3004158865        9.0789996495  CLST         541          1.0000000000
      1623       541  TIP3  H2           10.7073131614        6.1761213141        8.7762523347  CLST         541          1.0000000000
      1624       542  TIP3  OH2          13.5503813934        0.9201699428       -5.2964128566  CLST         542          1.0000000000
      1625       542  TIP3  H1           12.8053468348        1.1653441321       -5.9236808733  CLST         542          1.0000000000
      1626       542  TIP3  H2           13.9295203970        0.5318131404       -6.0716485309  CLST         542          1.0000000000
      1627       543  TIP3  OH2          10.0855338057       -6.4887126607        5.6695084497  CLST         543          1.0000000000
      1628       543  TIP3  H1           10.1157468248       -6.8113348055        4.7127861666  CLST         543          1.0000000000
      1629       543  TIP3  H2            9.6411255138       -5.6927218900        5.3014183008  CLST         543          1.0000000000
      1630       544  TIP3  OH2           6.8467377512        4.2309100867      -12.2521253106  CLST         544          1.0000000000
      1631       544  TIP3  H1            7.5221998936        3.3872971170      -11.5933517509  CLST         544          1.0000000000
      1632       544  TIP3  H2            7.3489331613        4.6648323098      -11.6041534582  CLST         544          1.0000000000
      1633       545  TIP3  OH2         -12.0553534419        2.2204404485        7.3715573700  CLST         545          1.0000000000
      1634       545  TIP3  H1          -13.0102032845        2.8469985599        7.4181548162  CLST         545          1.0000000000
      1635       545  TIP3  H2          -12.1307007026        2.9166477375        8.0697932126  CLST         545          1.0000000000
      1636       546  TIP3  OH2          -1.0521190184       11.9060292382       10.7239367898  CLST         546          1.0000000000
      1637       546  TIP3  H1           -0.9323498741       12.6963235058       10.2891218676  CLST         546          1.0000000000
      1638       546  TIP3  H2           -0.5773473758       12.2758309792       11.4623542683  CLST         546          1.0000000000
      1639       547  TIP3  OH2          -2.2996077944        7.1446069634        5.9890878794  CLST         547          1.0000000000
      1640       547  TIP3  H1           -2.2628765353        6.7647100760        6.8839536643  CLST         547          1.0000000000
      1641       547  TIP3  H2           -1.6945431355        6.4770160095        5.5848278495  CLST         547          1.0000000000
      1642       548  TIP3  OH2           2.9095152575       -7.5049258164       12.5663004430  CLST         548          1.0000000000
      1643       548  TIP3  H1            2.3195260549       -6.7419409398       12.2796858570  CLST         548          1.0000000000
      1644       548  TIP3  H2            3.7837483861       -6.9434592731       12.5118999201  CLST         548          1.0000000000
      1645       549  TIP3  OH2          -6.4681403344       14.2639892107        3.0802896660  CLST         549          1.0000000000
      1646       549  TIP3  H1           -6.9230341732       14.9366534315        3.5106973463  CLST         549          1.0000000000
      1647       549  TIP3  H2           -6.2602357852       13.6399491409        3.7742654994  CLST         549          1.0000000000
      1648       550  TIP3  OH2          -8.0521422854        4.6201665805       -4.3143346653  CLST         550          1.0000000000
      1649       550  TIP3  H1           -8.9127369697        3.9045498752       -4.2891586781  CLST         550          1.0000000000
      1650       550  TIP3  H2           -8.5827860579        4.8922603655       -3.4723911052  CLST         550          1.0000000000
      1651       551  TIP3  OH2          -2.3469244939      -13.4683258605       -3.3116560639  CLST         551          1.0000000000
      1652       551  TIP3  H1           -1.6150956920      -13.1384403189       -2.3281784582  CLST         551          1.0000000000
      1653       551  TIP3  H2           -2.8885185266      -13.3528006521       -2.6194842660  CLST         551          1.0000000000
      1654       552  TIP3  OH2          -2.2884311962       -7.7732458163       13.7333103678  CLST         552          1.0000000000
      1655       552  TIP3  H1           -2.6906221842       -8.5735394316       14.0791891662  CLST         552          1.0000000000
      1656       552  TIP3  H2           -1.6913367690       -8.1139340946       13.0477552341  CLST         552          1.0000000000
      1657       553  TIP3  OH2           8.4129049627      -13.7835673332        0.0396486098  CLST         553          1.0000000000
      1658       553  TIP3  H1            8.7227794010      -12.9122128764        0.4849705023  CLST         553          1.0000000000
      1659       553  TIP3  H2            8.4171498112      -14.2998565715        0.7575790355  CLST         553          1.0000000000
      1660       554  TIP3  OH2          -9.2162873842      -12.1156642666       -3.6712986283  CLST         554          1.0000000000
      1661       554  TIP3  H1           -9.3154425757      -11.5728049678       -2.9035188324  CLST         554          1.0000000000
      1662       554  TIP3  H2          -10.1469928049      -12.5814299555       -3.4875447941  CLST         554          1.0000000000
      1663       555  TIP3  OH2         -11.0134960587       -5.1704467159       -7.5433896386  CLST         555          1.0000000000
      1664       555  TIP3  H1          -10.9600504591       -4.2026555826       -7.3650704455  CLST         555          1.0000000000
      1665       555  TIP3  H2          -11.1015883940       -5.4336690498       -6.5887306183  CLST         555          1.0000000000
      1666       556  TIP3  OH2         -10.3728233816       11.2013048823       13.4883404635  CLST         556          1.0000000000
      1667       556  TIP3  H1          -10.7059658660       10.6616963341       14.1650635977  CLST         556          1.0000000000
      1668       556  TIP3  H2           -9.1479559811       10.0673410556       13.1702849988  CLST         556          1.0000000000
      1669       557  TIP3  OH2          -2.6677793183       -6.6607200842        1.2401529223  CLST         557          1.0000000000
      1670       557  TIP3  H1           -3.0302294757       -6.6718770087        2.1311007605  CLST         557          1.0000000000
      1671       557  TIP3  H2           -2.5599994766       -7.6274300739        1.1193535722  CLST         557          1.0000000000
      1672       558  TIP3  OH2         -10.2417145881        6.3585033432        3.0271095871  CLST         558          1.0000000000
      1673       558  TIP3  H1           -9.9752984139        5.6699228432        3.6490060853  CLST         558          1.0000000000
      1674       558  TIP3  H2           -9.6604839373        5.9937005723        2.2645492153  CLST         558          1.0000000000
      1675       559  TIP3  OH2           1.0356771648        2.3550563359       -0.0157011237  CLST         559          1.0000000000
      1676       559  TIP3  H1            1.7993120994        2.6744855310       -0.7369608361  CLST         559          1.0000000000
      1677       559  TIP3  H2            1.4664880850        1.4206645129       -0.6014196282  CLST         559          1.0000000000
      1678       560  TIP3  OH2          12.5103404130      -11.7158542288        1.0380886366  CLST         560          1.0000000000
      1679       560  TIP3  H1           12.6345505060      -11.9252942718        0.0674382977  CLST         560          1.0000000000
      1680       560  TIP3  H2           12.0611056606      -12.5755119448        1.0689256316  CLST         560          1.0000000000
      1681       561  TIP3  OH2         -12.9800326425        8.6714991856      -10.6761228373  CLST         561          1.0000000000
      1682       561  TIP3  H1          -12.3881022791        8.4699684928      -11.3670917151  CLST         561          1.0000000000
      1683       561  TIP3  H2          -12.1571408185        8.6261522979      -10.1146956162  CLST         561          1.0000000000
      1684       562  TIP3  OH2           9.9287337064        6.9542856996       13.2242881165  CLST         562          1.0000000000
      1685       562  TIP3  H1           10.2859955675        7.2443616835       14.0645763131  CLST         562          1.0000000000
      1686       562  TIP3  H2           10.2654052302        6.0754575324       13.4730348170  CLST         562          1.0000000000
      1687       563  TIP3  OH2           3.0320937225      -10.3967068162       -6.6092326102  CLST         563          1.0000000000
      1688       563  TIP3  H1            3.8056972702      -10.8400547041       -6.9613479895  CLST         563          1.0000000000
      1689       563  TIP3  H2            2.4674296023      -11.1306671335       -6.8046235809  CLST         563          1.0000000000
      1690       564  TIP3  OH2           4.7034227777      -13.4905958190       -2.7865846010  CLST         564          1.0000000000
      1691       564  TIP3  H1            5.3539499376      -13.7885749487       -3.7864300567  CLST         564          1.0000000000
      1692       564  TIP3  H2            4.1023250050      -13.2601241625       -3.4445608903  CLST         564          1.0000000000
      1693       565  TIP3  OH2           1.4209653509       12.1425776676        0.3558896690  CLST         565          1.0000000000
      1694       565  TIP3  H1            1.0555629181       11.2731108113        0.0841755365  CLST         565          1.0000000000
      1695       565  TIP3  H2            2.2524571867       12.0385011838       -0.1214070028  CLST         565          1.0000000000
      1696       566  TIP3  OH2          -8.9188162503        5.5818461966        0.8325247925  CLST         566          1.0000000000
      1697       566  TIP3  H1           -8.5073083426        4.8270854197        0.3896175200  CLST         566          1.0000000000
      1698       566  TIP3  H2           -9.5558106393        5.9123208169        0.1539568360  CLST         566          1.0000000000
      1699       567  TIP3  OH2          12.1558806554       -0.1657782691       -8.2591113797  CLST         567          1.0000000000
      1700       567  TIP3  H1           12.9516366365       -0.3761263333       -7.9086305588  CLST         567          1.0000000000
      1701       567  TIP3  H2           12.2908611525       -0.6749271188       -9.1600887592  CLST         567          1.0000000000
      1702       568  TIP3  OH2           9.0008452397       -7.1497370113       11.6166354453  CLST         568          1.0000000000
      1703       568  TIP3  H1            9.9407211935       -7.2948566119       11.9475774706  CLST         568          1.0000000000
      1704       568  TIP3  H2            9.1750056803       -6.2597492345       11.4576065006  CLST         568          1.0000000000
      1705       569  TIP3  OH2          -8.4407337001       -6.2400014990        3.4720471455  CLST         569          1.0000000000
      1706       569  TIP3  H1           -8.6237922206       -5.8802491862        2.3036492563  CLST         569          1.0000000000
      1707       569  TIP3  H2           -9.1777970842       -6.4749531313        3.0942193544  CLST         569          1.0000000000
      1708       570  TIP3  OH2           6.3375528390       11.8012381086       14.9082758891  CLST         570          1.0000000000
      1709       570  TIP3  H1            5.7393132111       11.6346471123       14.2059311803  CLST         570          1.0000000000
      1710       570  TIP3  H2            6.9234838883       12.3044377456       14.2165817520  CLST         570          1.0000000000
      1711       571  TIP3  OH2           9.5667272162        1.0494488448        4.2123043686  CLST         571          1.0000000000
      1712       571  TIP3  H1            8.8763028480        1.4464609633        4.5630428746  CLST         571          1.0000000000
      1713       571  TIP3  H2            9.0851589061        0.5106599081        3.4437905692  CLST         571          1.0000000000
      1714       572  TIP3  OH2           5.1360231620        0.4963222881        2.3753848722  CLST         572          1.0000000000
      1715       572  TIP3  H1            4.6209062814       -0.2205455601        1.9733270188  CLST         572          1.0000000000
      1716       572  TIP3  H2            5.8538241921       -0.1581115595        2.4190916312  CLST         572          1.0000000000
      1717       573  TIP3  OH2          -1.9095850994       -6.4570556481       -6.4252838487  CLST         573          1.0000000000
      1718       573  TIP3  H1           -1.8143967481       -7.3937209206       -6.5694090311  CLST         573          1.0000000000
      1719       573  TIP3  H2           -2.1727999146       -6.2078752143       -7.3227257390  CLST         573          1.0000000000
      1720       574  TIP3  OH2          -9.7724302955        0.6415288151        9.6721513303  CLST         574          1.0000000000
      1721       574  TIP3  H1           -9.5292770805        1.5797360141        9.7890808460  CLST         574          1.0000000000
      1722       574  TIP3  H2           -9.3170514653        0.6877599835        8.7761404766  CLST         574          1.0000000000
      1723       575  TIP3  OH2          -3.8951239310       10.7065098989        0.9173194096  CLST         575          1.0000000000
      1724       575  TIP3  H1           -4.0255056739       11.1655787217        0.0944072148  CLST         575          1.0000000000
      1725       575  TIP3  H2           -4.7167375768       11.0879920448        1.3322847438  CLST         575          1.0000000000
      1726       576  TIP3  OH2          -3.5311987656       -2.5184584270        6.2953677009  CLST         576          1.0000000000
      1727       576  TIP3  H1           -3.6391058927       -1.6518064488        5.7851233194  CLST         576          1.0000000000
      1728       576  TIP3  H2           -2.8024859179       -1.9795979749        4.9427584799  CLST         576          1.0000000000
      1729       577  TIP3  OH2         -12.0246659637       11.2173952326        8.5422930628  CLST         577          1.0000000000
      1730       577  TIP3  H1          -11.8022810885       12.1710311516        8.6205846481  CLST         577          1.0000000000
      1731       577  TIP3  H2          -11.8156573142       11.3743876376        7.5845406118  CLST         577          1.0000000000
      1732       578  TIP3  OH2          -1.7541658837        1.0493107286        5.3417502114  CLST         578          1.0000000000
      1733       578  TIP3  H1           -2.6934977608        1.2144263018        5.0937139013  CLST         578          1.0000000000
      1734       578  TIP3  H2           -1.9531181712        0.8589409222        6.2583823930  CLST         578          1.0000000000
      1735       579  TIP3  OH2          -6.5738686263       11.5974408466        1.6934230019  CLST         579          1.0000000000
      1736       579  TIP3  H1           -6.6346889644       12.4113249109        1.1084632431  CLST         579          1.0000000000
      1737       579  TIP3  H2           -7.1501666849       11.1323363360        1.0336829139  CLST         579          1.0000000000
      1738       580  TIP3  OH2          11.2194631425        3.5949448218       -3.2113596831  CLST         580          1.0000000000
      1739       580  TIP3  H1           11.0054854475        2.6554903041       -2.7834527110  CLST         580          1.0000000000
      1740       580  TIP3  H2           11.6058326341        3.9071695313       -2.3387220194  CLST         580          1.0000000000
      1741       581  TIP3  OH2          12.9569767826      -11.7997143864        3.7434288620  CLST         581          1.0000000000
      1742       581  TIP3  H1           12.9026842428      -11.8872977731        2.7858212822  CLST         581          1.0000000000
      1743       581  TIP3  H2           13.7448790945      -12.2853586988        3.8246022431  CLST         581          1.0000000000
      1744       582  TIP3  OH2           6.1475118304       10.6620331054       -6.9921632443  CLST         582          1.0000000000
      1745       582  TIP3  H1            5.5898298074       10.0211534817       -6.4665120116  CLST         582          1.0000000000
      1746       582  TIP3  H2            6.5569196503       11.0170248682       -6.1893054438  CLST         582          1.0000000000
      1747       583  TIP3  OH2          -2.5380917084        4.3432874602      -10.8622610116  CLST         583          1.0000000000
      1748       583  TIP3  H1           -3.0764611394        3.3436514949      -11.2398432849  CLST         583          1.0000000000
      1749       583  TIP3  H2           -1.9555928295        3.5489697413      -11.2599562726  CLST         583          1.0000000000
      1750       584  TIP3  OH2           2.1369764313       -3.9390199988       -9.8114224201  CLST         584          1.0000000000
      1751       584  TIP3  H1            2.9435711074       -4.4540402922      -10.0718587583  CLST         584          1.0000000000
      1752       584  TIP3  H2            2.7078919746       -3.2171977179       -9.7363899692  CLST         584          1.0000000000
      1753       585  TIP3  OH2         -14.0030252421        1.0308834821       -1.8969772871  CLST         585          1.0000000000
      1754       585  TIP3  H1          -13.7314579617        1.8128944525       -2.4659781578  CLST         585          1.0000000000
      1755       585  TIP3  H2          -14.6801069874        0.7909867600       -2.5476918321  CLST         585          1.0000000000
      1756       586  TIP3  OH2          -7.1748369622        8.5014382126       10.1935237134  CLST         586          1.0000000000
      1757       586  TIP3  H1           -6.8103780094        9.0786848337        9.5105900982  CLST         586          1.0000000000
      1758       586  TIP3  H2           -7.1546273137        7.6310636219        9.7585550041  CLST         586          1.0000000000
      1759       587  TIP3  OH2           4.7398501752        4.4776120246       -9.9144340340  CLST         587          1.0000000000
      1760       587  TIP3  H1            3.8588226179        4.6170164024      -10.2803366792  CLST         587          1.0000000000
      1761       587  TIP3  H2            5.0547428028        4.7997752590      -10.7906068838  CLST         587          1.0000000000
      1762       588  TIP3  OH2           4.9699962726       -9.6011533374      -14.0737168380  CLST         588          1.0000000000
      1763       588  TIP3  H1            4.1746209322       -9.7619331735      -14.5695553103  CLST         588          1.0000000000
      1764       588  TIP3  H2            4.5749747463       -9.1180774580      -13.3640577806  CLST         588          1.0000000000
      1765       589  TIP3  OH2           0.4308550690      -14.0875319770        3.0897035852  CLST         589          1.0000000000
      1766       589  TIP3  H1           -0.2350678684      -14.6508447976        2.7041469715  CLST         589          1.0000000000
      1767       589  TIP3  H2           -0.1252680836      -13.8133265698        3.8150190323  CLST         589          1.0000000000
      1768       590  TIP3  OH2           2.4711601252        1.7912199260       -8.1942658875  CLST         590          1.0000000000
      1769       590  TIP3  H1            1.7421930000        2.2359370057       -7.7805248057  CLST         590          1.0000000000
      1770       590  TIP3  H2            2.2595324178        2.1836445707       -9.0336955604  CLST         590          1.0000000000
      1771       591  TIP3  OH2         -12.8955924970        0.8848115886       -6.7026819431  CLST         591          1.0000000000
      1772       591  TIP3  H1          -12.0537840760        0.9139833089       -6.1960138125  CLST         591          1.0000000000
      1773       591  TIP3  H2          -13.1401334677        1.7728651980       -6.5565203745  CLST         591          1.0000000000
      1774       592  TIP3  OH2          -4.2279069529       -3.7758823192       -6.2507505315  CLST         592          1.0000000000
      1775       592  TIP3  H1           -3.6044918114       -3.5319588698       -6.9009364918  CLST         592          1.0000000000
      1776       592  TIP3  H2           -4.7755597503       -4.4010108182       -6.8248984598  CLST         592          1.0000000000
      1777       593  TIP3  OH2          -1.7114180256        5.1964442010       -4.4605785864  CLST         593          1.0000000000
      1778       593  TIP3  H1           -1.8852706887        6.1208403929       -4.4214217928  CLST         593          1.0000000000
      1779       593  TIP3  H2           -1.0183181390        5.3600442563       -5.1397901211  CLST         593          1.0000000000
      1780       594  TIP3  OH2          10.8916712251       10.3200152451       13.5420334939  CLST         594          1.0000000000
      1781       594  TIP3  H1           10.9964971694        9.7491558689       14.2947118869  CLST         594          1.0000000000
      1782       594  TIP3  H2            9.9008269988       10.3551430036       13.4071603019  CLST         594          1.0000000000
      1783       595  TIP3  OH2          -9.3308211336       13.5761656300        4.5585172707  CLST         595          1.0000000000
      1784       595  TIP3  H1           -9.5698758291       14.0227003043        3.7245745726  CLST         595          1.0000000000
      1785       595  TIP3  H2           -9.0428108882       12.8434675683        3.9473399953  CLST         595          1.0000000000
      1786       596  TIP3  OH2         -14.1124320289       -0.6743774153        8.7432970984  CLST         596          1.0000000000
      1787       596  TIP3  H1          -14.1528662797       -1.5039060364        9.0436096326  CLST         596          1.0000000000
      1788       596  TIP3  H2          -13.3194759812       -0.7310184281        8.1980491137  CLST         596          1.0000000000
      1789       597  TIP3  OH2          -3.1905738264       -5.3776264504       -4.3247529932  CLST         597          1.0000000000
      1790       597  TIP3  H1           -2.8215116065       -5.8341556006       -5.1002041895  CLST         597          1.0000000000
      1791       597  TIP3  H2           -3.4939832129       -4.6963921894       -4.9965341972  CLST         597          1.0000000000
      1792       598  TIP3  OH2          -8.1325605023       -9.4466802215       -9.0238725215  CLST         598          1.0000000000
      1793       598  TIP3  H1           -8.9336082571       -9.9913567962       -9.0506155760  CLST         598          1.0000000000
      1794       598  TIP3  H2           -8.3875523647       -8.9240915355       -9.7559061937  CLST         598          1.0000000000
      1795       599  TIP3  OH2          12.0528597735        0.0401216112      -12.9332927170  CLST         599          1.0000000000
      1796       599  TIP3  H1           12.5065034963        0.7691601821      -13.4151088418  CLST         599          1.0000000000
      1797       599  TIP3  H2           12.1579420073       -0.4544479643      -13.7964500747  CLST         599          1.0000000000
      1798       600  TIP3  OH2          14.0263128667       -9.3393126296        1.6167657673  CLST         600          1.0000000000
      1799       600  TIP3  H1           14.7294502028       -9.9990560270        1.7947753688  CLST         600          1.0000000000
      1800       600  TIP3  H2           13.6113415243      -10.0495404674        1.1501131187  CLST         600          1.0000000000
      1801       601  TIP3  OH2          -2.3101266254       13.2264281311       -8.1692849037  CLST         601          1.0000000000
      1802       601  TIP3  H1           -1.5688908087       13.1279340504       -7.5498069631  CLST         601          1.0000000000
      1803       601  TIP3  H2           -1.6576741746       13.6861409961       -8.7161836196  CLST         601          1.0000000000
      1804       602  TIP3  OH2          13.7236674209       -3.1840087888        8.6514693756  CLST         602          1.0000000000
      1805       602  TIP3  H1           13.1169719541       -2.6485889462        8.1278952226  CLST         602          1.0000000000
      1806       602  TIP3  H2           13.9641822717       -3.6111110096        7.8299035761  CLST         602          1.0000000000
      1807       603  TIP3  OH2          -8.2112355130       -9.4538178597      -12.2513185892  CLST         603          1.0000000000
      1808       603  TIP3  H1           -8.9915922777       -8.9063053767      -12.0387335970  CLST         603          1.0000000000
      1809       603  TIP3  H2           -8.7019260965      -10.3136723669      -12.2181560850  CLST         603          1.0000000000
      1810       604  TIP3  OH2           0.0056833508       -7.9579395466       12.3202623577  CLST         604          1.0000000000
      1811       604  TIP3  H1            0.0648692817       -6.9949641110       12.2796182721  CLST         604          1.0000000000
      1812       604  TIP3  H2            0.8771640433       -7.9899371650       12.7049938310  CLST         604          1.0000000000
      1813       605  TIP3  OH2           9.9519165568        8.3035918381        3.7687588532  CLST         605          1.0000000000
      1814       605  TIP3  H1            9.2715905508        8.8477751500        3.3788664812  CLST         605          1.0000000000
      1815       605  TIP3  H2           10.2355339984        9.0640464118        4.1897820179  CLST         605          1.0000000000
      1816       606  TIP3  OH2           0.9348721577        8.6265754423       -6.2926486412  CLST         606          1.0000000000
      1817       606  TIP3  H1            1.4656082646        9.3154578122       -5.9174143525  CLST         606          1.0000000000
      1818       606  TIP3  H2            0.1606525459        9.2323452265       -6.1223079754  CLST         606          1.0000000000
      1819       607  TIP3  OH2          -4.8750287275        1.3273686037      -14.0187045538  CLST         607          1.0000000000
      1820       607  TIP3  H1           -5.8472075345        1.8172937874      -13.8000733862  CLST         607          1.0000000000
      1821       607  TIP3  H2           -5.7011673717        0.9065417347      -14.4568155916  CLST         607          1.0000000000
      1822       608  TIP3  OH2          -2.4873879950       -0.6239437428      -11.4456658065  CLST         608          1.0000000000
      1823       608  TIP3  H1           -1.5962016590       -0.3722494377      -11.3317005773  CLST         608          1.0000000000
      1824       608  TIP3  H2           -2.4561957537       -0.2061928120      -12.3038289777  CLST         608          1.0000000000
      1825       609  TIP3  OH2           3.7765826571        8.1041400994        3.1675259231  CLST         609          1.0000000000
      1826       609  TIP3  H1            4.1837283936        8.6591973064        3.8099192984  CLST         609          1.0000000000
      1827       609  TIP3  H2            4.5223105088        7.5405315003        3.1267569857  CLST         609          1.0000000000
      1828       610  TIP3  OH2          -7.7130136947       -9.0997423429       11.6371871445  CLST         610          1.0000000000
      1829       610  TIP3  H1           -7.2174763968       -9.7479666432       11.1145279478  CLST         610          1.0000000000
      1830       610  TIP3  H2           -6.5610372935       -8.9728282558       11.6672233549  CLST         610          1.0000000000
      1831       611  TIP3  OH2          13.9942520818       -4.3353093255        6.3092009992  CLST         611          1.0000000000
      1832       611  TIP3  H1           14.3199732448       -5.1536105401        5.7698148294  CLST         611          1.0000000000
      1833       611  TIP3  H2           14.3455606031       -3.8647599867        5.5371736691  CLST         611          1.0000000000
      1834       612  TIP3  OH2          -9.0014659269      -10.6908748615        6.1374708774  CLST         612          1.0000000000
      1835       612  TIP3  H1           -8.2802455936      -10.1379548918        5.8704945169  CLST         612          1.0000000000
      1836       612  TIP3  H2           -9.7717314942      -10.1280158891        5.7914726971  CLST         612          1.0000000000
      1837       613  TIP3  OH2           2.5021992574       -2.2565455590       14.5294487601  CLST         613          1.0000000000
      1838       613  TIP3  H1            2.0231266354       -3.0822923729       14.1975321438  CLST         613          1.0000000000
      1839       613  TIP3  H2            1.8530832399       -1.7377806080       14.0121689950  CLST         613          1.0000000000
      1840       614  TIP3  OH2           1.0225897494        4.4942329546       -8.8701953390  CLST         614          1.0000000000
      1841       614  TIP3  H1            1.8081983650        4.8930726189       -8.0194068799  CLST         614          1.0000000000
      1842       614  TIP3  H2            1.1355435668        5.5143726100       -8.8560183649  CLST         614          1.0000000000
      1843       615  TIP3  OH2           1.3484491986        4.6706100859        6.9097943302  CLST         615          1.0000000000
      1844       615  TIP3  H1            2.0055851423        4.8864665488        7.5352155729  CLST         615          1.0000000000
      1845       615  TIP3  H2            1.8351499266        4.5277887368        6.0395135225  CLST         615          1.0000000000
      1846       616  TIP3  OH2          -7.6378586346        4.1092673518       -7.2911036789  CLST         616          1.0000000000
      1847       616  TIP3  H1           -8.1686909017        4.1739733857       -8.0914065881  CLST         616          1.0000000000
      1848       616  TIP3  H2           -7.0797959255        4.7361947260       -7.7158101096  CLST         616          1.0000000000
      1849       617  TIP3  OH2          14.7981430396        2.0913425024       11.8410056706  CLST         617          1.0000000000
      1850       617  TIP3  H1           14.2899608767        1.2940285347       12.0746956519  CLST         617          1.0000000000
      1851       617  TIP3  H2           14.1254172066        2.5806370288       12.4098061474  CLST         617          1.0000000000
      1852       618  TIP3  OH2          -7.0711819082        3.2562107757        2.5717500681  CLST         618          1.0000000000
      1853       618  TIP3  H1           -6.6400443947        3.9101149867        2.0562293315  CLST         618          1.0000000000
      1854       618  TIP3  H2           -6.7542092554        3.4446295008        3.4368101738  CLST         618          1.0000000000
      1855       619  TIP3  OH2           1.3518462881        5.4824770421       -2.4103258101  CLST         619          1.0000000000
      1856       619  TIP3  H1            0.5303419093        4.9057970741       -2.5062574380  CLST         619          1.0000000000
      1857       619  TIP3  H2            0.7993829122        6.1742805815       -2.9108727828  CLST         619          1.0000000000
      1858       620  TIP3  OH2          -3.4162881764        8.4759696451       -5.8632233832  CLST         620          1.0000000000
      1859       620  TIP3  H1           -3.4863917661        7.8838625561       -5.0771189410  CLST         620          1.0000000000
      1860       620  TIP3  H2           -3.7575463979        7.8654727115       -6.5264809770  CLST         620          1.0000000000
      1861       621  TIP3  OH2           0.8769969698        7.3278287919       -8.6223457592  CLST         621          1.0000000000
      1862       621  TIP3  H1            0.9240038544        7.9703681495       -7.8903677931  CLST         621          1.0000000000
      1863       621  TIP3  H2            0.7506046240        8.0152316165       -9.3194183293  CLST         621          1.0000000000
      1864       622  TIP3  OH2           1.9275421010       10.4289880228        4.0639609732  CLST         622          1.0000000000
      1865       622  TIP3  H1            2.4327179919       10.3544148680        4.8676358342  CLST         622          1.0000000000
      1866       622  TIP3  H2            1.1910173620       10.0205611209        4.5338491269  CLST         622          1.0000000000
      1867       623  TIP3  OH2          -0.0233419330       12.2211541290        2.6018805752  CLST         623          1.0000000000
      1868       623  TIP3  H1            0.3849006217       12.1713959609        1.7337252190  CLST         623          1.0000000000
      1869       623  TIP3  H2            0.6988422982       11.7461263414        2.9253102746  CLST         623          1.0000000000
      1870       624  TIP3  OH2          -8.8454627136       -1.5522024116       -4.1022770826  CLST         624          1.0000000000
      1871       624  TIP3  H1           -8.3496521338       -0.9977548219       -4.8659666304  CLST         624          1.0000000000
      1872       624  TIP3  H2           -9.6574815336       -1.0844067043       -4.2924775688  CLST         624          1.0000000000
      1873       625  TIP3  OH2          -9.5509071305      -13.0463238619       -9.0810451758  CLST         625          1.0000000000
      1874       625  TIP3  H1          -10.0687637878      -12.7836042983       -8.3467754485  CLST         625          1.0000000000
      1875       625  TIP3  H2           -8.9364626635      -13.4673700386       -8.4642426403  CLST         625          1.0000000000
      1876       626  TIP3  OH2          13.3258050676       -5.5147446789       -2.7268566339  CLST         626          1.0000000000
      1877       626  TIP3  H1           12.7260649617       -5.9789097520       -3.3469014936  CLST         626          1.0000000000
      1878       626  TIP3  H2           13.9166819645       -5.3745349142       -3.4701879134  CLST         626          1.0000000000
      1879       627  TIP3  OH2          -0.9869122561      -11.4434308083        7.9873090679  CLST         627          1.0000000000
      1880       627  TIP3  H1           -0.1529736370      -11.6041487030        8.3987949797  CLST         627          1.0000000000
      1881       627  TIP3  H2           -1.1695923283      -12.3658452115        8.0454472599  CLST         627          1.0000000000
      1882       628  TIP3  OH2           7.0853958474        8.8399358458       -8.9400072507  CLST         628          1.0000000000
      1883       628  TIP3  H1            6.9877698619        9.8031180590       -8.9950486176  CLST         628          1.0000000000
      1884       628  TIP3  H2            6.8813007907        9.5126651413       -8.0903018412  CLST         628          1.0000000000
      1885       629  TIP3  OH2          -9.6645416181       -0.1325969316       -9.7792034797  CLST         629          1.0000000000
      1886       629  TIP3  H1           -8.7078575423        0.0551833607      -10.3008077355  CLST         629          1.0000000000
      1887       629  TIP3  H2           -9.1712383245       -0.9824599935       -9.8727735698  CLST         629          1.0000000000
      1888       630  TIP3  OH2          11.6037271286       12.1780005308       11.5718241503  CLST         630          1.0000000000
      1889       630  TIP3  H1           11.0514714285       12.9110606837       11.4137119189  CLST         630          1.0000000000
      1890       630  TIP3  H2           11.0271375305       11.8485914216       12.2344167404  CLST         630          1.0000000000
      1891       631  TIP3  OH2         -12.0911437723      -11.2353950814      -11.6278351265  CLST         631          1.0000000000
      1892       631  TIP3  H1          -11.9217961019      -11.0969561867      -12.9074502031  CLST         631          1.0000000000
      1893       631  TIP3  H2          -12.8374266866      -11.6269022800      -12.0322497778  CLST         631          1.0000000000
      1894       632  TIP3  OH2          10.9631463938        2.0483788060        9.3020837981  CLST         632          1.0000000000
      1895       632  TIP3  H1           11.8330845697        1.5462676693        9.3777224006  CLST         632          1.0000000000
      1896       632  TIP3  H2           10.9204694942        1.2245924624        8.4281262291  CLST         632          1.0000000000
      1897       633  TIP3  OH2          -4.4302005221        6.4262656731       10.4516597381  CLST         633          1.0000000000
      1898       633  TIP3  H1           -4.1368354803        5.5110911039       10.4853966501  CLST         633          1.0000000000
      1899       633  TIP3  H2           -5.2267143368        6.2621578679        9.9530577121  CLST         633          1.0000000000
      1900       634  TIP3  OH2          -2.4818793354       -7.1718828946        6.8220505232  CLST         634          1.0000000000
      1901       634  TIP3  H1           -2.5599272361       -8.1316326653        7.1599719986  CLST         634          1.0000000000
      1902       634  TIP3  H2           -1.9297210821       -6.8803634469        7.5245156945  CLST         634          1.0000000000
      1903       635  TIP3  OH2           2.7342786110        2.7475140645       -2.0825366206  CLST         635          1.0000000000
      1904       635  TIP3  H1            1.9001088878        3.3157469614       -2.7464330249  CLST         635          1.0000000000
      1905       635  TIP3  H2            2.4535703555        2.4731007616       -3.0179150762  CLST         635          1.0000000000
      1906       636  TIP3  OH2           5.0852490911       -2.5006181977      -10.2438849110  CLST         636          1.0000000000
      1907       636  TIP3  H1            4.6872931657       -2.0420555232      -10.9923760229  CLST         636          1.0000000000
      1908       636  TIP3  H2            5.0415842439       -1.6517746249       -9.7639395525  CLST         636          1.0000000000
      1909       637  TIP3  OH2           3.8751147720       11.0226067662      -10.6090675870  CLST         637          1.0000000000
      1910       637  TIP3  H1            4.7139876242       11.3374328048       -9.9228909124  CLST         637          1.0000000000
      1911       637  TIP3  H2            3.8233803864       11.1165664750       -9.7357476902  CLST         637          1.0000000000
      1912       638  TIP3  OH2           8.9042046457      -12.2863722701       -7.1842194249  CLST         638          1.0000000000
      1913       638  TIP3  H1            8.5853601943      -12.7401433991       -7.9276607452  CLST         638          1.0000000000
      1914       638  TIP3  H2            9.5584501757      -11.8369206424       -7.7527282520  CLST         638          1.0000000000
      1915       639  TIP3  OH2           7.3856854251      -13.5866585234       -9.0559276284  CLST         639          1.0000000000
      1916       639  TIP3  H1            6.4319849284      -13.7382432769       -8.9750735276  CLST         639          1.0000000000
      1917       639  TIP3  H2            7.5233726048      -14.5384359454       -9.2101610815  CLST         639          1.0000000000
      1918       640  TIP3  OH2          -9.7820358728       -3.2433792487      -10.1402264660  CLST         640          1.0000000000
      1919       640  TIP3  H1           -9.0243019933       -3.3025567038       -9.5464477888  CLST         640          1.0000000000
      1920       640  TIP3  H2          -10.3026656030       -3.0678744051       -9.3644352514  CLST         640          1.0000000000
      1921       641  TIP3  OH2         -13.6907455217       -2.7796322880      -13.3079244440  CLST         641          1.0000000000
      1922       641  TIP3  H1          -13.2523564926       -3.7033222734      -13.4107489525  CLST         641          1.0000000000
      1923       641  TIP3  H2          -12.6205321561       -2.5647589713      -12.9957937710  CLST         641          1.0000000000
      1924       642  TIP3  OH2          -1.9268732491        1.6992464527       11.0024533318  CLST         642          1.0000000000
      1925       642  TIP3  H1           -1.2195787405        1.5587629044       11.6236108959  CLST         642          1.0000000000
      1926       642  TIP3  H2           -2.5937479766        1.3476323184       11.5191889754  CLST         642          1.0000000000
      1927       643  TIP3  OH2         -13.9771502733       -2.7976623271        3.5981070580  CLST         643          1.0000000000
      1928       643  TIP3  H1          -13.3547885922       -2.3124114922        4.1826293577  CLST         643          1.0000000000
      1929       643  TIP3  H2          -14.6409325792       -2.1763248229        3.9050904280  CLST         643          1.0000000000
      1930       644  TIP3  OH2          12.7198522438       -2.8029058243        1.1483186778  CLST         644          1.0000000000
      1931       644  TIP3  H1           13.3638607749       -2.0773927003        1.2938939736  CLST         644          1.0000000000
      1932       644  TIP3  H2           13.3529718958       -3.5532630259        0.9594750269  CLST         644          1.0000000000
      1933       645  TIP3  OH2          -6.7362592211        6.3174363078        9.0037073268  CLST         645          1.0000000000
      1934       645  TIP3  H1           -7.3239641340        6.5060486678        8.2181751596  CLST         645          1.0000000000
      1935       645  TIP3  H2           -6.6495846086        5.2953235271        8.6666484333  CLST         645          1.0000000000
      1936       646  TIP3  OH2           7.1693922870      -11.3126409549       11.9127015121  CLST         646          1.0000000000
      1937       646  TIP3  H1            6.3109278111      -11.5033518965       11.5417666330  CLST         646          1.0000000000
      1938       646  TIP3  H2            7.4115718208      -12.2441710438       12.0484485099  CLST         646          1.0000000000
      1939       647  TIP3  OH2         -13.1798557093       -9.1944359358       -7.5374452903  CLST         647          1.0000000000
      1940       647  TIP3  H1          -13.8114299080       -9.6520775008       -6.9624193788  CLST         647          1.0000000000
      1941       647  TIP3  H2          -12.5197641321       -9.2540271421       -6.8808957996  CLST         647          1.0000000000
      1942       648  TIP3  OH2         -13.6837301076        3.4302100338       -6.3117653211  CLST         648          1.0000000000
      1943       648  TIP3  H1          -14.6782112783        3.5502304574       -6.2574713249  CLST         648          1.0000000000
      1944       648  TIP3  H2          -13.7423419850        3.2068160504       -5.3264334790  CLST         648          1.0000000000
      1945       649  TIP3  OH2          -1.5609901901       -3.5788782785       -7.3851110772  CLST         649          1.0000000000
      1946       649  TIP3  H1           -0.6476510142       -3.1045457957       -7.4191230445  CLST         649          1.0000000000
      1947       649  TIP3  H2           -0.9399503474       -4.2961827493       -7.7527661127  CLST         649          1.0000000000
      1948       650  TIP3  OH2          -4.4799177538       -3.3962396096      -11.8833662436  CLST         650          1.0000000000
      1949       650  TIP3  H1           -3.5239184935       -3.4157936747      -11.7979436995  CLST         650          1.0000000000
      1950       650  TIP3  H2           -4.5013606779       -2.5986757350      -11.3858510603  CLST         650          1.0000000000
      1951       651  TIP3  OH2           1.0426167673       -4.1268125871       14.0085269196  CLST         651          1.0000000000
      1952       651  TIP3  H1            0.1826007490       -4.6516704890       13.7287320995  CLST         651          1.0000000000
      1953       651  TIP3  H2            0.8325830611       -4.0896228245       14.9366534315  CLST         651          1.0000000000
      1954       652  TIP3  OH2           2.2316324374       -9.0235516781       10.1334727241  CLST         652          1.0000000000
      1955       652  TIP3  H1            2.4004848117       -8.3534620465       10.8480284608  CLST         652          1.0000000000
      1956       652  TIP3  H2            2.1844659548       -8.2502928101        9.5236850371  CLST         652          1.0000000000
      1957       653  TIP3  OH2          13.4972334699        0.9955248276       -2.4907359355  CLST         653          1.0000000000
      1958       653  TIP3  H1           12.5453389000        1.2039816554       -2.5211644116  CLST         653          1.0000000000
      1959       653  TIP3  H2           13.6278783900        1.0765141578       -3.4219403888  CLST         653          1.0000000000
      1960       654  TIP3  OH2          -5.9866430043        9.1384012327       13.0183950588  CLST         654          1.0000000000
      1961       654  TIP3  H1           -4.7551083992        9.2904503579       13.4438009229  CLST         654          1.0000000000
      1962       654  TIP3  H2           -5.0553724536        8.8468876453       12.2947830248  CLST         654          1.0000000000
      1963       655  TIP3  OH2          -4.2224536923        1.3801678649       12.6476280371  CLST         655          1.0000000000
      1964       655  TIP3  H1           -4.2649625272        0.4971776256       12.1738983184  CLST         655          1.0000000000
      1965       655  TIP3  H2           -4.9259434091        1.0698392635       13.1696493107  CLST         655          1.0000000000
      1966       656  TIP3  OH2         -14.0540947343       -4.3724459909      -10.7197661319  CLST         656          1.0000000000
      1967       656  TIP3  H1          -14.9065605744       -4.1659908899      -10.9860599603  CLST         656          1.0000000000
      1968       656  TIP3  H2          -13.8924128261       -4.9839055032      -11.4244468174  CLST         656          1.0000000000
      1969       657  TIP3  OH2           4.3629622352       -0.8952423550        5.3045950972  CLST         657          1.0000000000
      1970       657  TIP3  H1            4.9778144897       -0.4407463959        5.9095684048  CLST         657          1.0000000000
      1971       657  TIP3  H2            3.7293604766       -0.1566539401        5.3733950184  CLST         657          1.0000000000
      1972       658  TIP3  OH2         -13.9939420455       -7.2015701649       -4.8257981143  CLST         658          1.0000000000
      1973       658  TIP3  H1          -13.9264853981       -6.3704549821       -5.3380297962  CLST         658          1.0000000000
      1974       658  TIP3  H2          -14.9151324012       -7.1744038274       -5.0769966791  CLST         658          1.0000000000
      1975       659  TIP3  OH2           9.2406630359      -13.1497195950        9.7338703250  CLST         659          1.0000000000
      1976       659  TIP3  H1            8.7561979269      -12.5579705933        9.1987284851  CLST         659          1.0000000000
      1977       659  TIP3  H2            8.3945207569      -13.6652743449        9.9990559440  CLST         659          1.0000000000
      1978       660  TIP3  OH2         -14.3918032209       -8.8940713417        6.4961574737  CLST         660          1.0000000000
      1979       660  TIP3  H1          -14.9366534315       -9.4735609001        7.0493507495  CLST         660          1.0000000000
      1980       660  TIP3  H2          -13.5723381087       -8.9673080683        6.9874698666  CLST         660          1.0000000000
      1981       661  TIP3  OH2           2.9858378378        1.1340480298       -4.7305296609  CLST         661          1.0000000000
      1982       661  TIP3  H1            2.0971406945        1.4977787583       -4.8631991375  CLST         661          1.0000000000
      1983       661  TIP3  H2            2.6846762248        0.2260485652       -4.9703066698  CLST         661          1.0000000000
      1984       662  TIP3  OH2          -8.7982552568       -5.0886461111        1.2257920608  CLST         662          1.0000000000
      1985       662  TIP3  H1           -9.2594660533       -5.4872995189        0.5007046958  CLST         662          1.0000000000
      1986       662  TIP3  H2           -9.4237908950       -4.1254931185        0.9638244217  CLST         662          1.0000000000
      1987       663  TIP3  OH2           6.1572572359       -2.1896488676        3.4630357678  CLST         663          1.0000000000
      1988       663  TIP3  H1            5.5785534083       -1.8558176100        4.1134359806  CLST         663          1.0000000000
      1989       663  TIP3  H2            5.9636627153       -3.1508133163        3.6480600396  CLST         663          1.0000000000
      1990       664  TIP3  OH2          10.3076350150      -14.1590777656        2.4499003856  CLST         664          1.0000000000
      1991       664  TIP3  H1            9.7421024607      -13.5108748917        2.9214573242  CLST         664          1.0000000000
      1992       664  TIP3  H2           10.3407524779      -14.6304789449        3.2531315714  CLST         664          1.0000000000
      1993       665  TIP3  OH2           9.6096737639       10.2715345656      -13.9002178859  CLST         665          1.0000000000
      1994       665  TIP3  H1            8.6698453014        9.7891800692      -13.9578386657  CLST         665          1.0000000000
      1995       665  TIP3  H2            8.9615000185       10.2511460296      -14.9170169938  CLST         665          1.0000000000
      1996       666  TIP3  OH2         -11.3625780985       -7.5329486431       -9.0622540074  CLST         666          1.0000000000
      1997       666  TIP3  H1          -11.2193087905       -7.1327810351       -8.2053007698  CLST         666          1.0000000000
      1998       666  TIP3  H2          -12.0846308261       -8.0554049844       -8.6506550653  CLST         666          1.0000000000
      1999       667  TIP3  OH2         -11.1254159633        5.3553137247        7.6639574613  CLST         667          1.0000000000
      2000       667  TIP3  H1          -11.3379046267        4.6157850241        8.2710835194  CLST         667          1.0000000000
      2001       667  TIP3  H2          -10.8676701920        5.9079452331        8.3549215715  CLST         667          1.0000000000
      2002       668  TIP3  OH2         -12.5587311661       -0.0396192481       -0.0007742624  CLST         668          1.0000000000
      2003       668  TIP3  H1          -13.0793358524        0.5761279917        0.5360027172  CLST         668          1.0000000000
      2004       668  TIP3  H2          -13.2002696348        0.1631725501       -0.6858948964  CLST         668          1.0000000000
      2005       669  TIP3  OH2          -3.6364837847      -11.3950665774        5.1506193689  CLST         669          1.0000000000
      2006       669  TIP3  H1           -3.8628959305      -11.6339466508        4.2198392623  CLST         669          1.0000000000
      2007       669  TIP3  H2           -4.1419332569      -10.4331101080        4.4589954514  CLST         669          1.0000000000
      2008       670  TIP3  OH2          -6.2617077925       -2.4302563194        1.2507798942  CLST         670          1.0000000000
      2009       670  TIP3  H1           -7.1181803484       -2.0154721711        1.2866038390  CLST         670          1.0000000000
      2010       670  TIP3  H2           -5.9724024090       -1.8613566270        0.5525771483  CLST         670          1.0000000000
      2011       671  TIP3  OH2           3.9598744786       -9.4370832744      -10.9663930406  CLST         671          1.0000000000
      2012       671  TIP3  H1            3.7026108249       -8.9440066473      -10.1390821807  CLST         671          1.0000000000
      2013       671  TIP3  H2            4.8087743102       -8.9197912955      -10.9906879351  CLST         671          1.0000000000
      2014       672  TIP3  OH2          12.1347995342      -12.6438203888        9.1097863084  CLST         672          1.0000000000
      2015       672  TIP3  H1           11.2956759185      -13.0162678439        9.3212168278  CLST         672          1.0000000000
      2016       672  TIP3  H2           12.6445426510      -13.0404291735        9.8589772142  CLST         672          1.0000000000
      2017       673  TIP3  OH2           6.8000927586       -4.3539471569        6.8083881618  CLST         673          1.0000000000
      2018       673  TIP3  H1            7.5015652668       -3.7132226751        6.6139226974  CLST         673          1.0000000000
      2019       673  TIP3  H2            7.4167728539       -4.7651392966        7.4940779746  CLST         673          1.0000000000
      2020       674  TIP3  OH2          -4.1055389238       -0.7142850228        2.8457852646  CLST         674          1.0000000000
      2021       674  TIP3  H1           -3.6575178303       -1.6534454398        3.1053287867  CLST         674          1.0000000000
      2022       674  TIP3  H2           -3.5412153853       -1.5016924422        2.1944860063  CLST         674          1.0000000000
      2023       675  TIP3  OH2          -9.5406269323        2.4084227578       -3.3390352704  CLST         675          1.0000000000
      2024       675  TIP3  H1           -8.7169092092        2.1156544468       -2.9880739236  CLST         675          1.0000000000
      2025       675  TIP3  H2           -9.9313702373        1.9455124508       -2.5615808446  CLST         675          1.0000000000
      2026       676  TIP3  OH2         -13.5262448232        0.1260539871      -13.6013089518  CLST         676          1.0000000000
      2027       676  TIP3  H1          -13.7026199342       -0.8172302616      -13.7455167560  CLST         676          1.0000000000
      2028       676  TIP3  H2          -13.1654727941       -0.0454683367      -12.7057654945  CLST         676          1.0000000000
      2029       677  TIP3  OH2           1.6831270196      -12.0365207329        2.3310416533  CLST         677          1.0000000000
      2030       677  TIP3  H1            1.9196287771      -12.2857800188        1.4073650056  CLST         677          1.0000000000
      2031       677  TIP3  H2            1.2919394936      -12.9899363350        2.5232294952  CLST         677          1.0000000000
      2032       678  TIP3  OH2          11.4401639957       -7.0044112568       -8.4169778540  CLST         678          1.0000000000
      2033       678  TIP3  H1           12.5501127817       -7.0789757634       -8.7958074177  CLST         678          1.0000000000
      2034       678  TIP3  H2           11.6519856516       -6.1922374781       -8.7717368283  CLST         678          1.0000000000
      2035       679  TIP3  OH2           7.5667370007       -9.9217164155      -14.1048839660  CLST         679          1.0000000000
      2036       679  TIP3  H1            7.5096515154       -9.1670425841      -14.7224329947  CLST         679          1.0000000000
      2037       679  TIP3  H2            6.5563399981      -10.0296848831      -14.2221315917  CLST         679          1.0000000000
      2038       680  TIP3  OH2           9.6685525361       -8.3549390417       -1.7776477333  CLST         680          1.0000000000
      2039       680  TIP3  H1            9.6864230028       -9.3796630745       -1.7724510420  CLST         680          1.0000000000
      2040       680  TIP3  H2            9.3458715557       -8.3772626843       -2.7211936738  CLST         680          1.0000000000
      2041       681  TIP3  OH2           7.4827703295        9.4008557758       11.2174763438  CLST         681          1.0000000000
      2042       681  TIP3  H1            7.3758972261        8.4324483857       10.9938014852  CLST         681          1.0000000000
      2043       681  TIP3  H2            8.3777152253        9.3279138856       10.7658589472  CLST         681          1.0000000000
      2044       682  TIP3  OH2           7.8801453148       14.0067301676        1.8762900858  CLST         682          1.0000000000
      2045       682  TIP3  H1            7.2513550623       13.7810673472        1.2461700927  CLST         682          1.0000000000
      2046       682  TIP3  H2            7.3725932529       14.5896884879        2.3880907782  CLST         682          1.0000000000
      2047       683  TIP3  OH2           3.3466907096       11.5772394088      -14.8831420555  CLST         683          1.0000000000
      2048       683  TIP3  H1            2.9558729852       11.8018989077      -14.0200646567  CLST         683          1.0000000000
      2049       683  TIP3  H2            3.5503642764       10.7195378516      -14.5608728753  CLST         683          1.0000000000
      2050       684  TIP3  OH2          12.6651278329        2.8960437513      -12.3113228818  CLST         684          1.0000000000
      2051       684  TIP3  H1           12.2120207407        2.7113670794      -11.5862131180  CLST         684          1.0000000000
      2052       684  TIP3  H2           13.0908660885        3.1111886889      -11.2406394243  CLST         684          1.0000000000
      2053       685  TIP3  OH2           3.9252213951       13.2869013106        2.1027434724  CLST         685          1.0000000000
      2054       685  TIP3  H1            4.0949109692       12.2854905471        2.0092291217  CLST         685          1.0000000000
      2055       685  TIP3  H2            3.2056352170       13.1915727249        1.4364335717  CLST         685          1.0000000000
      2056       686  TIP3  OH2          -1.9512484455      -11.8607776682       -5.6646126799  CLST         686          1.0000000000
      2057       686  TIP3  H1           -1.7891358391      -12.2759452751       -4.8753909712  CLST         686          1.0000000000
      2058       686  TIP3  H2           -2.7195412548      -12.6502771593       -6.0885425508  CLST         686          1.0000000000
      2059       687  TIP3  OH2           2.1787907185       11.1121508021       -5.4215375638  CLST         687          1.0000000000
      2060       687  TIP3  H1            2.3695582713       11.0930862256       -4.4166857951  CLST         687          1.0000000000
      2061       687  TIP3  H2            2.9698409196       11.8110834453       -4.9068160023  CLST         687          1.0000000000
      2062       688  TIP3  OH2          -5.0699014974       -0.9098015242      -10.4129607896  CLST         688          1.0000000000
      2063       688  TIP3  H1           -4.2893876155       -0.8000921629       -9.5761529423  CLST         688          1.0000000000
      2064       688  TIP3  H2           -3.8978223092       -0.7936185202      -10.4992240905  CLST         688          1.0000000000
      2065       689  TIP3  OH2         -11.6525694043       -2.6384130069       -7.4120684997  CLST         689          1.0000000000
      2066       689  TIP3  H1          -12.2767182042       -2.2877612230       -6.7085932462  CLST         689          1.0000000000
      2067       689  TIP3  H2          -12.2367901535       -2.3547729072       -8.1794908095  CLST         689          1.0000000000
      2068       690  TIP3  OH2           9.1806278517      -12.4440290340        3.8953446836  CLST         690          1.0000000000
      2069       690  TIP3  H1            9.7553981001      -12.3361365142        4.7211418020  CLST         690          1.0000000000
      2070       690  TIP3  H2            9.6585676098      -11.6485200952        3.5538497452  CLST         690          1.0000000000
      2071       691  TIP3  OH2          -0.8165241601       10.0584670451       13.7385013869  CLST         691          1.0000000000
      2072       691  TIP3  H1           -0.2624649053       10.6331500016       13.7890041341  CLST         691          1.0000000000
      2073       691  TIP3  H2            0.1291433887       10.3603573960       14.6466015363  CLST         691          1.0000000000
      2074       692  TIP3  OH2           1.4495954467       -6.7847563181        8.6862824355  CLST         692          1.0000000000
      2075       692  TIP3  H1            0.4894184955       -6.5720729305        8.6270945308  CLST         692          1.0000000000
      2076       692  TIP3  H2            1.4637958355       -5.8308256602        9.0257891564  CLST         692          1.0000000000
      2077       693  TIP3  OH2          -9.1750849839       -4.1603763259       -2.7239052526  CLST         693          1.0000000000
      2078       693  TIP3  H1           -8.2899071797       -4.2504319008       -2.1966796675  CLST         693          1.0000000000
      2079       693  TIP3  H2           -8.7675995424       -3.4588359199       -3.2232962328  CLST         693          1.0000000000
      2080       694  TIP3  OH2          -1.6538420965       11.5174313782        5.6090804517  CLST         694          1.0000000000
      2081       694  TIP3  H1           -2.2408815538       12.2530942042        5.5670947939  CLST         694          1.0000000000
      2082       694  TIP3  H2           -0.9160929450       12.0984047559        5.5710766545  CLST         694          1.0000000000
      2083       695  TIP3  OH2           1.7494392986       10.4006729533        7.6996086189  CLST         695          1.0000000000
      2084       695  TIP3  H1            1.2314213423       10.1040578046        6.9863349412  CLST         695          1.0000000000
      2085       695  TIP3  H2            1.2169278992        9.9329232094        8.3727316024  CLST         695          1.0000000000
      2086       696  TIP3  OH2          -4.3289400587        3.1177678456       -6.0934464228  CLST         696          1.0000000000
      2087       696  TIP3  H1           -3.8763920648        3.8928269934       -6.2577522723  CLST         696          1.0000000000
      2088       696  TIP3  H2           -4.5638532770        3.4311118902       -5.2103713315  CLST         696          1.0000000000
      2089       697  TIP3  OH2           2.6087086542        5.5893747607       11.8959582949  CLST         697          1.0000000000
      2090       697  TIP3  H1            1.9357191485        5.5755905796       10.7637429102  CLST         697          1.0000000000
      2091       697  TIP3  H2            2.9709908218        5.3219952960       11.1631793665  CLST         697          1.0000000000
      2092       698  TIP3  OH2          -3.5825348000        5.0981188759       -1.0368601651  CLST         698          1.0000000000
      2093       698  TIP3  H1           -3.8987968164        4.0927883333       -1.3226582880  CLST         698          1.0000000000
      2094       698  TIP3  H2           -4.6517513400        5.0138652789       -1.4070510100  CLST         698          1.0000000000
      2095       699  TIP3  OH2          -1.3649836543       -4.5460198790        3.5321150091  CLST         699          1.0000000000
      2096       699  TIP3  H1           -2.3191816170       -4.4517531201        3.4012529122  CLST         699          1.0000000000
      2097       699  TIP3  H2           -1.0504890851       -4.7645480062        2.5736375169  CLST         699          1.0000000000
      2098       700  TIP3  OH2          -5.2575498576       -8.2399147444        8.9252168307  CLST         700          1.0000000000
      2099       700  TIP3  H1           -5.1145779992       -7.5163965464        8.2721730139  CLST         700          1.0000000000
      2100       700  TIP3  H2           -4.4325927417       -8.7382015759        8.6580680231  CLST         700          1.0000000000
      2101       701  TIP3  OH2         -13.8870628639       10.3678256681        0.1655205913  CLST         701          1.0000000000
      2102       701  TIP3  H1          -13.5237784682        9.5350991882       -0.4398014229  CLST         701          1.0000000000
      2103       701  TIP3  H2          -14.7039356071       10.3766460745       -0.2842905235  CLST         701          1.0000000000
      2104       702  TIP3  OH2          -5.6198430953       -9.6806052961      -12.5207562822  CLST         702          1.0000000000
      2105       702  TIP3  H1           -5.4066147546       -9.6772707333      -11.5287568401  CLST         702          1.0000000000
      2106       702  TIP3  H2           -6.6064658243       -9.5446834602      -12.2864098795  CLST         702          1.0000000000
      2107       703  TIP3  OH2           3.8360907490        6.0953280836       -4.2380868125  CLST         703          1.0000000000
      2108       703  TIP3  H1            2.7654754933        6.0358958527       -3.9493507834  CLST         703          1.0000000000
      2109       703  TIP3  H2            3.4100121319        7.0929618535       -3.8896156824  CLST         703          1.0000000000
      2110       704  TIP3  OH2          -9.9288127456        5.1207697881       11.9165771101  CLST         704          1.0000000000
      2111       704  TIP3  H1          -10.2158855193        5.8402042983       12.5205765784  CLST         704          1.0000000000
      2112       704  TIP3  H2           -9.9817764272        5.8249736215       11.2314542150  CLST         704          1.0000000000
      2113       705  TIP3  OH2          -0.7652379642       -8.9300902932       -7.1130840026  CLST         705          1.0000000000
      2114       705  TIP3  H1           -0.8382986718       -9.7275609231       -7.6176688236  CLST         705          1.0000000000
      2115       705  TIP3  H2           -0.4516882141       -8.4551527697       -7.8603279130  CLST         705          1.0000000000
      2116       706  TIP3  OH2          -1.9897311472       -1.8253513605        4.5652926720  CLST         706          1.0000000000
      2117       706  TIP3  H1           -1.3537237826       -1.1418318061        4.8666239074  CLST         706          1.0000000000
      2118       706  TIP3  H2           -1.2264450664       -2.4527754076        4.5165153589  CLST         706          1.0000000000
      2119       707  TIP3  OH2           8.5484099440       10.9721512576        7.3643790033  CLST         707          1.0000000000
      2120       707  TIP3  H1            8.1875013510       11.1048992274        6.4416286734  CLST         707          1.0000000000
      2121       707  TIP3  H2            7.8668380320       10.1980030331        7.3306339597  CLST         707          1.0000000000
      2122       708  TIP3  OH2          -1.0920120581       -7.7810126437      -12.6262943368  CLST         708          1.0000000000
      2123       708  TIP3  H1           -2.0132111401       -8.0568708893      -13.0483482053  CLST         708          1.0000000000
      2124       708  TIP3  H2           -1.0745129781       -7.3026266825      -13.4785244078  CLST         708          1.0000000000
      2125       709  TIP3  OH2          -6.2238542268       14.2032606713        0.8716239444  CLST         709          1.0000000000
      2126       709  TIP3  H1           -5.1837749127       14.1035642877        0.9382892876  CLST         709          1.0000000000
      2127       709  TIP3  H2           -6.3240528598       14.0402981002        1.8846704823  CLST         709          1.0000000000
      2128       710  TIP3  OH2          -0.8429511173       14.0568906512      -10.8740746731  CLST         710          1.0000000000
      2129       710  TIP3  H1           -0.2764055987       13.9396142739      -11.6353138353  CLST         710          1.0000000000
      2130       710  TIP3  H2           -1.2232715137       13.1418575741      -11.0966024756  CLST         710          1.0000000000
      2131       711  TIP3  OH2          11.7762610830      -11.8821765698      -10.9610636008  CLST         711          1.0000000000
      2132       711  TIP3  H1           11.9661284537      -13.1055758427      -11.0874706947  CLST         711          1.0000000000
      2133       711  TIP3  H2           11.8779857378      -11.3436518042      -12.0604423430  CLST         711          1.0000000000
      2134       712  TIP3  OH2          -3.6561390179      -10.8216575055       11.7482223370  CLST         712          1.0000000000
      2135       712  TIP3  H1           -4.2514612774      -10.6200530595       10.9798678299  CLST         712          1.0000000000
      2136       712  TIP3  H2           -2.9386660755      -10.3761981928       11.2694034292  CLST         712          1.0000000000
      2137       713  TIP3  OH2           7.1288959863        0.0754422232        6.4486497535  CLST         713          1.0000000000
      2138       713  TIP3  H1            7.5145503135        0.2932185538        7.2542673204  CLST         713          1.0000000000
      2139       713  TIP3  H2            7.7728351830       -0.6226655028        6.2597914824  CLST         713          1.0000000000
      2140       714  TIP3  OH2           4.8722858092       12.4227077874        4.6124189001  CLST         714          1.0000000000
      2141       714  TIP3  H1            4.4285188612       12.7896176844        3.8751154417  CLST         714          1.0000000000
      2142       714  TIP3  H2            4.0875516325       12.6430657151        5.1466606558  CLST         714          1.0000000000
      2143       715  TIP3  OH2          -9.0818406284       -9.4956745187        1.5935176366  CLST         715          1.0000000000
      2144       715  TIP3  H1           -9.6790621412       -8.8156431736        1.9872363447  CLST         715          1.0000000000
      2145       715  TIP3  H2           -9.5779921569      -10.1709312140        2.0724322697  CLST         715          1.0000000000
      2146       716  TIP3  OH2         -13.7533446471      -13.4698347411        0.1754605896  CLST         716          1.0000000000
      2147       716  TIP3  H1          -14.2912171598      -14.0411707992       -0.3858798857  CLST         716          1.0000000000
      2148       716  TIP3  H2          -13.8511002213      -12.8509967244       -0.6508633820  CLST         716          1.0000000000
      2149       717  TIP3  OH2          -5.9717310419      -12.1511404335        2.4082776099  CLST         717          1.0000000000
      2150       717  TIP3  H1           -6.2129111598      -11.4437672978        1.7785399010  CLST         717          1.0000000000
      2151       717  TIP3  H2           -6.8831482135      -12.4665526332        2.2660527063  CLST         717          1.0000000000
      2152       718  TIP3  OH2         -10.9334446135        7.4722640667       13.2892164905  CLST         718          1.0000000000
      2153       718  TIP3  H1          -11.5876424692        8.1952838933       13.6212508588  CLST         718          1.0000000000
      2154       718  TIP3  H2          -10.1135423995        8.0276129528       13.4111972587  CLST         718          1.0000000000
      2155       719  TIP3  OH2          10.3481357052       -7.2327489286        2.9568460236  CLST         719          1.0000000000
      2156       719  TIP3  H1           11.2561461169       -6.9455542638        3.2250766272  CLST         719          1.0000000000
      2157       719  TIP3  H2           10.6780888673       -7.0626555173        1.9971498715  CLST         719          1.0000000000
      2158       720  TIP3  OH2          -4.8766365384       13.1272273216       -8.3567018721  CLST         720          1.0000000000
      2159       720  TIP3  H1           -3.8704289112       13.1128501261       -8.4433318744  CLST         720          1.0000000000
      2160       720  TIP3  H2           -4.8070139036       13.6263970730       -7.5070583183  CLST         720          1.0000000000
      2161       721  TIP3  OH2           4.0501364372       -5.9286593481      -10.0362317460  CLST         721          1.0000000000
      2162       721  TIP3  H1            3.9860269757       -5.6328567423       -9.0823977548  CLST         721          1.0000000000
      2163       721  TIP3  H2            4.7895213604       -6.4825058013       -9.7309770301  CLST         721          1.0000000000
      2164       722  TIP3  OH2          10.3692737617       -2.5357978862        2.1158967536  CLST         722          1.0000000000
      2165       722  TIP3  H1            9.8769919086       -3.0413649411        1.4488957388  CLST         722          1.0000000000
      2166       722  TIP3  H2           11.2921316694       -2.7419788875        1.8526171935  CLST         722          1.0000000000
      2167       723  TIP3  OH2           0.3191580584       13.4103693123        6.0395229875  CLST         723          1.0000000000
      2168       723  TIP3  H1            0.8166440045       14.1047541552        5.4739416505  CLST         723          1.0000000000
      2169       723  TIP3  H2            1.3825574575       13.1111004415        6.1528372844  CLST         723          1.0000000000
      2170       724  TIP3  OH2           8.4252769210       -8.4788683361       -4.1099066151  CLST         724          1.0000000000
      2171       724  TIP3  H1            8.5081000786       -9.1213856730       -5.1311200660  CLST         724          1.0000000000
      2172       724  TIP3  H2            8.1209380003       -7.8570830236       -4.7532353261  CLST         724          1.0000000000
      2173       725  TIP3  OH2          -0.8724551015       -0.3870707686        2.3185718890  CLST         725          1.0000000000
      2174       725  TIP3  H1           -1.7349137940       -0.7326108236        2.5722189451  CLST         725          1.0000000000
      2175       725  TIP3  H2           -1.4029801884        0.4173553128        2.0302711439  CLST         725          1.0000000000
      2176       726  TIP3  OH2         -13.9880755177       10.6096300563        6.0209811697  CLST         726          1.0000000000
      2177       726  TIP3  H1          -14.9366534315       10.7805631912        5.8620585588  CLST         726          1.0000000000
      2178       726  TIP3  H2          -13.6645250988       11.5164337347        5.7957063867  CLST         726          1.0000000000
      2179       727  TIP3  OH2          -4.2890338422      -13.5642644816       -0.4356478845  CLST         727          1.0000000000
      2180       727  TIP3  H1           -3.7841993823      -13.9901553910        0.2748993815  CLST         727          1.0000000000
      2181       727  TIP3  H2           -4.0062737596      -12.6873778448       -0.1289538610  CLST         727          1.0000000000
      2182       728  TIP3  OH2          -8.1465897084        3.1610542930       -0.8408656574  CLST         728          1.0000000000
      2183       728  TIP3  H1           -7.6934225597        2.5168671294       -0.2464519450  CLST         728          1.0000000000
      2184       728  TIP3  H2           -8.9535106564        2.6797027043       -0.8919415830  CLST         728          1.0000000000
      2185       729  TIP3  OH2          10.4203489468      -10.3888345505        2.7064054002  CLST         729          1.0000000000
      2186       729  TIP3  H1           10.6185550538       -9.5379672797        3.0838972358  CLST         729          1.0000000000
      2187       729  TIP3  H2           11.3639055656      -10.4768872633        2.4804333632  CLST         729          1.0000000000
      2188       730  TIP3  OH2          -4.2471367957       10.8136091688       -5.3528200850  CLST         730          1.0000000000
      2189       730  TIP3  H1           -4.1967417985        9.9170714767       -5.7685608269  CLST         730          1.0000000000
      2190       730  TIP3  H2           -5.1728077979       10.8586343924       -5.4703773019  CLST         730          1.0000000000
      2191       731  TIP3  OH2          13.0856665121       12.4699589322       -4.4601970620  CLST         731          1.0000000000
      2192       731  TIP3  H1           13.7459854067       12.7787484362       -5.0425577990  CLST         731          1.0000000000
      2193       731  TIP3  H2           12.8190323711       11.7141986825       -5.0121617524  CLST         731          1.0000000000
      2194       732  TIP3  OH2          -2.6828750434       -1.2986658454       -2.0619623670  CLST         732          1.0000000000
      2195       732  TIP3  H1           -3.4225297997       -1.2619662512       -1.3416468374  CLST         732          1.0000000000
      2196       732  TIP3  H2           -3.7670535527       -0.7884114151       -2.3544802345  CLST         732          1.0000000000
      2197       733  TIP3  OH2           5.4211105370        2.5088168939       12.8705327002  CLST         733          1.0000000000
      2198       733  TIP3  H1            5.1859769048        1.6692863335       12.5619938922  CLST         733          1.0000000000
      2199       733  TIP3  H2            4.5096705651        2.6162048020       13.0602112015  CLST         733          1.0000000000
      2200       734  TIP3  OH2           8.4933661927       -2.0475192239        5.9460873830  CLST         734          1.0000000000
      2201       734  TIP3  H1            8.3350414569       -2.7857743027        5.3284082069  CLST         734          1.0000000000
      2202       734  TIP3  H2            9.4898965381       -2.1432245673        5.8365757777  CLST         734          1.0000000000
      2203       735  TIP3  OH2         -10.8134603313      -12.5094165547        1.0500137695  CLST         735          1.0000000000
      2204       735  TIP3  H1          -10.9305486992      -11.9516867379        1.9090865481  CLST         735          1.0000000000
      2205       735  TIP3  H2          -11.7630773635      -12.6894797356        0.9023495918  CLST         735          1.0000000000
      2206       736  TIP3  OH2          13.4106431252        2.5443516904        2.9019217650  CLST         736          1.0000000000
      2207       736  TIP3  H1           13.5726232960        2.1420180677        1.7729418067  CLST         736          1.0000000000
      2208       736  TIP3  H2           13.0427437159        1.8847663120        2.5774404713  CLST         736          1.0000000000
      2209       737  TIP3  OH2          11.5185514430       -2.0660875870        8.0890448244  CLST         737          1.0000000000
      2210       737  TIP3  H1           11.5384918595       -2.2766733776        7.1326225923  CLST         737          1.0000000000
      2211       737  TIP3  H2           11.5737613223       -1.1431980876        7.7982848132  CLST         737          1.0000000000
      2212       738  TIP3  OH2          10.4792840687        1.0502036792       14.1180267093  CLST         738          1.0000000000
      2213       738  TIP3  H1            9.5570889062        0.9695780924       14.2743171096  CLST         738          1.0000000000
      2214       738  TIP3  H2           10.5677396160        0.1429410652       14.4687339865  CLST         738          1.0000000000
      2215       739  TIP3  OH2         -13.5778290675        1.5007294408       10.2965128087  CLST         739          1.0000000000
      2216       739  TIP3  H1          -14.3374355294        1.5814313243       10.9115408358  CLST         739          1.0000000000
      2217       739  TIP3  H2          -13.8124023931        0.6689398130        9.9243518537  CLST         739          1.0000000000
      2218       740  TIP3  OH2           5.9733855656      -13.9780301283       -4.9710003661  CLST         740          1.0000000000
      2219       740  TIP3  H1            5.6461094984      -14.9366534315       -5.5242326233  CLST         740          1.0000000000
      2220       740  TIP3  H2            6.5460986167      -14.5956264335       -5.2456127548  CLST         740          1.0000000000
      2221       741  TIP3  OH2          11.5216708719        5.0919394561        9.2610833094  CLST         741          1.0000000000
      2222       741  TIP3  H1           12.1589556551        4.7565115661        9.7289450220  CLST         741          1.0000000000
      2223       741  TIP3  H2           11.7481966639        3.9581944281        9.3647300652  CLST         741          1.0000000000
      2224       742  TIP3  OH2           8.2436112683       -9.5566065784       -6.3537606648  CLST         742          1.0000000000
      2225       742  TIP3  H1            8.5103252920      -10.4344849576       -6.6765386536  CLST         742          1.0000000000
      2226       742  TIP3  H2            7.5113955191       -9.7795593114       -7.0401823244  CLST         742          1.0000000000
      2227       743  TIP3  OH2          -7.3593216124       -0.3382316979      -10.7425049334  CLST         743          1.0000000000
      2228       743  TIP3  H1           -7.0303954164        0.4308637531      -10.4413880729  CLST         743          1.0000000000
      2229       743  TIP3  H2           -6.3137839082       -0.8061578943      -10.5134591847  CLST         743          1.0000000000
      2230       744  TIP3  OH2          -6.1920130386        3.5591185078        5.4077406487  CLST         744          1.0000000000
      2231       744  TIP3  H1           -5.3546823643        3.2988076952        5.8744912363  CLST         744          1.0000000000
      2232       744  TIP3  H2           -6.1348132170        4.5018757858        5.6796312281  CLST         744          1.0000000000
      2233       745  TIP3  OH2           0.3406290806       -8.3347178672        6.8297642117  CLST         745          1.0000000000
      2234       745  TIP3  H1            1.0654327183       -8.6964701476        6.7439280005  CLST         745          1.0000000000
      2235       745  TIP3  H2            0.5553384132       -8.7882708685        7.5256687884  CLST         745          1.0000000000
      2236       746  TIP3  OH2          -7.6853067391       -4.5914174468       -5.7781588203  CLST         746          1.0000000000
      2237       746  TIP3  H1           -7.9885395004       -5.4005272376       -6.2596709852  CLST         746          1.0000000000
      2238       746  TIP3  H2           -8.0100803543       -3.9639141824       -6.4114908483  CLST         746          1.0000000000
      2239       747  TIP3  OH2          11.2510817054       12.0145496748        2.1127850765  CLST         747          1.0000000000
      2240       747  TIP3  H1           10.8336807781       12.3829176161        3.0914856311  CLST         747          1.0000000000
      2241       747  TIP3  H2           11.4156138850       11.5610586854        3.0066052913  CLST         747          1.0000000000
      2242       748  TIP3  OH2           3.5445180153        4.9260581015        8.6214034034  CLST         748          1.0000000000
      2243       748  TIP3  H1            4.2380604227        4.9557424591        9.3172104215  CLST         748          1.0000000000
      2244       748  TIP3  H2            3.9303459090        5.7030639202        8.2767451675  CLST         748          1.0000000000
      2245       749  TIP3  OH2          10.9865128039        9.4916295900        6.2880445864  CLST         749          1.0000000000
      2246       749  TIP3  H1           10.8007415642        9.0210650098        7.1123033065  CLST         749          1.0000000000
      2247       749  TIP3  H2           10.0024537901        9.8813030891        6.8379943799  CLST         749          1.0000000000
      2248       750  TIP3  OH2         -13.8907113256       12.2386914038       -7.5401015730  CLST         750          1.0000000000
      2249       750  TIP3  H1          -14.7106245520       11.7671902640       -8.0062508062  CLST         750          1.0000000000
      2250       750  TIP3  H2          -13.8013649836       12.0514214585       -8.7216615492  CLST         750          1.0000000000
      2251       751  TIP3  OH2           8.4748554398        4.2826282427       -4.3152755856  CLST         751          1.0000000000
      2252       751  TIP3  H1            7.7729356171        3.5951394596       -4.6834769656  CLST         751          1.0000000000
      2253       751  TIP3  H2            9.0430305668        3.5747211167       -4.1825872508  CLST         751          1.0000000000
      2254       752  TIP3  OH2         -12.0922577073       13.2368942793        2.2486004864  CLST         752          1.0000000000
      2255       752  TIP3  H1          -12.4656152246       13.2167650058        1.1067057655  CLST         752          1.0000000000
      2256       752  TIP3  H2          -12.1066540867       12.2043451419        2.0309456337  CLST         752          1.0000000000
      2257       753  TIP3  OH2           8.5830356285        2.4676746862       -7.0319505828  CLST         753          1.0000000000
      2258       753  TIP3  H1            8.3638444411        3.2970409182       -7.5936046564  CLST         753          1.0000000000
      2259       753  TIP3  H2            7.8863268586        2.6860014035       -6.3895810704  CLST         753          1.0000000000
      2260       754  TIP3  OH2          11.3849626781        2.3875510761       -6.0861647352  CLST         754          1.0000000000
      2261       754  TIP3  H1           11.0298886825        2.0776983740       -5.2153733945  CLST         754          1.0000000000
      2262       754  TIP3  H2           10.4926948316        2.5018072719       -6.3883085743  CLST         754          1.0000000000
      2263       755  TIP3  OH2           7.6632874130       -1.7929808884       -0.1860550247  CLST         755          1.0000000000
      2264       755  TIP3  H1            6.8568908014       -2.2324770712        0.0439625459  CLST         755          1.0000000000
      2265       755  TIP3  H2            7.4343291180       -0.9600933041        0.2232085676  CLST         755          1.0000000000
      2266       756  TIP3  OH2         -12.7353647157        6.4371767156        5.7768933080  CLST         756          1.0000000000
      2267       756  TIP3  H1          -12.8690202223        5.5467507049        5.6590554363  CLST         756          1.0000000000
      2268       756  TIP3  H2          -12.3918993892        6.2935619375        6.7020126739  CLST         756          1.0000000000
      2269       757  TIP3  OH2          -4.5510696048       -5.0555779447       -2.3108735813  CLST         757          1.0000000000
      2270       757  TIP3  H1           -3.8964155657       -5.1216943535       -3.1068673992  CLST         757          1.0000000000
      2271       757  TIP3  H2           -4.9918307234       -4.4084999581       -2.8610613020  CLST         757          1.0000000000
      2272       758  TIP3  OH2          11.9713406146        4.3714001412       -0.9290720415  CLST         758          1.0000000000
      2273       758  TIP3  H1           12.0836862143        4.9316528187        0.1521978377  CLST         758          1.0000000000
      2274       758  TIP3  H2           12.5725459530        3.8573572148       -0.4892201261  CLST         758          1.0000000000
      2275       759  TIP3  OH2          -7.7545898870       11.6934716464      -11.1472545110  CLST         759          1.0000000000
      2276       759  TIP3  H1           -7.3096037799       11.8750798557      -11.9313224307  CLST         759          1.0000000000
      2277       759  TIP3  H2           -7.0927482862       11.0753200238      -10.9403072516  CLST         759          1.0000000000
      2278       760  TIP3  OH2           8.0011214475       14.4923069115       -6.2120425083  CLST         760          1.0000000000
      2279       760  TIP3  H1            8.4274367224       14.7238400146       -7.0210040068  CLST         760          1.0000000000
      2280       760  TIP3  H2            7.8284314908       13.5979566478       -6.4579027365  CLST         760          1.0000000000
      2281       761  TIP3  OH2          -6.9864386549        8.1872648698      -11.4915590381  CLST         761          1.0000000000
      2282       761  TIP3  H1           -7.8538866118        8.0842520891      -11.7807012134  CLST         761          1.0000000000
      2283       761  TIP3  H2           -7.2684059496        8.1778161865      -10.5924772342  CLST         761          1.0000000000
      2284       762  TIP3  OH2           7.7096318003       -6.0716982615      -12.9052051216  CLST         762          1.0000000000
      2285       762  TIP3  H1            7.3474000753       -6.6268964943      -12.1592253626  CLST         762          1.0000000000
      2286       762  TIP3  H2            7.3718439413       -5.2816633798      -12.3864871859  CLST         762          1.0000000000
      2287       763  TIP3  OH2          -0.8874335180       -6.0987928707        8.7786038285  CLST         763          1.0000000000
      2288       763  TIP3  H1           -1.1020192758       -5.1780488289        8.5140691011  CLST         763          1.0000000000
      2289       763  TIP3  H2           -1.5016374223       -6.0907918609        9.5272694191  CLST         763          1.0000000000
      2290       764  TIP3  OH2           8.9285119738      -11.4143229584        0.7208635349  CLST         764          1.0000000000
      2291       764  TIP3  H1            8.2187547299      -10.6959662123        0.6586217959  CLST         764          1.0000000000
      2292       764  TIP3  H2            9.4616635729      -10.9986915003        1.4452240040  CLST         764          1.0000000000
      2293       765  TIP3  OH2         -14.5165973709      -12.1568988480       13.1221763008  CLST         765          1.0000000000
      2294       765  TIP3  H1          -13.7155085975      -11.5808281960       13.1226845416  CLST         765          1.0000000000
      2295       765  TIP3  H2          -14.9366534315      -11.2550582650       13.1670497644  CLST         765          1.0000000000
      2296       766  TIP3  OH2          11.5860659070       -8.2845644080      -11.9212018735  CLST         766          1.0000000000
      2297       766  TIP3  H1           11.0857572875       -8.1871029866      -12.7841897221  CLST         766          1.0000000000
      2298       766  TIP3  H2           10.8497977295       -8.9704454125      -11.7936935932  CLST         766          1.0000000000
      2299       767  TIP3  OH2           2.3363560041       12.3522732154      -12.7142800860  CLST         767          1.0000000000
      2300       767  TIP3  H1            2.8518140020       12.1630969872      -11.9450305157  CLST         767          1.0000000000
      2301       767  TIP3  H2            2.2213654338       13.2499955087      -12.4673353121  CLST         767          1.0000000000
      2302       768  TIP3  OH2           7.7044133099        7.1085730194        8.4459281587  CLST         768          1.0000000000
      2303       768  TIP3  H1            8.7010224455        7.2231040819        8.5601195436  CLST         768          1.0000000000
      2304       768  TIP3  H2            7.8231076696        6.2075334638        8.4041696557  CLST         768          1.0000000000
      2305       769  TIP3  OH2         -11.7740947945        3.1371549086        0.9547573178  CLST         769          1.0000000000
      2306       769  TIP3  H1          -11.0815186825        2.8243301490        1.7621680732  CLST         769          1.0000000000
      2307       769  TIP3  H2          -12.2653327841        3.0228870495        1.9240650557  CLST         769          1.0000000000
      2308       770  TIP3  OH2          10.2184715185       -4.7673429489       11.3819503412  CLST         770          1.0000000000
      2309       770  TIP3  H1           10.0234372811       -4.0006564136       10.9130859969  CLST         770          1.0000000000
      2310       770  TIP3  H2           10.9539244984       -4.9118039955       10.8005722768  CLST         770          1.0000000000
      2311       771  TIP3  OH2         -10.4571517576        1.1003871044       -5.5678644971  CLST         771          1.0000000000
      2312       771  TIP3  H1           -9.5918695537        1.3148783813       -5.8932843433  CLST         771          1.0000000000
      2313       771  TIP3  H2          -10.2925962869        1.7661795893       -4.8538622982  CLST         771          1.0000000000
      2314       772  TIP3  OH2          12.9862793546      -12.5367064262       -6.7377049874  CLST         772          1.0000000000
      2315       772  TIP3  H1           12.8685718926      -11.6416424448       -6.5662516114  CLST         772          1.0000000000
      2316       772  TIP3  H2           12.2145723906      -12.6742026037       -6.1871712711  CLST         772          1.0000000000
      2317       773  TIP3  OH2          12.0590086205       -4.8853134415        3.5141847210  CLST         773          1.0000000000
      2318       773  TIP3  H1           11.9998518228       -4.2245489272        4.2092186624  CLST         773          1.0000000000
      2319       773  TIP3  H2           12.6356893386       -4.4315509069        2.9083398832  CLST         773          1.0000000000
      2320       774  TIP3  OH2          -7.7310360757       -0.2122329505       -5.7654802655  CLST         774          1.0000000000
      2321       774  TIP3  H1           -6.9025901763       -0.0121007049       -5.9465839986  CLST         774          1.0000000000
      2322       774  TIP3  H2           -7.1291070706        0.8360995674       -5.6407580405  CLST         774          1.0000000000
      2323       775  TIP3  OH2           2.6621568048        1.6105188140        5.4023968348  CLST         775          1.0000000000
      2324       775  TIP3  H1            2.7598435819        1.7655165525        6.3494998675  CLST         775          1.0000000000
      2325       775  TIP3  H2            2.8708585805        2.5201349652        5.3030914193  CLST         775          1.0000000000
      2326       776  TIP3  OH2           0.1344996117        9.6572458412        5.6925301609  CLST         776          1.0000000000
      2327       776  TIP3  H1           -0.5551220507       10.3807697578        5.5519667555  CLST         776          1.0000000000
      2328       776  TIP3  H2           -0.5972578777        9.0618793925        5.7035773007  CLST         776          1.0000000000
      2329       777  TIP3  OH2         -13.0995740108      -10.1988073606        0.0691782529  CLST         777          1.0000000000
      2330       777  TIP3  H1          -12.7256203800       -9.2636918843        0.0034653774  CLST         777          1.0000000000
      2331       777  TIP3  H2          -13.1287102438       -9.8497718545        1.0290103398  CLST         777          1.0000000000
      2332       778  TIP3  OH2         -11.6242518878        5.7225380551       -0.3952061121  CLST         778          1.0000000000
      2333       778  TIP3  H1          -11.9262606737        4.9025135490       -0.0891221376  CLST         778          1.0000000000
      2334       778  TIP3  H2          -11.4691701726        5.3738262565       -1.2651598060  CLST         778          1.0000000000
      2335       779  TIP3  OH2          -5.9745818363        5.3010099165       -1.6789174914  CLST         779          1.0000000000
      2336       779  TIP3  H1           -6.9007404141        5.0831470103       -1.5933895477  CLST         779          1.0000000000
      2337       779  TIP3  H2           -6.1944745357        6.0808144094       -1.1715564943  CLST         779          1.0000000000
      2338       780  TIP3  OH2           2.5477950409       13.9467565820       -8.6227799752  CLST         780          1.0000000000
      2339       780  TIP3  H1            2.1139482372       14.7396904932       -9.1450055005  CLST         780          1.0000000000
      2340       780  TIP3  H2            2.9763943245       14.1433702723       -9.7357795121  CLST         780          1.0000000000
      2341       781  TIP3  OH2           9.1208974683       -8.7927545879       -9.6614578901  CLST         781          1.0000000000
      2342       781  TIP3  H1           10.0040249019       -8.5926401816       -9.4464374151  CLST         781          1.0000000000
      2343       781  TIP3  H2            9.3719232011       -9.7251730972       -9.5361682148  CLST         781          1.0000000000
      2344       782  TIP3  OH2           0.1648854953        2.5893514940        4.3771588716  CLST         782          1.0000000000
      2345       782  TIP3  H1           -0.4035524517        1.8381280994        4.6647258828  CLST         782          1.0000000000
      2346       782  TIP3  H2            0.9028771639        2.1414168585        4.6858243382  CLST         782          1.0000000000
      2347       783  TIP3  OH2          -7.2173576867      -12.5136754973      -13.3422771457  CLST         783          1.0000000000
      2348       783  TIP3  H1           -7.9976696281      -12.2564117841      -12.8143526638  CLST         783          1.0000000000
      2349       783  TIP3  H2           -7.6342436669      -12.2843163148      -14.1858363463  CLST         783          1.0000000000
      2350       784  TIP3  OH2          14.3965367658        5.1483263885       -4.1225807985  CLST         784          1.0000000000
      2351       784  TIP3  H1           14.9366534315        5.8416135792       -4.4539948237  CLST         784          1.0000000000
      2352       784  TIP3  H2           13.7272455164        5.6760834082       -3.7520244627  CLST         784          1.0000000000
      2353       785  TIP3  OH2          10.6144980530        8.1978273681        0.7671277874  CLST         785          1.0000000000
      2354       785  TIP3  H1           10.8684624901        8.6544419562        1.4950570700  CLST         785          1.0000000000
      2355       785  TIP3  H2           11.4572177440        8.3412578288        0.2839587701  CLST         785          1.0000000000
      2356       786  TIP3  OH2          12.5302582543        3.4961243532       12.4981285381  CLST         786          1.0000000000
      2357       786  TIP3  H1           12.9811536690        4.5378587240       12.5204236429  CLST         786          1.0000000000
      2358       786  TIP3  H2           11.7170975510        3.9984040395       13.0309031098  CLST         786          1.0000000000
      2359       787  TIP3  OH2          -8.0896925838        0.0351274112       11.4114056197  CLST         787          1.0000000000
      2360       787  TIP3  H1           -8.9160568029        0.1716004838       10.8958087194  CLST         787          1.0000000000
      2361       787  TIP3  H2           -8.7230581871       -0.3996780239       12.0703855528  CLST         787          1.0000000000
      2362       788  TIP3  OH2           2.4003910536      -13.2132894871       10.7730244449  CLST         788          1.0000000000
      2363       788  TIP3  H1            2.6793759308      -13.0699140707       11.6898939569  CLST         788          1.0000000000
      2364       788  TIP3  H2            2.5260899086      -14.1476882103       10.8715495531  CLST         788          1.0000000000
      2365       789  TIP3  OH2          -6.9128517612        0.8698326017       -3.1797110831  CLST         789          1.0000000000
      2366       789  TIP3  H1           -6.8558257238       -0.0911138420       -2.9965993505  CLST         789          1.0000000000
      2367       789  TIP3  H2           -6.1108197741        0.7074939012       -3.6408146297  CLST         789          1.0000000000
      2368       790  TIP3  OH2         -11.0931625431       -9.3372721227        5.5817005771  CLST         790          1.0000000000
      2369       790  TIP3  H1          -11.3054991268       -9.3041608671        6.5008067441  CLST         790          1.0000000000
      2370       790  TIP3  H2          -11.6031140405       -8.4876484872        5.4298403557  CLST         790          1.0000000000
      2371       791  TIP3  OH2          -5.0497541248       -5.6900364330      -10.7140390778  CLST         791          1.0000000000
      2372       791  TIP3  H1           -4.1052839875       -5.9421617540      -10.7398024200  CLST         791          1.0000000000
      2373       791  TIP3  H2           -4.9049485634       -4.8707671481      -11.1649827000  CLST         791          1.0000000000
      2374       792  TIP3  OH2           7.2007300617       -3.9235383453        9.8330142032  CLST         792          1.0000000000
      2375       792  TIP3  H1            7.7731110563       -4.6030127303        9.3645494081  CLST         792          1.0000000000
      2376       792  TIP3  H2            7.9926834768       -3.3209762362        9.7202563390  CLST         792          1.0000000000
      2377       793  TIP3  OH2          -2.9647874117       12.8372133204       -3.7287578798  CLST         793          1.0000000000
      2378       793  TIP3  H1           -3.6337666309       12.6507497363       -2.8836858300  CLST         793          1.0000000000
      2379       793  TIP3  H2           -3.1855015520       11.9950836078       -4.1277874375  CLST         793          1.0000000000
      2380       794  TIP3  OH2          -0.6029841631        2.8027178517       -6.5474575089  CLST         794          1.0000000000
      2381       794  TIP3  H1           -0.6848848229        2.4918520300       -7.5099882160  CLST         794          1.0000000000
      2382       794  TIP3  H2           -1.1683313045        3.3691731233       -7.4280419360  CLST         794          1.0000000000
      2383       795  TIP3  OH2          -2.0545682370       -9.5844146512        1.0843634262  CLST         795          1.0000000000
      2384       795  TIP3  H1           -2.7499176356      -10.1417227634        0.7119591953  CLST         795          1.0000000000
      2385       795  TIP3  H2           -1.7535664687      -10.1462715948        1.8665335845  CLST         795          1.0000000000
      2386       796  TIP3  OH2           2.7639698608        4.5928080975        4.9270879197  CLST         796          1.0000000000
      2387       796  TIP3  H1            2.8258621470        4.2225258188        3.8559204245  CLST         796          1.0000000000
      2388       796  TIP3  H2            3.7253242286        4.5793619864        4.6522597780  CLST         796          1.0000000000
      2389       797  TIP3  OH2         -11.6830406095        5.5544876285       -3.2964990564  CLST         797          1.0000000000
      2390       797  TIP3  H1          -12.4973375723        6.1000271569       -3.5463216541  CLST         797          1.0000000000
      2391       797  TIP3  H2          -11.3541552583        5.5223049738       -4.3021566497  CLST         797          1.0000000000
      2392       798  TIP3  OH2         -11.1943066549        9.6787634138       10.3805001066  CLST         798          1.0000000000
      2393       798  TIP3  H1          -11.4619636432       10.4375362918        9.7381487061  CLST         798          1.0000000000
      2394       798  TIP3  H2          -11.5248471749       10.2626186191       11.0951003799  CLST         798          1.0000000000
      2395       799  TIP3  OH2           3.7780384875       -1.8127819088      -12.6499805693  CLST         799          1.0000000000
      2396       799  TIP3  H1            4.3594909196       -1.0812851779      -12.7328296096  CLST         799          1.0000000000
      2397       799  TIP3  H2            3.9740393178       -2.1803347854      -13.4886320591  CLST         799          1.0000000000
      2398       800  TIP3  OH2         -10.2905768866        7.3565222843       10.3525626134  CLST         800          1.0000000000
      2399       800  TIP3  H1          -10.5256257498        8.6118871140       10.4174259070  CLST         800          1.0000000000
      2400       800  TIP3  H2           -9.6650175140        8.0476888195       10.2336037905  CLST         800          1.0000000000
      2401       801  TIP3  OH2           8.1941449845      -11.1572588982      -10.7224617995  CLST         801          1.0000000000
      2402       801  TIP3  H1            8.3206675256      -12.0819187968      -10.7145805055  CLST         801          1.0000000000
      2403       801  TIP3  H2            8.7129952382      -11.1199130871      -11.6367625355  CLST         801          1.0000000000
      2404       802  TIP3  OH2           5.3934120977       -0.1747594662       11.8045601903  CLST         802          1.0000000000
      2405       802  TIP3  H1            4.7017262549        0.0658927938       11.1044287441  CLST         802          1.0000000000
      2406       802  TIP3  H2            5.9884503147       -0.4220559095       11.1238592080  CLST         802          1.0000000000
      2407       803  TIP3  OH2           6.5683210409       -9.6877930765        0.1942048432  CLST         803          1.0000000000
      2408       803  TIP3  H1            6.2774729859      -10.5751254195       -0.1973902302  CLST         803          1.0000000000
      2409       803  TIP3  H2            5.7808320504       -9.6284888726        0.7652814052  CLST         803          1.0000000000
      2410       804  TIP3  OH2           5.4799591308        6.3099646610        1.8367307148  CLST         804          1.0000000000
      2411       804  TIP3  H1            4.7235271733        5.5842851804        1.2829708802  CLST         804          1.0000000000
      2412       804  TIP3  H2            5.6674280911        5.5279598757        1.5486541967  CLST         804          1.0000000000
      2413       805  TIP3  OH2           7.2454437904       -4.4776337978       14.2495854554  CLST         805          1.0000000000
      2414       805  TIP3  H1            7.9102355338       -4.1932683349       13.6457118989  CLST         805          1.0000000000
      2415       805  TIP3  H2            7.9056400413       -4.8633445887       14.7980089825  CLST         805          1.0000000000
      2416       806  TIP3  OH2           8.5472423991        9.9338361211       13.6590956663  CLST         806          1.0000000000
      2417       806  TIP3  H1            8.0127204085        9.0919154414       13.6590345869  CLST         806          1.0000000000
      2418       806  TIP3  H2            8.2044520117       10.3553144286       12.9046503094  CLST         806          1.0000000000
      2419       807  TIP3  OH2          -3.7675623827        8.0096482093        1.3754920956  CLST         807          1.0000000000
      2420       807  TIP3  H1           -3.8518488867        8.9735993283        1.1405391864  CLST         807          1.0000000000
      2421       807  TIP3  H2           -3.7779398280        8.2677878089        2.3142514742  CLST         807          1.0000000000
      2422       808  TIP3  OH2          -3.8113879195       13.8469879729        1.0909488494  CLST         808          1.0000000000
      2423       808  TIP3  H1           -3.1314486548       14.2465606056        1.6522258090  CLST         808          1.0000000000
      2424       808  TIP3  H2           -3.2658469384       13.9478620580        0.3493882016  CLST         808          1.0000000000
      2425       809  TIP3  OH2           2.0079075455       12.7245796301        9.4646886187  CLST         809          1.0000000000
      2426       809  TIP3  H1            2.0673524185       12.0422963613        8.8190471379  CLST         809          1.0000000000
      2427       809  TIP3  H2            1.1655055030       12.9690049683        9.1205988865  CLST         809          1.0000000000
      2428       810  TIP3  OH2          -2.0169293870        8.6713236662        8.7878700323  CLST         810          1.0000000000
      2429       810  TIP3  H1           -1.3699584105        8.2067771550        9.0113696216  CLST         810          1.0000000000
      2430       810  TIP3  H2           -1.8074033254        8.2249790957        9.8669770140  CLST         810          1.0000000000
      2431       811  TIP3  OH2          -3.8094558090      -12.4936957140       -9.1738199576  CLST         811          1.0000000000
      2432       811  TIP3  H1           -3.8545996054      -12.9445349531      -10.0156092188  CLST         811          1.0000000000
      2433       811  TIP3  H2           -4.4250835860      -11.7908745209       -9.3260341375  CLST         811          1.0000000000
      2434       812  TIP3  OH2          10.9708914378        4.3866788262      -13.6147247855  CLST         812          1.0000000000
      2435       812  TIP3  H1           11.5809750548        3.6728314604      -13.4227779671  CLST         812          1.0000000000
      2436       812  TIP3  H2           11.6483616682        4.9857463562      -14.0807690481  CLST         812          1.0000000000
      2437       813  TIP3  OH2          -2.2975857180        0.7441123156      -14.0049483302  CLST         813          1.0000000000
      2438       813  TIP3  H1           -2.3898205250        1.5012125625      -14.8509307163  CLST         813          1.0000000000
      2439       813  TIP3  H2           -3.1612874840        0.9808273924      -14.1046157295  CLST         813          1.0000000000
      2440       814  TIP3  OH2          -7.4358582488        7.9971123818       -8.6385260479  CLST         814          1.0000000000
      2441       814  TIP3  H1           -6.6946220759        8.6225971463       -8.5933975412  CLST         814          1.0000000000
      2442       814  TIP3  H2           -7.1172578566        7.2683271653       -8.1148815154  CLST         814          1.0000000000
      2443       815  TIP3  OH2          -5.0376228095        1.2233355038       -8.4530835103  CLST         815          1.0000000000
      2444       815  TIP3  H1           -4.5835586951        1.9328245928       -8.0655134990  CLST         815          1.0000000000
      2445       815  TIP3  H2           -5.7144076388        1.6860075870       -8.8785888739  CLST         815          1.0000000000
      2446       816  TIP3  OH2          -8.1807280321      -13.5060101722        1.6522311601  CLST         816          1.0000000000
      2447       816  TIP3  H1           -8.4465889233      -14.4142886346        1.6336143124  CLST         816          1.0000000000
      2448       816  TIP3  H2           -9.0496740350      -13.2097117672        1.8547575072  CLST         816          1.0000000000
      2449       817  TIP3  OH2           3.4608297096       14.3813249050       10.9336476222  CLST         817          1.0000000000
      2450       817  TIP3  H1            2.7788022476       13.8122678496       10.4975197215  CLST         817          1.0000000000
      2451       817  TIP3  H2            3.3461929044       13.9939163720       11.8242831014  CLST         817          1.0000000000
      2452       818  TIP3  OH2          11.5930959543       -3.3851344639       -5.8477727361  CLST         818          1.0000000000
      2453       818  TIP3  H1           11.8923949496       -2.7381987435       -5.1725255676  CLST         818          1.0000000000
      2454       818  TIP3  H2           10.6238687636       -3.2946621893       -6.1131459245  CLST         818          1.0000000000
      2455       819  TIP3  OH2           0.2976537369       -0.0247769908      -10.5503024188  CLST         819          1.0000000000
      2456       819  TIP3  H1            0.6405956980       -0.7387638963      -11.1537965158  CLST         819          1.0000000000
      2457       819  TIP3  H2            1.1537988731        0.4651405871      -10.8093778114  CLST         819          1.0000000000
      2458       820  TIP3  OH2         -11.2168712334       -7.6918841539       14.4270148501  CLST         820          1.0000000000
      2459       820  TIP3  H1          -11.9575597405       -8.1767261218       14.8092086321  CLST         820          1.0000000000
      2460       820  TIP3  H2          -10.9356064217       -8.5033103009       14.0053230890  CLST         820          1.0000000000
      2461       821  TIP3  OH2          12.0676215597       -1.0404095788       14.8148976534  CLST         821          1.0000000000
      2462       821  TIP3  H1           13.0041627023       -0.2582017539       14.6164881299  CLST         821          1.0000000000
      2463       821  TIP3  H2           12.3585383169       -1.7925369824       14.3195375954  CLST         821          1.0000000000
      2464       822  TIP3  OH2          -7.1886224505       14.2797286179        9.3152650630  CLST         822          1.0000000000
      2465       822  TIP3  H1           -6.8660846875       14.2947307366        8.4198252975  CLST         822          1.0000000000
      2466       822  TIP3  H2           -6.8975556978       13.3826837680        9.2852710867  CLST         822          1.0000000000
      2467       823  TIP3  OH2          -9.2059086776       -1.6132918778        7.6662426191  CLST         823          1.0000000000
      2468       823  TIP3  H1           -9.6400492151       -2.3710242194        8.2068612298  CLST         823          1.0000000000
      2469       823  TIP3  H2           -8.3630626795       -2.0057885228        7.7042027735  CLST         823          1.0000000000
      2470       824  TIP3  OH2          10.8756881343        0.7813225399        7.2039455863  CLST         824          1.0000000000
      2471       824  TIP3  H1           11.3164251137        1.0859884800        6.3188378726  CLST         824          1.0000000000
      2472       824  TIP3  H2           10.4223257083        1.6767178167        6.5539932147  CLST         824          1.0000000000
      2473       825  TIP3  OH2          -4.6843835949      -11.5422636282      -13.8877848908  CLST         825          1.0000000000
      2474       825  TIP3  H1           -5.4751729303      -11.9744184398      -13.7037096890  CLST         825          1.0000000000
      2475       825  TIP3  H2           -4.9536830173      -10.7454198548      -13.3444346561  CLST         825          1.0000000000
      2476       826  TIP3  OH2           4.3336831376      -13.7222728761        2.2457287202  CLST         826          1.0000000000
      2477       826  TIP3  H1            4.3905857101      -14.9290423288        2.3628100770  CLST         826          1.0000000000
      2478       826  TIP3  H2            5.2613405860      -14.3838675499        2.4257940430  CLST         826          1.0000000000
      2479       827  TIP3  OH2         -10.0197651447        8.3937487329       -6.4961149522  CLST         827          1.0000000000
      2480       827  TIP3  H1           -9.3918765466        8.4158048178       -5.5144775119  CLST         827          1.0000000000
      2481       827  TIP3  H2           -9.9516013571        7.5153099917       -6.4779663518  CLST         827          1.0000000000
      2482       828  TIP3  OH2          -9.9001792243       -7.7631756040       11.3729897948  CLST         828          1.0000000000
      2483       828  TIP3  H1           -8.8254856498       -8.1427502005       11.5588486230  CLST         828          1.0000000000
      2484       828  TIP3  H2           -9.2668016966       -7.1374695627       11.0953715923  CLST         828          1.0000000000
      2485       829  TIP3  OH2           3.1541743511       13.2807892231        6.2923442509  CLST         829          1.0000000000
      2486       829  TIP3  H1            3.6541947603       13.9558640781        7.1723242600  CLST         829          1.0000000000
      2487       829  TIP3  H2            3.1731514214       14.2402669007        6.3184318942  CLST         829          1.0000000000
      2488       830  TIP3  OH2          13.9330464310        2.7826480920        9.1143331635  CLST         830          1.0000000000
      2489       830  TIP3  H1           14.6729052194        3.2588265464        9.8181687320  CLST         830          1.0000000000
      2490       830  TIP3  H2           14.7767692035        3.1750082151        8.5558371336  CLST         830          1.0000000000
      2491       831  TIP3  OH2           3.0492217940        2.3742176446        8.0770615632  CLST         831          1.0000000000
      2492       831  TIP3  H1            3.4817527937        3.3956393790        8.2976560963  CLST         831          1.0000000000
      2493       831  TIP3  H2            2.3937797214        2.8861260221        8.5042711576  CLST         831          1.0000000000
      2494       832  TIP3  OH2         -12.6815171666       -2.7618879892        1.1761697338  CLST         832          1.0000000000
      2495       832  TIP3  H1          -12.7421845143       -1.7976469971        0.9623812513  CLST         832          1.0000000000
      2496       832  TIP3  H2          -13.2648253689       -2.5621147414        1.9341183390  CLST         832          1.0000000000
      2497       833  TIP3  OH2           1.4593329132      -11.5660271381        5.2667563623  CLST         833          1.0000000000
      2498       833  TIP3  H1            1.9771974197      -11.0485916857        5.9186580795  CLST         833          1.0000000000
      2499       833  TIP3  H2            2.3024364513      -11.5360400038        4.7244932840  CLST         833          1.0000000000
      2500       834  TIP3  OH2           3.4820875428       -3.2286048258        4.1889891587  CLST         834          1.0000000000
      2501       834  TIP3  H1            2.6146038279       -2.7342532259        4.2500736517  CLST         834          1.0000000000
      2502       834  TIP3  H2            3.7664800071       -2.3738387732        4.7139175950  CLST         834          1.0000000000
      2503       835  TIP3  OH2           4.1749596626        2.4759741921        0.1965169993  CLST         835          1.0000000000
      2504       835  TIP3  H1            3.8456100808        2.8134700265       -0.6587293761  CLST         835          1.0000000000
      2505       835  TIP3  H2            4.3334741687        1.6244614618       -0.2227364777  CLST         835          1.0000000000
      2506       836  TIP3  OH2           7.5187170214       -5.7800816014       -9.5168005557  CLST         836          1.0000000000
      2507       836  TIP3  H1            6.7941164924       -6.3191000794       -9.1254821967  CLST         836          1.0000000000
      2508       836  TIP3  H2            8.0679271680       -6.5271907116       -9.2691706226  CLST         836          1.0000000000
      2509       837  TIP3  OH2           3.3027983506        5.9992407876       -0.6542372985  CLST         837          1.0000000000
      2510       837  TIP3  H1            2.3304520817        5.8516723937       -1.1019437229  CLST         837          1.0000000000
      2511       837  TIP3  H2            2.6916875321        6.5076460750       -0.3181172918  CLST         837          1.0000000000
      2512       838  TIP3  OH2          -1.6621284561      -13.5087082661      -11.0883405679  CLST         838          1.0000000000
      2513       838  TIP3  H1           -1.3860034874      -14.4449593660      -11.1339806365  CLST         838          1.0000000000
      2514       838  TIP3  H2           -2.5484037289      -13.8327554853      -11.2532339848  CLST         838          1.0000000000
      2515       839  TIP3  OH2           1.3127045226       -7.1751795478       -1.3705177610  CLST         839          1.0000000000
      2516       839  TIP3  H1            1.2239749671       -7.7175080727       -0.5572821653  CLST         839          1.0000000000
      2517       839  TIP3  H2            0.3271949544       -7.2039812418       -1.5541122575  CLST         839          1.0000000000
      2518       840  TIP3  OH2          -7.5281701009       11.6776487696       10.6694953375  CLST         840          1.0000000000
      2519       840  TIP3  H1           -7.7409336732       10.9835496226       11.7057076488  CLST         840          1.0000000000
      2520       840  TIP3  H2           -7.0112608751       10.8953681422       10.4644658219  CLST         840          1.0000000000
      2521       841  TIP3  OH2          -8.4426931100       -7.6120378836       -4.2603282034  CLST         841          1.0000000000
      2522       841  TIP3  H1           -7.9458172791       -7.8936505758       -3.4918839964  CLST         841          1.0000000000
      2523       841  TIP3  H2           -7.3325198359       -7.3277480532       -4.1980035593  CLST         841          1.0000000000
      2524       842  TIP3  OH2          11.3533787709      -14.1914198766        0.2598270249  CLST         842          1.0000000000
      2525       842  TIP3  H1           10.9539051876      -14.2820044051        1.2152968710  CLST         842          1.0000000000
      2526       842  TIP3  H2           10.6629849278      -14.5324086580       -0.2180245515  CLST         842          1.0000000000
      2527       843  TIP3  OH2           9.4610693145       13.0496250196        3.7287636287  CLST         843          1.0000000000
      2528       843  TIP3  H1            8.7396448976       12.5901017106        4.1364459747  CLST         843          1.0000000000
      2529       843  TIP3  H2            8.8597043760       13.3122979496        2.9901072966  CLST         843          1.0000000000
      2530       844  TIP3  OH2           1.4678610205      -12.3781538031       -1.8725126695  CLST         844          1.0000000000
      2531       844  TIP3  H1            1.8292465030      -12.8909351248       -1.0505560395  CLST         844          1.0000000000
      2532       844  TIP3  H2            0.6652416756      -12.8684808262       -1.6205658111  CLST         844          1.0000000000
      2533       845  TIP3  OH2         -14.6374020961        4.3690918108       10.5082916433  CLST         845          1.0000000000
      2534       845  TIP3  H1          -14.9323973343        3.8260080269       11.3987320102  CLST         845          1.0000000000
      2535       845  TIP3  H2          -13.9846222642        4.6024685720       11.4271490123  CLST         845          1.0000000000
      2536       846  TIP3  OH2         -11.0177525680       -7.8045314195        2.4653892242  CLST         846          1.0000000000
      2537       846  TIP3  H1          -11.9171514945       -8.1903811226        2.6479559559  CLST         846          1.0000000000
      2538       846  TIP3  H2          -11.4919820427       -6.9379026556        2.4527610088  CLST         846          1.0000000000
      2539       847  TIP3  OH2           4.9326446455        9.6509950402        5.2812104443  CLST         847          1.0000000000
      2540       847  TIP3  H1            5.1777478967       10.5655489376        5.2267057845  CLST         847          1.0000000000
      2541       847  TIP3  H2            5.5379477743        9.5372113103        6.0089411482  CLST         847          1.0000000000
      2542       848  TIP3  OH2          -9.3285387020        5.7032443895       -9.7584095768  CLST         848          1.0000000000
      2543       848  TIP3  H1          -10.1073603892        5.4709535625      -10.3894544950  CLST         848          1.0000000000
      2544       848  TIP3  H2           -9.8557391697        6.5206792620       -9.5821967267  CLST         848          1.0000000000
      2545       849  TIP3  OH2          -1.6431619751        1.9465726859        0.2825222154  CLST         849          1.0000000000
      2546       849  TIP3  H1           -0.4762542812        2.0367443377        0.1323733729  CLST         849          1.0000000000
      2547       849  TIP3  H2           -1.2422500975        2.2690923723       -0.6309788478  CLST         849          1.0000000000
      2548       850  TIP3  OH2           5.2565192274       -6.4581611723        5.7117166070  CLST         850          1.0000000000
      2549       850  TIP3  H1            4.5492739763       -6.2962234833        6.3459604110  CLST         850          1.0000000000
      2550       850  TIP3  H2            5.8799410819       -5.8618885148        6.0728584377  CLST         850          1.0000000000
      2551       851  TIP3  OH2           8.3753259759        6.0817678283        5.3405525508  CLST         851          1.0000000000
      2552       851  TIP3  H1            8.4122999564        6.2325867746        6.3451550053  CLST         851          1.0000000000
      2553       851  TIP3  H2            8.7240827729        6.9716931244        5.3603761041  CLST         851          1.0000000000
      2554       852  TIP3  OH2           9.4971765975        3.7999885294        1.5081750411  CLST         852          1.0000000000
      2555       852  TIP3  H1            9.6352995575        3.8288333018        2.4560349097  CLST         852          1.0000000000
      2556       852  TIP3  H2            8.5475618462        3.9578195518        1.5174224465  CLST         852          1.0000000000
      2557       853  TIP3  OH2           8.6775673854       -5.0331297592       -3.2532731216  CLST         853          1.0000000000
      2558       853  TIP3  H1            7.7418319767       -4.8290383511       -3.9239377870  CLST         853          1.0000000000
      2559       853  TIP3  H2            7.7911539328       -4.7751343111       -2.8118982756  CLST         853          1.0000000000
      2560       854  TIP3  OH2         -10.5439009391       -9.2524082961       -5.9419695890  CLST         854          1.0000000000
      2561       854  TIP3  H1           -9.8177639113       -8.6720572937       -6.1898939229  CLST         854          1.0000000000
      2562       854  TIP3  H2          -10.4936889944       -8.9441555146       -5.0449333144  CLST         854          1.0000000000
      2563       855  TIP3  OH2           2.5886625675       -3.2409939074       -6.7423274156  CLST         855          1.0000000000
      2564       855  TIP3  H1            2.2527009284       -2.7320429064       -6.0313460661  CLST         855          1.0000000000
      2565       855  TIP3  H2            2.9146166652       -2.4247268738       -7.1980320024  CLST         855          1.0000000000
      2566       856  TIP3  OH2           3.2730978292      -12.9760577360        0.2450892563  CLST         856          1.0000000000
      2567       856  TIP3  H1            4.2303730179      -12.6394314109       -0.0088485095  CLST         856          1.0000000000
      2568       856  TIP3  H2            3.8338879043      -13.2585043891        1.3438452762  CLST         856          1.0000000000
      2569       857  TIP3  OH2          -2.9817604472       -5.6306444821       11.1166212698  CLST         857          1.0000000000
      2570       857  TIP3  H1           -3.5390319731       -5.7322792332       11.8710760602  CLST         857          1.0000000000
      2571       857  TIP3  H2           -3.2015612653       -4.7047471558       10.9314964197  CLST         857          1.0000000000
      2572       858  TIP3  OH2           6.1992691693      -14.2114612461       12.8860650698  CLST         858          1.0000000000
      2573       858  TIP3  H1            6.3995448007      -14.9102685789       13.4519535488  CLST         858          1.0000000000
      2574       858  TIP3  H2            5.4352680097      -14.0056539623       13.4723362379  CLST         858          1.0000000000
      2575       859  TIP3  OH2          -8.5181410208       -1.5672667477      -12.8368137328  CLST         859          1.0000000000
      2576       859  TIP3  H1           -7.8879071423       -2.2568383031      -12.9019887263  CLST         859          1.0000000000
      2577       859  TIP3  H2           -7.8518265054       -1.0587697551      -12.3358804458  CLST         859          1.0000000000
      2578       860  TIP3  OH2          -9.9140185404       -6.2950008135       -1.0698417260  CLST         860          1.0000000000
      2579       860  TIP3  H1           -9.6403050030       -5.5138182119       -1.5992306191  CLST         860          1.0000000000
      2580       860  TIP3  H2           -9.1797408594       -6.8373171653       -1.3231452918  CLST         860          1.0000000000
      2581       861  TIP3  OH2           5.1707904341      -10.0356775713       -4.4423787059  CLST         861          1.0000000000
      2582       861  TIP3  H1            4.5932056318      -10.4673610935       -3.7310452040  CLST         861          1.0000000000
      2583       861  TIP3  H2            4.9759354092      -10.9576366529       -4.7741238021  CLST         861          1.0000000000
      2584       862  TIP3  OH2         -11.3042519260       -2.6951598712      -12.7735926882  CLST         862          1.0000000000
      2585       862  TIP3  H1          -10.4023460914       -2.5173744783      -13.0063144754  CLST         862          1.0000000000
      2586       862  TIP3  H2          -10.9310224637       -2.6685696148      -11.8818858509  CLST         862          1.0000000000
      2587       863  TIP3  OH2          10.9510456621      -10.6921450924       -8.7223872011  CLST         863          1.0000000000
      2588       863  TIP3  H1           11.8158890378      -10.4733512164       -8.2685274566  CLST         863          1.0000000000
      2589       863  TIP3  H2           11.5888116573      -11.1637678040       -9.3565400890  CLST         863          1.0000000000
      2590       864  TIP3  OH2         -13.6510124364        3.4030170635        3.1505134171  CLST         864          1.0000000000
      2591       864  TIP3  H1          -14.5140299162        3.2804156216        3.4766614297  CLST         864          1.0000000000
      2592       864  TIP3  H2          -13.7574637137        4.3242642905        2.9291999077  CLST         864          1.0000000000
      2593       865  TIP3  OH2          12.7504351840        8.6718553652      -11.3775666965  CLST         865          1.0000000000
      2594       865  TIP3  H1           13.4982152178        8.0562275138      -11.3992094533  CLST         865          1.0000000000
      2595       865  TIP3  H2           12.7290326213        8.6602804117      -10.4325914940  CLST         865          1.0000000000
      2596       866  TIP3  OH2           6.6638931503      -10.2996429584       -8.1830134741  CLST         866          1.0000000000
      2597       866  TIP3  H1            6.0987516090      -11.0463264915       -8.0068634207  CLST         866          1.0000000000
      2598       866  TIP3  H2            6.8301578138      -10.5865412561       -9.0859604932  CLST         866          1.0000000000
      2599       867  TIP3  OH2          -8.3202559716       12.3148399858       -3.2274121923  CLST         867          1.0000000000
      2600       867  TIP3  H1           -8.7771404150       12.0109434711       -2.4984940910  CLST         867          1.0000000000
      2601       867  TIP3  H2           -7.7087867934       12.9690817286       -2.7982128093  CLST         867          1.0000000000
      2602       868  TIP3  OH2          -9.6559020239       13.0169694805       10.0659589694  CLST         868          1.0000000000
      2603       868  TIP3  H1           -8.8612765167       12.5263766893       10.5349174359  CLST         868          1.0000000000
      2604       868  TIP3  H2           -8.9443400923       13.6904748620       10.0089115051  CLST         868          1.0000000000
      2605       869  TIP3  OH2           3.2816847872       -1.6364164967        1.2089434377  CLST         869          1.0000000000
      2606       869  TIP3  H1            2.4043480369       -1.7228999466        0.8114554284  CLST         869          1.0000000000
      2607       869  TIP3  H2            2.8025455266       -1.2485938135        2.0391584425  CLST         869          1.0000000000
      2608       870  TIP3  OH2          -6.9487819042       -3.7082391017      -12.8832821088  CLST         870          1.0000000000
      2609       870  TIP3  H1           -5.9553350004       -3.6829191035      -12.7881558720  CLST         870          1.0000000000
      2610       870  TIP3  H2           -6.7959683342       -4.1765374755      -13.7237720183  CLST         870          1.0000000000
      2611       871  TIP3  OH2          -7.2988221732        2.2914013036       -9.8893601954  CLST         871          1.0000000000
      2612       871  TIP3  H1           -7.6567044803        2.7672023755      -10.6126658901  CLST         871          1.0000000000
      2613       871  TIP3  H2           -8.3770362793        2.5295688046       -9.8688542631  CLST         871          1.0000000000
      2614       872  TIP3  OH2         -13.1129548704       11.4887377624       -9.7759498501  CLST         872          1.0000000000
      2615       872  TIP3  H1          -12.8878625323       11.6648787178      -10.7618338965  CLST         872          1.0000000000
      2616       872  TIP3  H2          -13.1188684980       10.5987747285      -10.0232453415  CLST         872          1.0000000000
      2617       873  TIP3  OH2          11.9914756635       -4.3837997975       -9.8607007911  CLST         873          1.0000000000
      2618       873  TIP3  H1           11.5814783189       -3.5643954757      -10.0974135534  CLST         873          1.0000000000
      2619       873  TIP3  H2           12.0373045197       -4.5925245024      -10.8182071045  CLST         873          1.0000000000
      2620       874  TIP3  OH2          12.7578728040        8.3833042336       -8.4213837941  CLST         874          1.0000000000
      2621       874  TIP3  H1           13.0760133934        7.6361048969       -7.8796907138  CLST         874          1.0000000000
      2622       874  TIP3  H2           11.8043024927        8.2409783764       -8.3812810978  CLST         874          1.0000000000
      2623       875  TIP3  OH2           1.1227837647       -1.3815798495      -12.4270169453  CLST         875          1.0000000000
      2624       875  TIP3  H1            1.8120422281       -1.8199538441      -12.8973089319  CLST         875          1.0000000000
      2625       875  TIP3  H2            0.4560897564       -1.6086128714      -13.1038978063  CLST         875          1.0000000000
      2626       876  TIP3  OH2           9.1223799052        7.1182673313      -11.7469331473  CLST         876          1.0000000000
      2627       876  TIP3  H1            8.5824467202        7.5178913077      -12.4049876815  CLST         876          1.0000000000
      2628       876  TIP3  H2            8.1919178788        6.8552986115      -11.4171803717  CLST         876          1.0000000000
      2629       877  TIP3  OH2          -7.0417215058      -13.3812456191       -5.2061214135  CLST         877          1.0000000000
      2630       877  TIP3  H1           -7.6593877226      -12.9206167702       -4.5678014000  CLST         877          1.0000000000
      2631       877  TIP3  H2           -6.3528071265      -12.7646704109       -4.9989205248  CLST         877          1.0000000000
      2632       878  TIP3  OH2           5.6819551942      -11.2512837273        7.0454843609  CLST         878          1.0000000000
      2633       878  TIP3  H1            5.3469557332      -11.2783813520        6.1352184585  CLST         878          1.0000000000
      2634       878  TIP3  H2            5.6790207693      -10.2841765683        6.8889633844  CLST         878          1.0000000000
      2635       879  TIP3  OH2           2.7686297935        5.1075458442       -7.1927186711  CLST         879          1.0000000000
      2636       879  TIP3  H1            3.4510231873        5.6557626336       -7.6087100003  CLST         879          1.0000000000
      2637       879  TIP3  H2            3.3988167872        4.9362572124       -6.4795990940  CLST         879          1.0000000000
      2638       880  TIP3  OH2          -5.4213550414       -1.9963163001       14.8087579504  CLST         880          1.0000000000
      2639       880  TIP3  H1           -6.1687339166       -2.8472082248       14.6493698871  CLST         880          1.0000000000
      2640       880  TIP3  H2           -6.0118573019       -1.3858161898       14.4236389339  CLST         880          1.0000000000
      2641       881  TIP3  OH2          -0.5314422738       13.5233412001        8.2509206171  CLST         881          1.0000000000
      2642       881  TIP3  H1           -0.3914226023       13.3111626214        7.3262443744  CLST         881          1.0000000000
      2643       881  TIP3  H2           -1.5284960610       13.2732249044        8.2321023396  CLST         881          1.0000000000
      2644       882  TIP3  OH2          12.2815125260       -1.8309133946       -1.4437405761  CLST         882          1.0000000000
      2645       882  TIP3  H1           11.6864823328       -2.6103985220       -1.6465274941  CLST         882          1.0000000000
      2646       882  TIP3  H2           12.2466978225       -2.1418458214       -0.5406046517  CLST         882          1.0000000000
      2647       883  TIP3  OH2           1.6555368933       -9.5711726397       -4.3706913584  CLST         883          1.0000000000
      2648       883  TIP3  H1            2.2978691728       -9.4709026692       -3.7493164447  CLST         883          1.0000000000
      2649       883  TIP3  H2            2.2389445021       -9.6226141464       -5.1132002319  CLST         883          1.0000000000
      2650       884  TIP3  OH2         -14.1685739128       -5.9161790928      -13.0570502924  CLST         884          1.0000000000
      2651       884  TIP3  H1          -13.6904690129       -6.9808343132      -12.7411606344  CLST         884          1.0000000000
      2652       884  TIP3  H2          -14.5970036878       -6.6758929059      -12.8834297026  CLST         884          1.0000000000
      2653       885  TIP3  OH2           0.8348658657       14.6848841293       -0.5300196472  CLST         885          1.0000000000
      2654       885  TIP3  H1           -0.0224750661       14.5081363998       -0.2370304484  CLST         885          1.0000000000
      2655       885  TIP3  H2            1.1795076321       13.9370056730       -0.0983647629  CLST         885          1.0000000000
      2656       886  TIP3  OH2          12.0431166246       10.0168649006        4.0185176572  CLST         886          1.0000000000
      2657       886  TIP3  H1           12.6587787568        9.2778094379        4.2516084137  CLST         886          1.0000000000
      2658       886  TIP3  H2           11.9073038777        9.8354823652        5.0531448525  CLST         886          1.0000000000
      2659       887  TIP3  OH2          -7.3267140855       -8.0529779317       -1.9470140367  CLST         887          1.0000000000
      2660       887  TIP3  H1           -7.1950700372       -8.9989265551       -2.0690439317  CLST         887          1.0000000000
      2661       887  TIP3  H2           -6.3928449059       -7.9157166716       -1.9035123258  CLST         887          1.0000000000
      2662       888  TIP3  OH2         -13.1578393076       -2.8114361145       10.5418427996  CLST         888          1.0000000000
      2663       888  TIP3  H1          -13.6869573676       -2.6132551739       11.3187398629  CLST         888          1.0000000000
      2664       888  TIP3  H2          -12.5880514514       -1.9665703056       10.6431706930  CLST         888          1.0000000000
      2665       889  TIP3  OH2           4.9876985448      -12.6256863521        8.7461457728  CLST         889          1.0000000000
      2666       889  TIP3  H1            5.3157038267      -12.0717909731        7.9532436002  CLST         889          1.0000000000
      2667       889  TIP3  H2            5.0345109384      -11.7059079384        9.3217922749  CLST         889          1.0000000000
      2668       890  TIP3  OH2         -13.6770135756        5.8410623698       -9.4956171955  CLST         890          1.0000000000
      2669       890  TIP3  H1          -13.3770089030        6.6699462310       -9.7426254261  CLST         890          1.0000000000
      2670       890  TIP3  H2          -14.2548204637        6.2612840690       -8.8404055432  CLST         890          1.0000000000
      2671       891  TIP3  OH2         -12.7408017800       -5.7795036867       10.8620718919  CLST         891          1.0000000000
      2672       891  TIP3  H1          -12.9402122121       -4.8855757616       10.6524581697  CLST         891          1.0000000000
      2673       891  TIP3  H2          -12.3093105864       -5.8292711001       10.0057100823  CLST         891          1.0000000000
      2674       892  TIP3  OH2           3.0962760388       13.7156010057       13.4048563929  CLST         892          1.0000000000
      2675       892  TIP3  H1            2.9943215818       14.3314396676       14.0723845431  CLST         892          1.0000000000
      2676       892  TIP3  H2            3.3337596787       13.0487911178       14.0562427637  CLST         892          1.0000000000
      2677       893  TIP3  OH2          -0.3128940193        7.3095957459        3.1217521194  CLST         893          1.0000000000
      2678       893  TIP3  H1           -0.8298380955        6.5633820813        3.0033323728  CLST         893          1.0000000000
      2679       893  TIP3  H2           -0.9475925112        7.8341284356        2.6996696695  CLST         893          1.0000000000
      2680       894  TIP3  OH2           9.4603552987       11.1847649278        0.1383531135  CLST         894          1.0000000000
      2681       894  TIP3  H1            9.9269784503       11.7475972483        0.8404407225  CLST         894          1.0000000000
      2682       894  TIP3  H2            8.7026031858       11.7866241548        0.3336157240  CLST         894          1.0000000000
      2683       895  TIP3  OH2         -10.0541979357       10.4675357882      -10.6598779204  CLST         895          1.0000000000
      2684       895  TIP3  H1          -10.1103167219       11.1808636246      -10.2461933859  CLST         895          1.0000000000
      2685       895  TIP3  H2           -9.3082175741       11.2932995178      -10.8415413399  CLST         895          1.0000000000
      2686       896  TIP3  OH2           8.0214242451       -6.7386678214       -0.3944587189  CLST         896          1.0000000000
      2687       896  TIP3  H1            7.7453917300       -6.4983267378       -1.2460386134  CLST         896          1.0000000000
      2688       896  TIP3  H2            8.5271323293       -7.4298675602       -0.8649576072  CLST         896          1.0000000000
      2689       897  TIP3  OH2           9.4078956249       -2.1747337769       -9.0872672517  CLST         897          1.0000000000
      2690       897  TIP3  H1            9.5250747061       -2.7886893483       -8.3559315374  CLST         897          1.0000000000
      2691       897  TIP3  H2            9.4637553572       -1.3517301776       -8.5706565631  CLST         897          1.0000000000
      2692       898  TIP3  OH2          13.8362988536        5.9090403643      -11.8695859955  CLST         898          1.0000000000
      2693       898  TIP3  H1           13.8985433296        5.1284221469      -11.2201690005  CLST         898          1.0000000000
      2694       898  TIP3  H2           12.8534644655        5.9484672184      -11.5624850918  CLST         898          1.0000000000
      2695       899  TIP3  OH2          14.2648102014       -6.5033565708        1.5941249382  CLST         899          1.0000000000
      2696       899  TIP3  H1           14.4135024985       -7.2960503584        1.0988842709  CLST         899          1.0000000000
      2697       899  TIP3  H2           13.7374941105       -6.8273731967        2.3183309251  CLST         899          1.0000000000
      2698       900  TIP3  OH2          -9.7723590521      -10.1833437502        9.9085656306  CLST         900          1.0000000000
      2699       900  TIP3  H1           -9.5177199778       -9.4285942911       10.5235293155  CLST         900          1.0000000000
      2700       900  TIP3  H2           -8.9410839371       -9.5911509278        9.3833372804  CLST         900          1.0000000000
      2701       901  TIP3  OH2          10.2064387168        8.6315379944       -8.4629493256  CLST         901          1.0000000000
      2702       901  TIP3  H1           10.1180397980        9.4858858545       -8.8338437346  CLST         901          1.0000000000
      2703       901  TIP3  H2            9.5607535112        8.1398927288       -8.9325013710  CLST         901          1.0000000000
      2704       902  TIP3  OH2           3.7490450455        0.4381623137       10.0148425040  CLST         902          1.0000000000
      2705       902  TIP3  H1            4.2527235725        0.0335254900        9.2507870792  CLST         902          1.0000000000
      2706       902  TIP3  H2            3.2053493768        0.9469397957        9.3810110394  CLST         902          1.0000000000
      2707       903  TIP3  OH2          -0.8470076457        0.6686351112       -8.4002778000  CLST         903          1.0000000000
      2708       903  TIP3  H1           -0.3211487333        0.5760971413       -9.4680917108  CLST         903          1.0000000000
      2709       903  TIP3  H2           -0.4744052408       -0.1967982987       -8.2578507175  CLST         903          1.0000000000
