* Geometry rescue: EQUI at step 1500
*
        2709  EXT
         1         1  TIP3  OH2           5.5472549711        0.8028725140       -3.7133453430  CLST           1          1.0000000000
         2         1  TIP3  H1            5.1095622258        0.6903965218       -2.8179731459  CLST           1          1.0000000000
         3         1  TIP3  H2            4.6542752111        0.7594092274       -4.1861383069  CLST           1          1.0000000000
         4         2  TIP3  OH2          15.0083678024       -2.2908975865       -1.6191204515  CLST           2          1.0000000000
         5         2  TIP3  H1           14.0391019296       -2.1145040751       -1.7466161425  CLST           2          1.0000000000
         6         2  TIP3  H2           14.8844797836       -3.1680578956       -1.2344654419  CLST           2          1.0000000000
         7         3  TIP3  OH2          -8.6585708957       -6.6561348767       -7.5791396216  CLST           3          1.0000000000
         8         3  TIP3  H1           -9.5499646911       -6.2799246950       -7.7397876762  CLST           3          1.0000000000
         9         3  TIP3  H2           -8.4440415392       -6.9797039372       -8.5069786630  CLST           3          1.0000000000
        10         4  TIP3  OH2          -9.4602466788       -3.9065647955       12.8530442942  CLST           4          1.0000000000
        11         4  TIP3  H1          -10.2707404928       -4.3957920349       13.2038116965  CLST           4          1.0000000000
        12         4  TIP3  H2           -9.2982111663       -4.4435022561       12.0249493513  CLST           4          1.0000000000
        13         5  TIP3  OH2          -3.4201949330      -10.2521427018       14.3237529036  CLST           5          1.0000000000
        14         5  TIP3  H1           -3.7343202666      -10.9833446765       14.8682482403  CLST           5          1.0000000000
        15         5  TIP3  H2           -3.5932429250      -10.4654642439       13.3902692112  CLST           5          1.0000000000
        16         6  TIP3  OH2          -3.4090243582        9.5243356181       14.2421389757  CLST           6          1.0000000000
        17         6  TIP3  H1           -2.4818538916        9.7229878949       13.9272304769  CLST           6          1.0000000000
        18         6  TIP3  H2           -3.1410131741        9.1438510507       15.0828567514  CLST           6          1.0000000000
        19         7  TIP3  OH2          -5.0928119884       -1.3825040685        8.8115886038  CLST           7          1.0000000000
        20         7  TIP3  H1           -4.4070235238       -1.2084942669        8.1291665168  CLST           7          1.0000000000
        21         7  TIP3  H2           -5.6228713560       -2.0109421931        8.2756619008  CLST           7          1.0000000000
        22         8  TIP3  OH2          -7.2720693139       -4.5837581964       -1.1160376761  CLST           8          1.0000000000
        23         8  TIP3  H1           -7.3178609377       -4.8846409535       -0.1864458912  CLST           8          1.0000000000
        24         8  TIP3  H2           -6.4178366200       -4.9857453202       -1.4169911262  CLST           8          1.0000000000
        25         9  TIP3  OH2         -13.0657336535       -5.3012332414        0.2342699848  CLST           9          1.0000000000
        26         9  TIP3  H1          -13.9228873589       -5.1404379222       -0.2734075078  CLST           9          1.0000000000
        27         9  TIP3  H2          -12.7042246818       -4.3946359165        0.1729370644  CLST           9          1.0000000000
        28        10  TIP3  OH2          -4.3650827318        8.1145043800       -8.7357144417  CLST          10          1.0000000000
        29        10  TIP3  H1           -4.6735099727        9.0240161486       -8.7213238803  CLST          10          1.0000000000
        30        10  TIP3  H2           -3.4212422416        8.1366010637       -8.7662438160  CLST          10          1.0000000000
        31        11  TIP3  OH2           5.9093315582       12.6472770702       10.7967805461  CLST          11          1.0000000000
        32        11  TIP3  H1            5.2073553990       13.2978597319       11.0533396328  CLST          11          1.0000000000
        33        11  TIP3  H2            5.4352119148       11.8142197454       10.9978211784  CLST          11          1.0000000000
        34        12  TIP3  OH2         -11.6908705777      -13.1346314216       -3.2200522380  CLST          12          1.0000000000
        35        12  TIP3  H1          -12.4518219419      -12.7566433116       -2.7710890124  CLST          12          1.0000000000
        36        12  TIP3  H2          -12.0543511849      -13.5261439855       -4.0509580048  CLST          12          1.0000000000
        37        13  TIP3  OH2          -0.7350673497      -10.9223798956        3.1434850811  CLST          13          1.0000000000
        38        13  TIP3  H1            0.1510678740      -11.3153528369        2.9915127307  CLST          13          1.0000000000
        39        13  TIP3  H2           -0.5789988938      -10.3815650221        3.9386788844  CLST          13          1.0000000000
        40        14  TIP3  OH2          -1.8254043198        5.2735894392        8.0343998637  CLST          14          1.0000000000
        41        14  TIP3  H1           -1.9358527322        5.0857088539        8.9979518316  CLST          14          1.0000000000
        42        14  TIP3  H2           -0.9055731364        5.0810958594        7.8424047803  CLST          14          1.0000000000
        43        15  TIP3  OH2           1.1121917794       -1.2625862615       -4.7525393837  CLST          15          1.0000000000
        44        15  TIP3  H1            0.4245570735       -0.8076063342       -4.1604255746  CLST          15          1.0000000000
        45        15  TIP3  H2            1.0705675334       -2.1209847546       -4.2481942589  CLST          15          1.0000000000
        46        16  TIP3  OH2          -4.5138703896       -6.2267758156       13.6322484069  CLST          16          1.0000000000
        47        16  TIP3  H1           -3.8348031923       -6.8760748526       13.9146105348  CLST          16          1.0000000000
        48        16  TIP3  H2           -5.1720905308       -6.2830781106       14.3594408318  CLST          16          1.0000000000
        49        17  TIP3  OH2           8.5553594210       -0.5313136374        2.4453060376  CLST          17          1.0000000000
        50        17  TIP3  H1            7.9291368301       -1.2127374207        2.7656661247  CLST          17          1.0000000000
        51        17  TIP3  H2            9.2219154618       -1.1380784045        2.0264884479  CLST          17          1.0000000000
        52        18  TIP3  OH2           2.6734992238       -8.3303987868       -8.6091227273  CLST          18          1.0000000000
        53        18  TIP3  H1            3.0896537410       -7.4700146370       -8.3469339182  CLST          18          1.0000000000
        54        18  TIP3  H2            2.6681591784       -8.7911613332       -7.7519400009  CLST          18          1.0000000000
        55        19  TIP3  OH2           7.0214050575        7.7175529088       14.2354227020  CLST          19          1.0000000000
        56        19  TIP3  H1            7.7735745329        7.1648178843       14.5863312745  CLST          19          1.0000000000
        57        19  TIP3  H2            6.8966002046        8.2250885808       15.0759373355  CLST          19          1.0000000000
        58        20  TIP3  OH2           4.1154745514        9.2862649649        9.0623786142  CLST          20          1.0000000000
        59        20  TIP3  H1            3.4345112925        9.9440279823        8.7765625708  CLST          20          1.0000000000
        60        20  TIP3  H2            3.6243807216        8.4991920092        8.7487295877  CLST          20          1.0000000000
        61        21  TIP3  OH2           0.6090443852       -8.3509034606        1.0815346264  CLST          21          1.0000000000
        62        21  TIP3  H1            0.5989717204       -8.2431534161        2.0647983977  CLST          21          1.0000000000
        63        21  TIP3  H2           -0.2716330931       -8.8125935866        1.0237486686  CLST          21          1.0000000000
        64        22  TIP3  OH2          11.4479300868       -9.5159212258       10.3785643002  CLST          22          1.0000000000
        65        22  TIP3  H1           11.1832159544       -9.1174090249        9.5179235156  CLST          22          1.0000000000
        66        22  TIP3  H2           10.6224213463      -10.0107410948       10.4807289093  CLST          22          1.0000000000
        67        23  TIP3  OH2          12.3154357109      -14.4925328746      -10.8332691571  CLST          23          1.0000000000
        68        23  TIP3  H1           12.1213586607      -15.0105745587      -10.0126316553  CLST          23          1.0000000000
        69        23  TIP3  H2           13.2294037638      -14.3364177481      -10.4249666476  CLST          23          1.0000000000
        70        24  TIP3  OH2          12.9626141666       -7.4388629877       14.5253085015  CLST          24          1.0000000000
        71        24  TIP3  H1           12.5576719978       -7.5115280941       13.6292780416  CLST          24          1.0000000000
        72        24  TIP3  H2           12.1504806117       -7.4472579798       15.0541247875  CLST          24          1.0000000000
        73        25  TIP3  OH2           0.1251757106       -5.6913442451        5.6469499857  CLST          25          1.0000000000
        74        25  TIP3  H1           -0.4927249165       -5.3636018858        4.9595107568  CLST          25          1.0000000000
        75        25  TIP3  H2           -0.1953808563       -6.5754826577        5.9301421913  CLST          25          1.0000000000
        76        26  TIP3  OH2          -5.5411083837       -5.5124641024       -7.9913019087  CLST          26          1.0000000000
        77        26  TIP3  H1           -6.3509524283       -6.0139061364       -8.1233492763  CLST          26          1.0000000000
        78        26  TIP3  H2           -5.0900676960       -5.6799400185       -8.8537368361  CLST          26          1.0000000000
        79        27  TIP3  OH2           4.0596452741       12.2561367297       -0.9227053089  CLST          27          1.0000000000
        80        27  TIP3  H1            4.9630035189       12.0527322745       -0.6184302576  CLST          27          1.0000000000
        81        27  TIP3  H2            4.0513114816       13.2485949795       -0.7964868615  CLST          27          1.0000000000
        82        28  TIP3  OH2          -5.1613751636       -6.3567052309        6.5372870482  CLST          28          1.0000000000
        83        28  TIP3  H1           -4.1694939162       -6.3577679334        6.6250726800  CLST          28          1.0000000000
        84        28  TIP3  H2           -5.2011390389       -6.6186828975        5.5786106526  CLST          28          1.0000000000
        85        29  TIP3  OH2           4.0816636590      -10.1779655655       13.1547387545  CLST          29          1.0000000000
        86        29  TIP3  H1            5.0003461500       -9.8682482241       13.0049157912  CLST          29          1.0000000000
        87        29  TIP3  H2            3.5482888723       -9.3635537381       13.0354051161  CLST          29          1.0000000000
        88        30  TIP3  OH2          -0.8639452780       -3.4988663844       11.8490890202  CLST          30          1.0000000000
        89        30  TIP3  H1           -1.2176650526       -4.2338943474       12.4329201777  CLST          30          1.0000000000
        90        30  TIP3  H2           -0.5210481576       -2.9241103212       12.5634987538  CLST          30          1.0000000000
        91        31  TIP3  OH2          -5.4696613210      -10.3191626372       -9.8133458176  CLST          31          1.0000000000
        92        31  TIP3  H1           -6.4178508888      -10.1800052633       -9.5224864959  CLST          31          1.0000000000
        93        31  TIP3  H2           -5.0576184101       -9.5210004198       -9.3755064231  CLST          31          1.0000000000
        94        32  TIP3  OH2           4.4202786429        6.4379210564       15.0343710322  CLST          32          1.0000000000
        95        32  TIP3  H1            5.1960791098        6.8083273295       14.5670175151  CLST          32          1.0000000000
        96        32  TIP3  H2            3.6239744192        6.4830143330       14.4891165011  CLST          32          1.0000000000
        97        33  TIP3  OH2           1.7510691588       -5.3720936675       11.8836662422  CLST          33          1.0000000000
        98        33  TIP3  H1            1.7411206243       -4.7037612396       12.5680038582  CLST          33          1.0000000000
        99        33  TIP3  H2            1.9685043607       -4.8801859518       11.0915899250  CLST          33          1.0000000000
       100        34  TIP3  OH2         -12.4551072835       -6.6731543315        5.6349018745  CLST          34          1.0000000000
       101        34  TIP3  H1          -12.5903857851       -6.2556639547        4.7329292658  CLST          34          1.0000000000
       102        34  TIP3  H2          -13.3612916251       -6.9911245249        5.7438523341  CLST          34          1.0000000000
       103        35  TIP3  OH2         -12.7262204577        9.3662238361       14.4028018511  CLST          35          1.0000000000
       104        35  TIP3  H1          -13.1239263526        9.8354989293       13.6684171890  CLST          35          1.0000000000
       105        35  TIP3  H2          -13.3803104916        9.3967413750       15.0828567514  CLST          35          1.0000000000
       106        36  TIP3  OH2           6.6488799219       -8.6983075433      -11.6266027640  CLST          36          1.0000000000
       107        36  TIP3  H1            7.3521943809       -8.7173215014      -10.9034972530  CLST          36          1.0000000000
       108        36  TIP3  H2            7.0648055282       -9.3485930502      -12.2372481222  CLST          36          1.0000000000
       109        37  TIP3  OH2          10.5351872753      -12.0103791876        6.4139531556  CLST          37          1.0000000000
       110        37  TIP3  H1            9.7672867804      -11.9173163676        7.0456807891  CLST          37          1.0000000000
       111        37  TIP3  H2           11.1678327960      -12.3699891728        7.0714619538  CLST          37          1.0000000000
       112        38  TIP3  OH2           5.7406814424      -12.2255072716       -0.5121667428  CLST          38          1.0000000000
       113        38  TIP3  H1            6.5171121481      -12.7897281577       -0.3529516404  CLST          38          1.0000000000
       114        38  TIP3  H2            5.3866865409      -12.4997014619       -1.3836137976  CLST          38          1.0000000000
       115        39  TIP3  OH2          13.4516680685        6.3648565517       -6.8490017312  CLST          39          1.0000000000
       116        39  TIP3  H1           13.5661826279        5.4061127591       -7.0862459461  CLST          39          1.0000000000
       117        39  TIP3  H2           12.6636031968        6.1572580831       -6.2821709135  CLST          39          1.0000000000
       118        40  TIP3  OH2          -4.7037049149       14.3140537223       -6.0303182817  CLST          40          1.0000000000
       119        40  TIP3  H1           -5.4845644002       14.6105385008       -5.5717718252  CLST          40          1.0000000000
       120        40  TIP3  H2           -4.2987170584       13.6683568965       -5.4008742900  CLST          40          1.0000000000
       121        41  TIP3  OH2          11.1405234614        5.5922629686      -11.1888143916  CLST          41          1.0000000000
       122        41  TIP3  H1           10.9652430648        5.0999586894      -12.0180710323  CLST          41          1.0000000000
       123        41  TIP3  H2           10.4911450653        6.3540470664      -11.3658582952  CLST          41          1.0000000000
       124        42  TIP3  OH2          -1.2130468890       -6.8421605611       -2.2594671736  CLST          42          1.0000000000
       125        42  TIP3  H1           -1.6704291024       -6.0997102377       -2.6992655672  CLST          42          1.0000000000
       126        42  TIP3  H2           -1.2764356448       -7.5081924578       -3.0005694104  CLST          42          1.0000000000
       127        43  TIP3  OH2           9.8396875579      -11.1498581384       -1.7877665979  CLST          43          1.0000000000
       128        43  TIP3  H1            9.3406612178      -11.3312012192       -0.9410690094  CLST          43          1.0000000000
       129        43  TIP3  H2            9.4314008359      -11.9581220036       -2.2143382246  CLST          43          1.0000000000
       130        44  TIP3  OH2           0.5120185269       -3.1712495331        6.7377744100  CLST          44          1.0000000000
       131        44  TIP3  H1           -0.3928347562       -3.1317127586        7.1285694479  CLST          44          1.0000000000
       132        44  TIP3  H2            0.4641278352       -4.0866914918        6.4351827460  CLST          44          1.0000000000
       133        45  TIP3  OH2           4.7891874792       -6.3009501615        9.1171702508  CLST          45          1.0000000000
       134        45  TIP3  H1            4.3595831050       -5.4226450596        9.1851242746  CLST          45          1.0000000000
       135        45  TIP3  H2            5.1199898231       -6.3779348787       10.0437151265  CLST          45          1.0000000000
       136        46  TIP3  OH2           7.6899413532        4.8392268239       -8.2172192771  CLST          46          1.0000000000
       137        46  TIP3  H1            7.2545009192        5.3648216372       -7.5037682747  CLST          46          1.0000000000
       138        46  TIP3  H2            7.1111101128        5.1341513257       -8.9408147455  CLST          46          1.0000000000
       139        47  TIP3  OH2         -10.9810239351      -11.0148419586        3.2325479731  CLST          47          1.0000000000
       140        47  TIP3  H1          -11.1319654207      -10.3568981357        3.9407675138  CLST          47          1.0000000000
       141        47  TIP3  H2          -10.7635590044      -11.8020590603        3.8025973000  CLST          47          1.0000000000
       142        48  TIP3  OH2         -14.3573823733        9.4248172769        8.7841193615  CLST          48          1.0000000000
       143        48  TIP3  H1          -14.3437933634        9.9488818950        7.9319357040  CLST          48          1.0000000000
       144        48  TIP3  H2          -13.5930171802        9.8892096535        9.1780870190  CLST          48          1.0000000000
       145        49  TIP3  OH2           8.6766871667       -4.4691837193        4.1073609951  CLST          49          1.0000000000
       146        49  TIP3  H1            7.7628318487       -4.6192313603        3.7887636686  CLST          49          1.0000000000
       147        49  TIP3  H2            9.1373340064       -4.3891790822        3.2311309629  CLST          49          1.0000000000
       148        50  TIP3  OH2          11.1401444103        5.6770016458       -5.1709610513  CLST          50          1.0000000000
       149        50  TIP3  H1           11.4565600725        4.7853618465       -4.7862648066  CLST          50          1.0000000000
       150        50  TIP3  H2           10.1893128017        5.4778387125       -5.0006423685  CLST          50          1.0000000000
       151        51  TIP3  OH2          12.8821954469       -1.2978974899      -10.5240901606  CLST          51          1.0000000000
       152        51  TIP3  H1           13.2734491284       -1.9163276433      -11.2055153821  CLST          51          1.0000000000
       153        51  TIP3  H2           12.4305453085       -0.7319274158      -11.2251937588  CLST          51          1.0000000000
       154        52  TIP3  OH2          -1.5812924471       -1.4154362131       10.2581654826  CLST          52          1.0000000000
       155        52  TIP3  H1           -2.3689149103       -1.0982643643       10.7495381680  CLST          52          1.0000000000
       156        52  TIP3  H2           -1.2265531708       -2.0747831261       10.8928437474  CLST          52          1.0000000000
       157        53  TIP3  OH2         -10.9979336647       14.2677926638       -6.9313942548  CLST          53          1.0000000000
       158        53  TIP3  H1          -11.4041449658       15.0828567514       -6.4713426345  CLST          53          1.0000000000
       159        53  TIP3  H2          -10.1001441195       14.6787304265       -6.9006279795  CLST          53          1.0000000000
       160        54  TIP3  OH2         -13.9319212605       -5.4843229506       -8.1385742997  CLST          54          1.0000000000
       161        54  TIP3  H1          -12.9467887218       -5.5755693591       -7.9962595832  CLST          54          1.0000000000
       162        54  TIP3  H2          -13.9561202946       -5.0240128841       -9.0390093426  CLST          54          1.0000000000
       163        55  TIP3  OH2           0.4399686437        9.5642740586      -10.5340623271  CLST          55          1.0000000000
       164        55  TIP3  H1           -0.1642364905       10.1017010615      -11.0978907945  CLST          55          1.0000000000
       165        55  TIP3  H2            0.6685995231       10.2566070843       -9.8722287185  CLST          55          1.0000000000
       166        56  TIP3  OH2          -1.5357030305       -5.1387305731       14.0208143421  CLST          56          1.0000000000
       167        56  TIP3  H1           -2.2767165361       -4.6934016119       14.4775589644  CLST          56          1.0000000000
       168        56  TIP3  H2           -1.8454457127       -6.0383273793       14.0204765667  CLST          56          1.0000000000
       169        57  TIP3  OH2         -10.4874205527       11.3811555693       -1.5550789657  CLST          57          1.0000000000
       170        57  TIP3  H1          -10.8452582042       11.7668907301       -0.7000523916  CLST          57          1.0000000000
       171        57  TIP3  H2          -11.3162182903       11.4419854427       -2.0983599005  CLST          57          1.0000000000
       172        58  TIP3  OH2           9.7746408603        1.4843502408        0.1798435074  CLST          58          1.0000000000
       173        58  TIP3  H1            8.8141878124        1.2206019491        0.2074608792  CLST          58          1.0000000000
       174        58  TIP3  H2            9.7080688087        2.4191095771        0.5374243878  CLST          58          1.0000000000
       175        59  TIP3  OH2         -13.0573375242       13.0791621916        5.3212729300  CLST          59          1.0000000000
       176        59  TIP3  H1          -12.8898472144       13.4152223262        4.3959135581  CLST          59          1.0000000000
       177        59  TIP3  H2          -12.2135659427       12.5528634341        5.2650060548  CLST          59          1.0000000000
       178        60  TIP3  OH2          -3.9561542447        3.0941834279        7.1051634971  CLST          60          1.0000000000
       179        60  TIP3  H1           -3.3268244146        2.3977683922        7.4014381714  CLST          60          1.0000000000
       180        60  TIP3  H2           -3.5289014341        3.9230861185        7.4044924362  CLST          60          1.0000000000
       181        61  TIP3  OH2           0.4380619072       -1.9431760665        0.4926836662  CLST          61          1.0000000000
       182        61  TIP3  H1           -0.1631691522       -1.3228001169        0.9782427985  CLST          61          1.0000000000
       183        61  TIP3  H2            0.0297476668       -2.8181566158        0.6349353813  CLST          61          1.0000000000
       184        62  TIP3  OH2          -3.9010901104        8.8441122010        4.3432621409  CLST          62          1.0000000000
       185        62  TIP3  H1           -3.3557666908        8.3209630694        4.9836813042  CLST          62          1.0000000000
       186        62  TIP3  H2           -3.1259240914        9.4153168973        4.0586160831  CLST          62          1.0000000000
       187        63  TIP3  OH2          -0.2982227438        7.5706700302       -3.0398436468  CLST          63          1.0000000000
       188        63  TIP3  H1           -0.6716524087        8.3869299780       -3.4967055764  CLST          63          1.0000000000
       189        63  TIP3  H2           -0.8797296629        7.7015337571       -2.2243507020  CLST          63          1.0000000000
       190        64  TIP3  OH2         -13.6547080386        3.4800411898       -3.4592777373  CLST          64          1.0000000000
       191        64  TIP3  H1          -12.9503428317        3.9999025990       -3.0641836645  CLST          64          1.0000000000
       192        64  TIP3  H2          -14.4971299345        3.9797046614       -3.3467056300  CLST          64          1.0000000000
       193        65  TIP3  OH2          -9.2846253828      -12.0985249128      -11.7891921370  CLST          65          1.0000000000
       194        65  TIP3  H1           -9.3852328736      -12.3500885605      -10.8411943010  CLST          65          1.0000000000
       195        65  TIP3  H2          -10.2437399307      -11.9443370593      -11.9547057967  CLST          65          1.0000000000
       196        66  TIP3  OH2          12.9507538979       -7.9349096138        3.7383441965  CLST          66          1.0000000000
       197        66  TIP3  H1           13.2964647068       -8.6092975313        3.1111758259  CLST          66          1.0000000000
       198        66  TIP3  H2           12.6757477505       -8.5616529158        4.4680173233  CLST          66          1.0000000000
       199        67  TIP3  OH2           7.3830722185       -0.6414177212       -6.4238609739  CLST          67          1.0000000000
       200        67  TIP3  H1            7.9662748428       -1.0970610270       -5.7711889074  CLST          67          1.0000000000
       201        67  TIP3  H2            8.0377791532       -0.0915831807       -6.8900527135  CLST          67          1.0000000000
       202        68  TIP3  OH2          -6.9288691220        1.0287177447        0.8034923627  CLST          68          1.0000000000
       203        68  TIP3  H1           -7.7133260028        0.4710610770        1.0512366334  CLST          68          1.0000000000
       204        68  TIP3  H2           -6.9681178634        1.6654598018        1.5693158325  CLST          68          1.0000000000
       205        69  TIP3  OH2         -11.7749514137       -0.5912278581        7.1896688671  CLST          69          1.0000000000
       206        69  TIP3  H1          -10.9510388828       -1.0680349822        7.4642155110  CLST          69          1.0000000000
       207        69  TIP3  H2          -11.5025102318        0.3181998037        7.4924575678  CLST          69          1.0000000000
       208        70  TIP3  OH2          -1.8157278154        7.3321215998       -8.1914959970  CLST          70          1.0000000000
       209        70  TIP3  H1           -0.8458901228        7.1497637786       -8.2782655671  CLST          70          1.0000000000
       210        70  TIP3  H2           -1.7075444992        8.2957401197       -7.9772580635  CLST          70          1.0000000000
       211        71  TIP3  OH2         -13.4990690470       -1.5711666961       -5.6265932383  CLST          71          1.0000000000
       212        71  TIP3  H1          -13.0983463574       -1.4191960469       -4.7277523449  CLST          71          1.0000000000
       213        71  TIP3  H2          -13.4519077416       -0.6725103104       -6.0184909137  CLST          71          1.0000000000
       214        72  TIP3  OH2          11.0877504142       -2.6294290827        4.9989027956  CLST          72          1.0000000000
       215        72  TIP3  H1           10.6523833224       -2.7696506500        4.1205053658  CLST          72          1.0000000000
       216        72  TIP3  H2           11.4800517702       -1.7496429759        4.7550880879  CLST          72          1.0000000000
       217        73  TIP3  OH2          -3.7298766357      -13.4133611553       -6.5842869940  CLST          73          1.0000000000
       218        73  TIP3  H1           -3.7695658821      -13.1442089652       -7.5391221705  CLST          73          1.0000000000
       219        73  TIP3  H2           -3.9606820490      -14.3522117162       -6.5701220471  CLST          73          1.0000000000
       220        74  TIP3  OH2          -4.6851988187       12.3603391921       -1.4692130371  CLST          74          1.0000000000
       221        74  TIP3  H1           -5.2178340853       11.5625632588       -1.7426111076  CLST          74          1.0000000000
       222        74  TIP3  H2           -5.3170579334       13.0781483894       -1.6761061115  CLST          74          1.0000000000
       223        75  TIP3  OH2          -9.6214891025        4.8712645034        5.3991366691  CLST          75          1.0000000000
       224        75  TIP3  H1           -8.8836479424        5.4451771210        5.7117794388  CLST          75          1.0000000000
       225        75  TIP3  H2          -10.1297744719        5.0481492206        6.2606902252  CLST          75          1.0000000000
       226        76  TIP3  OH2           8.4233283314       13.4029932781       -9.0798708433  CLST          76          1.0000000000
       227        76  TIP3  H1            8.5174732618       13.7214031410       -9.9985054809  CLST          76          1.0000000000
       228        76  TIP3  H2            9.3868259821       13.0558526679       -9.0565477883  CLST          76          1.0000000000
       229        77  TIP3  OH2           0.4274265683       -5.2381039445       -5.4800849812  CLST          77          1.0000000000
       230        77  TIP3  H1            0.7534103296       -5.0534114527       -6.3927477247  CLST          77          1.0000000000
       231        77  TIP3  H2           -0.4211530480       -5.6476260662       -5.8265110364  CLST          77          1.0000000000
       232        78  TIP3  OH2          -5.4704341982       -8.2108856069        1.4688169970  CLST          78          1.0000000000
       233        78  TIP3  H1           -5.1380721124       -7.7046375272        0.6712993569  CLST          78          1.0000000000
       234        78  TIP3  H2           -5.9570271910       -8.9234282410        1.0041851256  CLST          78          1.0000000000
       235        79  TIP3  OH2           6.8118902087      -14.2183646535       10.2555233380  CLST          79          1.0000000000
       236        79  TIP3  H1            6.4468164928      -14.4615837318       11.1199479811  CLST          79          1.0000000000
       237        79  TIP3  H2            6.0691683990      -13.8421132833        9.7371344556  CLST          79          1.0000000000
       238        80  TIP3  OH2           6.5499358512       -0.2072065036      -13.1382848711  CLST          80          1.0000000000
       239        80  TIP3  H1            6.4194033151        0.1345688468      -14.0693599914  CLST          80          1.0000000000
       240        80  TIP3  H2            7.5074344075        0.0151198134      -12.9981435761  CLST          80          1.0000000000
       241        81  TIP3  OH2          -7.4019342622        1.0123405298        6.0143501942  CLST          81          1.0000000000
       242        81  TIP3  H1           -8.3063909767        1.3754348671        5.9231132538  CLST          81          1.0000000000
       243        81  TIP3  H2           -7.0051149845        1.9120300947        5.9047535509  CLST          81          1.0000000000
       244        82  TIP3  OH2           2.1927180743       -1.8925768145       10.7587834683  CLST          82          1.0000000000
       245        82  TIP3  H1            2.6232978635       -1.0487828061       10.4494883959  CLST          82          1.0000000000
       246        82  TIP3  H2            3.0291023689       -2.4208386785       10.8826424502  CLST          82          1.0000000000
       247        83  TIP3  OH2          10.2864320691        8.3164403947       -5.0415651812  CLST          83          1.0000000000
       248        83  TIP3  H1           10.5905880027        7.4692155410       -5.4581997976  CLST          83          1.0000000000
       249        83  TIP3  H2           10.6572056197        8.0630616316       -4.1382544710  CLST          83          1.0000000000
       250        84  TIP3  OH2         -13.4206234718        8.0350019295       -1.2290645793  CLST          84          1.0000000000
       251        84  TIP3  H1          -14.1068186519        7.4191456361       -0.8690572986  CLST          84          1.0000000000
       252        84  TIP3  H2          -12.6523113740        7.4474993817       -0.9901640529  CLST          84          1.0000000000
       253        85  TIP3  OH2           2.4236076667       -1.3904592647        7.7317069908  CLST          85          1.0000000000
       254        85  TIP3  H1            2.0030897717       -2.0732447813        7.1408513044  CLST          85          1.0000000000
       255        85  TIP3  H2            3.1424507640       -1.9881216644        8.0946615776  CLST          85          1.0000000000
       256        86  TIP3  OH2           8.1103716083       -9.2726296430        9.8446654883  CLST          86          1.0000000000
       257        86  TIP3  H1            8.2758330732       -8.3926768350       10.2438496041  CLST          86          1.0000000000
       258        86  TIP3  H2            7.4644600221       -9.6655383325       10.4530386835  CLST          86          1.0000000000
       259        87  TIP3  OH2           0.4952258728       -1.3397178283       12.8505788520  CLST          87          1.0000000000
       260        87  TIP3  H1            0.9984527272       -1.3869087212       11.9921544918  CLST          87          1.0000000000
       261        87  TIP3  H2            0.2213511484       -0.3739974229       12.8206288737  CLST          87          1.0000000000
       262        88  TIP3  OH2          14.4063351577      -11.3147834750        8.1346626642  CLST          88          1.0000000000
       263        88  TIP3  H1           13.4873404615      -11.6443344744        8.4368270930  CLST          88          1.0000000000
       264        88  TIP3  H2           14.8386455604      -12.0173962907        8.6226820749  CLST          88          1.0000000000
       265        89  TIP3  OH2           6.6799234227       11.7144037743       -3.9625004424  CLST          89          1.0000000000
       266        89  TIP3  H1            5.7817042349       12.0688958033       -3.7806558103  CLST          89          1.0000000000
       267        89  TIP3  H2            6.6366810039       10.9080116491       -3.3816744361  CLST          89          1.0000000000
       268        90  TIP3  OH2          14.5131734355       -4.6839258821       -0.2581638023  CLST          90          1.0000000000
       269        90  TIP3  H1           14.0136227636       -5.2571812102       -0.8973108228  CLST          90          1.0000000000
       270        90  TIP3  H2           14.4519057225       -5.2608389657        0.5376568871  CLST          90          1.0000000000
       271        91  TIP3  OH2          11.4996188290       10.7160938807       -5.7279099949  CLST          91          1.0000000000
       272        91  TIP3  H1           11.2329384079        9.7368008324       -5.5958773797  CLST          91          1.0000000000
       273        91  TIP3  H2           10.6505015801       11.0648889238       -5.3329505477  CLST          91          1.0000000000
       274        92  TIP3  OH2          -6.2270787290        3.5882165760        8.6395587024  CLST          92          1.0000000000
       275        92  TIP3  H1           -5.5861956477        3.2238671093        7.9561510763  CLST          92          1.0000000000
       276        92  TIP3  H2           -6.5016580108        2.7226857851        9.0725522220  CLST          92          1.0000000000
       277        93  TIP3  OH2           5.2367854433       -6.5301162301       11.9156228932  CLST          93          1.0000000000
       278        93  TIP3  H1            5.1612835640       -5.8491084518       12.6669590769  CLST          93          1.0000000000
       279        93  TIP3  H2            5.9858243081       -7.0036548297       12.2930201529  CLST          93          1.0000000000
       280        94  TIP3  OH2          -6.0116316655       12.0737917918        4.4423836145  CLST          94          1.0000000000
       281        94  TIP3  H1           -6.1167258332       11.7744625522        3.4993647095  CLST          94          1.0000000000
       282        94  TIP3  H2           -6.0927759663       11.1737027297        4.8725532150  CLST          94          1.0000000000
       283        95  TIP3  OH2           6.6742256214       11.2858244277       -0.3806155853  CLST          95          1.0000000000
       284        95  TIP3  H1            6.8054238485       10.6488839161       -1.1463733020  CLST          95          1.0000000000
       285        95  TIP3  H2            6.4318298534       10.6122478694        0.3042585826  CLST          95          1.0000000000
       286        96  TIP3  OH2          14.7123262631       -0.6709344471       12.2511321571  CLST          96          1.0000000000
       287        96  TIP3  H1           15.0447826938       -1.5133709815       12.6301986228  CLST          96          1.0000000000
       288        96  TIP3  H2           13.9055370505       -0.9716468732       11.7234583069  CLST          96          1.0000000000
       289        97  TIP3  OH2          -8.5054667001        9.5551777436       12.9811107774  CLST          97          1.0000000000
       290        97  TIP3  H1           -8.3685802163        9.1660360887       12.0927415126  CLST          97          1.0000000000
       291        97  TIP3  H2           -7.5305729042        9.5357488895       13.1825095771  CLST          97          1.0000000000
       292        98  TIP3  OH2           1.6055988014        4.2712332004       14.0910380149  CLST          98          1.0000000000
       293        98  TIP3  H1            1.9223275573        4.7140484143       13.2572565216  CLST          98          1.0000000000
       294        98  TIP3  H2            2.2038311246        3.4676750797       14.1002629482  CLST          98          1.0000000000
       295        99  TIP3  OH2         -12.5209024172       12.4048364415       -5.4094330420  CLST          99          1.0000000000
       296        99  TIP3  H1          -13.1377555367       12.4892130423       -6.1427941327  CLST          99          1.0000000000
       297        99  TIP3  H2          -11.8019154728       13.0169842678       -5.8231842160  CLST          99          1.0000000000
       298       100  TIP3  OH2           9.2529206082       -3.8221876183       -6.8410509752  CLST         100          1.0000000000
       299       100  TIP3  H1            8.4449612443       -3.7679077861       -6.3283536891  CLST         100          1.0000000000
       300       100  TIP3  H2            9.2094059555       -4.7815068642       -6.8233446549  CLST         100          1.0000000000
       301       101  TIP3  OH2          11.4482513092        2.1686998830      -10.2026900853  CLST         101          1.0000000000
       302       101  TIP3  H1           11.2286633461        2.8119092505       -9.5874217674  CLST         101          1.0000000000
       303       101  TIP3  H2           11.9583903552        1.6416135342       -9.5985585175  CLST         101          1.0000000000
       304       102  TIP3  OH2          -7.0920091443        2.3435041115      -12.8814675300  CLST         102          1.0000000000
       305       102  TIP3  H1           -7.8643107872        1.8973955667      -13.1928441774  CLST         102          1.0000000000
       306       102  TIP3  H2           -7.5521757992        3.1779650846      -12.8410306564  CLST         102          1.0000000000
       307       103  TIP3  OH2          -4.4993231359      -14.0464488741      -11.3645384456  CLST         103          1.0000000000
       308       103  TIP3  H1           -4.3955595307      -14.9403204350      -11.5485178639  CLST         103          1.0000000000
       309       103  TIP3  H2           -5.4376354564      -14.1222885258      -11.5917694953  CLST         103          1.0000000000
       310       104  TIP3  OH2         -10.9138833005      -11.5878217126        7.7724995261  CLST         104          1.0000000000
       311       104  TIP3  H1          -10.1691921501      -11.1812149985        7.3194935985  CLST         104          1.0000000000
       312       104  TIP3  H2          -10.6665579630      -11.2439963388        8.6237947035  CLST         104          1.0000000000
       313       105  TIP3  OH2           4.6553251233       -0.3973694170       14.2072742581  CLST         105          1.0000000000
       314       105  TIP3  H1            3.9233144749       -1.0047737963       14.3620168010  CLST         105          1.0000000000
       315       105  TIP3  H2            4.7747765631       -0.8422554718       13.3435704258  CLST         105          1.0000000000
       316       106  TIP3  OH2          14.2974644478       -1.3947435440        4.8428577139  CLST         106          1.0000000000
       317       106  TIP3  H1           14.6320162204       -0.7690156565        5.4551441223  CLST         106          1.0000000000
       318       106  TIP3  H2           13.5591819723       -0.7869809102        4.6810664887  CLST         106          1.0000000000
       319       107  TIP3  OH2           1.6871983692      -12.5458633243       -7.2732605689  CLST         107          1.0000000000
       320       107  TIP3  H1            0.8095196808      -12.4318505678       -7.0796385295  CLST         107          1.0000000000
       321       107  TIP3  H2            1.8277471182      -12.7204127092       -6.3366634728  CLST         107          1.0000000000
       322       108  TIP3  OH2          -7.0448603929       -3.8791295856       14.3555865226  CLST         108          1.0000000000
       323       108  TIP3  H1           -7.0927726091       -4.7676692403       14.6354173690  CLST         108          1.0000000000
       324       108  TIP3  H2           -7.7901998680       -3.8679735299       13.7186670109  CLST         108          1.0000000000
       325       109  TIP3  OH2          -4.2318798295       -1.1707809712       11.4453917002  CLST         109          1.0000000000
       326       109  TIP3  H1           -4.3173585372       -2.1043272571       11.6460117330  CLST         109          1.0000000000
       327       109  TIP3  H2           -4.5156060280       -1.2320548164       10.5115383747  CLST         109          1.0000000000
       328       110  TIP3  OH2           1.1684276140       -3.6014625795       -3.2990482512  CLST         110          1.0000000000
       329       110  TIP3  H1            1.0660963587       -4.2677435489       -4.0055346339  CLST         110          1.0000000000
       330       110  TIP3  H2            0.3232265095       -3.7652990341       -2.9292753063  CLST         110          1.0000000000
       331       111  TIP3  OH2          -4.9903791163       -0.8856475475       -6.2370474138  CLST         111          1.0000000000
       332       111  TIP3  H1           -4.4813165827       -0.8443129540       -6.9518128454  CLST         111          1.0000000000
       333       111  TIP3  H2           -4.4170274337       -1.8085040194       -6.6189550829  CLST         111          1.0000000000
       334       112  TIP3  OH2           2.1851053003      -12.2955857882       -4.4793327843  CLST         112          1.0000000000
       335       112  TIP3  H1            1.8657943669      -12.4640081864       -3.6121745391  CLST         112          1.0000000000
       336       112  TIP3  H2            2.0539242122      -11.3597656994       -4.4029994732  CLST         112          1.0000000000
       337       113  TIP3  OH2          14.0365696266        5.9278535002       12.6523723017  CLST         113          1.0000000000
       338       113  TIP3  H1           14.0039837838        6.7760851965       12.2113974515  CLST         113          1.0000000000
       339       113  TIP3  H2           14.6271427743        5.6972360632       11.8890726397  CLST         113          1.0000000000
       340       114  TIP3  OH2          -4.8936943981      -11.3131452536       -4.7834175613  CLST         114          1.0000000000
       341       114  TIP3  H1           -4.7224699461      -10.5897237489       -5.3536971284  CLST         114          1.0000000000
       342       114  TIP3  H2           -4.4566809882      -11.9678975366       -5.3389583419  CLST         114          1.0000000000
       343       115  TIP3  OH2           4.7477962434      -13.9178676362       -9.1124804893  CLST         115          1.0000000000
       344       115  TIP3  H1            4.7296893890      -14.2808322209      -10.1650062677  CLST         115          1.0000000000
       345       115  TIP3  H2            4.2885673760      -13.4324898702      -10.0081101265  CLST         115          1.0000000000
       346       116  TIP3  OH2           8.3701856657        5.7833840129      -14.1586635469  CLST         116          1.0000000000
       347       116  TIP3  H1            9.1159246330        5.2153343382      -14.1757995258  CLST         116          1.0000000000
       348       116  TIP3  H2            7.8823680746        5.1208561466      -13.6729006995  CLST         116          1.0000000000
       349       117  TIP3  OH2          -0.0241491757        1.4301428814       13.1322708272  CLST         117          1.0000000000
       350       117  TIP3  H1           -0.4293287524        1.9138872986       13.8863121447  CLST         117          1.0000000000
       351       117  TIP3  H2            0.8348547477        1.7657261819       13.4358784722  CLST         117          1.0000000000
       352       118  TIP3  OH2          12.8269890179       -9.6980900356       -6.7770626723  CLST         118          1.0000000000
       353       118  TIP3  H1           12.2360414771       -9.4575709515       -6.0599140887  CLST         118          1.0000000000
       354       118  TIP3  H2           13.3756028803       -8.9167919218       -6.6244806148  CLST         118          1.0000000000
       355       119  TIP3  OH2         -11.9658905985       -1.2986670577        4.4568553222  CLST         119          1.0000000000
       356       119  TIP3  H1          -11.0772626221       -1.5401081523        4.5461882967  CLST         119          1.0000000000
       357       119  TIP3  H2          -12.0501385521       -1.0852647488        5.4457309340  CLST         119          1.0000000000
       358       120  TIP3  OH2         -11.6963039024        4.0480006374       -7.8299027043  CLST         120          1.0000000000
       359       120  TIP3  H1          -12.1200719148        4.3831927529       -8.5698775997  CLST         120          1.0000000000
       360       120  TIP3  H2          -12.5348803400        3.8676477415       -7.4024723699  CLST         120          1.0000000000
       361       121  TIP3  OH2          -5.8526568449       -6.9781947954        3.9270990268  CLST         121          1.0000000000
       362       121  TIP3  H1           -5.6091577505       -7.2344993511        2.9935502969  CLST         121          1.0000000000
       363       121  TIP3  H2           -6.7147591588       -6.6751879718        3.6727874829  CLST         121          1.0000000000
       364       122  TIP3  OH2           9.2512137983       -7.1177634016       -6.7195983559  CLST         122          1.0000000000
       365       122  TIP3  H1            9.1501927436       -8.0634930560       -6.6454770007  CLST         122          1.0000000000
       366       122  TIP3  H2            9.9740675408       -7.2715173025       -7.3018038181  CLST         122          1.0000000000
       367       123  TIP3  OH2          -6.9334336454      -10.4217832695        0.2739407957  CLST         123          1.0000000000
       368       123  TIP3  H1           -7.1790421978      -10.2794591402       -0.6447558907  CLST         123          1.0000000000
       369       123  TIP3  H2           -7.7798344333      -10.0387557390        0.5604738829  CLST         123          1.0000000000
       370       124  TIP3  OH2         -13.0151458299       -2.0303609386       -9.8451404150  CLST         124          1.0000000000
       371       124  TIP3  H1          -13.9683715732       -2.0474629679       -9.6559135758  CLST         124          1.0000000000
       372       124  TIP3  H2          -13.1462973109       -2.8718978491      -10.3325584986  CLST         124          1.0000000000
       373       125  TIP3  OH2           6.6376607665        2.7682908020       -5.2483127111  CLST         125          1.0000000000
       374       125  TIP3  H1            6.4825649693        1.9084740776       -4.8005262649  CLST         125          1.0000000000
       375       125  TIP3  H2            5.9242600575        2.6695999701       -5.8733066069  CLST         125          1.0000000000
       376       126  TIP3  OH2          12.3745950000       -9.9077493569        5.5227240639  CLST         126          1.0000000000
       377       126  TIP3  H1           12.0172030315      -10.7480208305        5.1486825573  CLST         126          1.0000000000
       378       126  TIP3  H2           12.3052121591      -10.1347182729        6.4649034607  CLST         126          1.0000000000
       379       127  TIP3  OH2         -10.3481343815       -5.8367602315       -5.0149420049  CLST         127          1.0000000000
       380       127  TIP3  H1          -10.1802570696       -5.2823256337       -4.2269224681  CLST         127          1.0000000000
       381       127  TIP3  H2           -9.7255747537       -6.5083327255       -4.7037120071  CLST         127          1.0000000000
       382       128  TIP3  OH2          -6.3085727784       -3.5705175943        7.0223143456  CLST         128          1.0000000000
       383       128  TIP3  H1           -5.7580901570       -4.3707921493        6.9450702393  CLST         128          1.0000000000
       384       128  TIP3  H2           -6.2689092866       -3.2592058239        6.1423041519  CLST         128          1.0000000000
       385       129  TIP3  OH2         -11.9577641925      -14.4219721010      -10.6186073655  CLST         129          1.0000000000
       386       129  TIP3  H1          -11.2096626562      -14.2327150720      -10.0742144119  CLST         129          1.0000000000
       387       129  TIP3  H2          -12.2642069581      -14.9865600376       -9.8963556064  CLST         129          1.0000000000
       388       130  TIP3  OH2           9.0489840032       -0.8932030488       14.1260563068  CLST         130          1.0000000000
       389       130  TIP3  H1            8.7691462014       -1.5596889867       14.8012545855  CLST         130          1.0000000000
       390       130  TIP3  H2            8.0647753885       -0.7802871369       14.1007605990  CLST         130          1.0000000000
       391       131  TIP3  OH2          -9.8308543332      -11.3198513604       -1.1967451416  CLST         131          1.0000000000
       392       131  TIP3  H1           -9.1020749902      -11.7283279429       -0.7682058244  CLST         131          1.0000000000
       393       131  TIP3  H2          -10.4441785029      -11.6362198778       -0.5841441555  CLST         131          1.0000000000
       394       132  TIP3  OH2           9.3138988364       -2.4986773101        9.4515127910  CLST         132          1.0000000000
       395       132  TIP3  H1            9.9803112903       -2.0604605304        8.9402774628  CLST         132          1.0000000000
       396       132  TIP3  H2            9.3436237265       -1.7333849917        9.9956376196  CLST         132          1.0000000000
       397       133  TIP3  OH2          -9.5603940127       -7.7817988048        7.6857812429  CLST         133          1.0000000000
       398       133  TIP3  H1           -8.7629889795       -8.2610172037        7.9015850557  CLST         133          1.0000000000
       399       133  TIP3  H2           -9.0208202035       -7.2729165884        7.0694584615  CLST         133          1.0000000000
       400       134  TIP3  OH2          -8.8652891440      -12.4784533205       14.5073359748  CLST         134          1.0000000000
       401       134  TIP3  H1           -9.6299148124      -12.4946213005       13.8322272242  CLST         134          1.0000000000
       402       134  TIP3  H2           -9.0677795308      -11.7232490419       13.7022305523  CLST         134          1.0000000000
       403       135  TIP3  OH2          -9.1032857895       10.8995816786        3.3524596538  CLST         135          1.0000000000
       404       135  TIP3  H1           -9.0544052972       10.2824921811        2.6232205650  CLST         135          1.0000000000
       405       135  TIP3  H2           -8.1737763020       10.6712450499        3.5400398244  CLST         135          1.0000000000
       406       136  TIP3  OH2          -5.1176785879       13.3694499294      -11.4464737761  CLST         136          1.0000000000
       407       136  TIP3  H1           -5.1442513911       13.2555925119      -10.5230767260  CLST         136          1.0000000000
       408       136  TIP3  H2           -5.8766952214       13.9467649439      -11.4082284842  CLST         136          1.0000000000
       409       137  TIP3  OH2          -5.8357059047      -11.0338953476        7.6934686766  CLST         137          1.0000000000
       410       137  TIP3  H1           -5.3718828053      -10.8781296300        6.8543561435  CLST         137          1.0000000000
       411       137  TIP3  H2           -5.1630409335      -11.7086513969        7.8360733909  CLST         137          1.0000000000
       412       138  TIP3  OH2          10.0700048199        8.4329249982       10.9762144935  CLST         138          1.0000000000
       413       138  TIP3  H1            9.9362637261        7.6624522096       11.5634063673  CLST         138          1.0000000000
       414       138  TIP3  H2           10.4748891323        8.9043230275       11.6698321177  CLST         138          1.0000000000
       415       139  TIP3  OH2           2.2174002351        9.6633045495       12.4018756154  CLST         139          1.0000000000
       416       139  TIP3  H1            3.1560493010        9.7156299103       12.3428937134  CLST         139          1.0000000000
       417       139  TIP3  H2            2.2539642496        9.0014698423       13.0426318906  CLST         139          1.0000000000
       418       140  TIP3  OH2          -3.2179457007       -1.3762383321       -7.8802146860  CLST         140          1.0000000000
       419       140  TIP3  H1           -2.5591856607       -0.7014602434       -8.1469554443  CLST         140          1.0000000000
       420       140  TIP3  H2           -2.4257087253       -1.8827548151       -7.7489826917  CLST         140          1.0000000000
       421       141  TIP3  OH2         -13.0361913952        5.6460857187       12.5462094581  CLST         141          1.0000000000
       422       141  TIP3  H1          -12.4810228410        6.4445771624       12.5111628415  CLST         141          1.0000000000
       423       141  TIP3  H2          -13.1085846917        5.6341461182       13.5134098009  CLST         141          1.0000000000
       424       142  TIP3  OH2          14.8439568917       -6.5852877529        5.3043198580  CLST         142          1.0000000000
       425       142  TIP3  H1           13.9768948360       -6.8247237017        4.8486107689  CLST         142          1.0000000000
       426       142  TIP3  H2           14.9077646133       -7.4292575295        5.7718394698  CLST         142          1.0000000000
       427       143  TIP3  OH2           6.5923227062       -6.8085644720        1.9144572513  CLST         143          1.0000000000
       428       143  TIP3  H1            6.9648086428       -7.1714647248        1.1258789808  CLST         143          1.0000000000
       429       143  TIP3  H2            5.6914802743       -6.9811509236        1.5330971791  CLST         143          1.0000000000
       430       144  TIP3  OH2          -1.4660556498      -13.9658596215        7.8126732915  CLST         144          1.0000000000
       431       144  TIP3  H1           -1.1212170706      -14.1584207841        6.9108650646  CLST         144          1.0000000000
       432       144  TIP3  H2           -1.2636762697      -14.8106652531        8.1298899238  CLST         144          1.0000000000
       433       145  TIP3  OH2           2.1104948269        7.2480890447       13.7753775257  CLST         145          1.0000000000
       434       145  TIP3  H1            1.1311710381        7.1923011954       13.5946998017  CLST         145          1.0000000000
       435       145  TIP3  H2            2.2918174867        6.8573870201       12.8970288088  CLST         145          1.0000000000
       436       146  TIP3  OH2          -6.0064801528       10.4732217082       -8.3354212446  CLST         146          1.0000000000
       437       146  TIP3  H1           -5.6750313343       11.3911568068       -8.3875331906  CLST         146          1.0000000000
       438       146  TIP3  H2           -6.8530335062       10.7961775866       -8.0955267133  CLST         146          1.0000000000
       439       147  TIP3  OH2           1.0136566563        3.0743151041       -4.4478858253  CLST         147          1.0000000000
       440       147  TIP3  H1            0.0368139219        3.0676684816       -4.1160762113  CLST         147          1.0000000000
       441       147  TIP3  H2            0.0770638504        3.2707442475       -5.1354265002  CLST         147          1.0000000000
       442       148  TIP3  OH2           7.4401611829        6.5802191624       -3.3894255259  CLST         148          1.0000000000
       443       148  TIP3  H1            8.1351749236        5.9475507876       -3.3459303106  CLST         148          1.0000000000
       444       148  TIP3  H2            6.8993693902        6.0158222114       -2.8198535532  CLST         148          1.0000000000
       445       149  TIP3  OH2          -4.2249695328      -13.3037356234       11.2586440544  CLST         149          1.0000000000
       446       149  TIP3  H1           -4.2277098723      -12.3903212512       11.5696848329  CLST         149          1.0000000000
       447       149  TIP3  H2           -3.3691310523      -13.3793560595       11.7308237708  CLST         149          1.0000000000
       448       150  TIP3  OH2          10.7846067850        1.0943632415       -2.4611776164  CLST         150          1.0000000000
       449       150  TIP3  H1           10.5831643091        1.1767901985       -1.4697276084  CLST         150          1.0000000000
       450       150  TIP3  H2            9.8746195500        0.8636898209       -2.5651621690  CLST         150          1.0000000000
       451       151  TIP3  OH2           3.7478929086      -12.1069645778        4.0914783335  CLST         151          1.0000000000
       452       151  TIP3  H1            3.9380255523      -12.8528805369        3.4900247169  CLST         151          1.0000000000
       453       151  TIP3  H2            3.3015701179      -12.1020066711        2.9642837457  CLST         151          1.0000000000
       454       152  TIP3  OH2           0.5278355387        6.0968173723       -5.9296069089  CLST         152          1.0000000000
       455       152  TIP3  H1            0.7045783023        7.0060910187       -5.8517892669  CLST         152          1.0000000000
       456       152  TIP3  H2            1.4467810150        6.0541403730       -6.2797337750  CLST         152          1.0000000000
       457       153  TIP3  OH2          -1.5065973418       10.1244779148       -7.6463753488  CLST         153          1.0000000000
       458       153  TIP3  H1           -1.5108093196       10.9013052633       -7.0665343293  CLST         153          1.0000000000
       459       153  TIP3  H2           -0.9147671376       10.5169063477       -8.2720296987  CLST         153          1.0000000000
       460       154  TIP3  OH2         -12.0583842255       -7.7958436166       -0.5830252624  CLST         154          1.0000000000
       461       154  TIP3  H1          -12.5564513639       -6.9626409115       -0.2490882563  CLST         154          1.0000000000
       462       154  TIP3  H2          -11.3076070915       -7.2451806957       -0.7547963739  CLST         154          1.0000000000
       463       155  TIP3  OH2          10.5029324143       -4.9775363529       14.3737989211  CLST         155          1.0000000000
       464       155  TIP3  H1           11.0918962467       -4.0333653125       14.0871563763  CLST         155          1.0000000000
       465       155  TIP3  H2           10.6610219653       -4.7859275634       13.5992726141  CLST         155          1.0000000000
       466       156  TIP3  OH2          13.9566034674        1.9308540172        0.1126476277  CLST         156          1.0000000000
       467       156  TIP3  H1           14.6439049018        1.2116576070        0.1560387409  CLST         156          1.0000000000
       468       156  TIP3  H2           13.6517898230        1.5367872936       -0.7434278672  CLST         156          1.0000000000
       469       157  TIP3  OH2           0.2760777789       -5.0816877455       -8.4262143139  CLST         157          1.0000000000
       470       157  TIP3  H1            0.8697485478       -4.5839209324       -9.0213982523  CLST         157          1.0000000000
       471       157  TIP3  H2            0.4735175060       -5.8782912475       -8.8827377666  CLST         157          1.0000000000
       472       158  TIP3  OH2          -6.8674402639       -1.5481904896       -2.2452617704  CLST         158          1.0000000000
       473       158  TIP3  H1           -7.7263916790       -1.7219105795       -2.6402150860  CLST         158          1.0000000000
       474       158  TIP3  H2           -6.6128318055       -2.3211001057       -2.7817767550  CLST         158          1.0000000000
       475       159  TIP3  OH2           8.2397022787      -11.4878094722        8.0162650183  CLST         159          1.0000000000
       476       159  TIP3  H1            7.3732330670      -11.3696097117        7.6343673320  CLST         159          1.0000000000
       477       159  TIP3  H2            8.2490217180      -10.6634638302        8.5600819321  CLST         159          1.0000000000
       478       160  TIP3  OH2           4.6086309120       -9.2622389747        2.0629776388  CLST         160          1.0000000000
       479       160  TIP3  H1            4.3297563741       -8.8198257800        2.8517696469  CLST         160          1.0000000000
       480       160  TIP3  H2            5.1661170576       -9.7874713448        2.6421091514  CLST         160          1.0000000000
       481       161  TIP3  OH2           3.7931154196       -7.0280089657       -2.9741213091  CLST         161          1.0000000000
       482       161  TIP3  H1            4.3878139245       -7.5623648080       -2.4094731212  CLST         161          1.0000000000
       483       161  TIP3  H2            3.1074740936       -7.3735341182       -2.3828310749  CLST         161          1.0000000000
       484       162  TIP3  OH2           6.6900244838      -10.6074793800        3.0032899344  CLST         162          1.0000000000
       485       162  TIP3  H1            7.3668199608      -11.1860601674        3.2871276769  CLST         162          1.0000000000
       486       162  TIP3  H2            7.2109922382       -9.8439551745        3.1666746783  CLST         162          1.0000000000
       487       163  TIP3  OH2         -13.3700945541        0.2388450506        2.7596727843  CLST         163          1.0000000000
       488       163  TIP3  H1          -13.8613744400        0.5985790997        3.4532025353  CLST         163          1.0000000000
       489       163  TIP3  H2          -12.6441056567       -0.0233771127        3.3332406815  CLST         163          1.0000000000
       490       164  TIP3  OH2           8.6351863833        2.9701145516       10.0296905170  CLST         164          1.0000000000
       491       164  TIP3  H1            8.6714957770        3.6677732708        9.4190701182  CLST         164          1.0000000000
       492       164  TIP3  H2            9.5639892895        2.7895062682        9.9358501325  CLST         164          1.0000000000
       493       165  TIP3  OH2          14.2493093337        3.9014362724        5.0058759087  CLST         165          1.0000000000
       494       165  TIP3  H1           13.3838630263        4.2998494304        5.0167088709  CLST         165          1.0000000000
       495       165  TIP3  H2           13.6496932654        3.8539353982        4.0199201317  CLST         165          1.0000000000
       496       166  TIP3  OH2          -6.5042649479      -12.8563358081        5.2489737039  CLST         166          1.0000000000
       497       166  TIP3  H1           -6.7503349536      -12.3769449475        4.4129932375  CLST         166          1.0000000000
       498       166  TIP3  H2           -7.3268905655      -12.4235217974        5.5040383028  CLST         166          1.0000000000
       499       167  TIP3  OH2           0.0598004743       -7.7389952497       -9.5019618748  CLST         167          1.0000000000
       500       167  TIP3  H1            0.1243799540       -8.1231167732      -10.3477544499  CLST         167          1.0000000000
       501       167  TIP3  H2            1.0234914342       -7.8666779911       -9.2692722943  CLST         167          1.0000000000
       502       168  TIP3  OH2          -2.6023271693       -2.5041051086        1.8184399468  CLST         168          1.0000000000
       503       168  TIP3  H1           -2.8626607104       -3.3256146670        2.1853693717  CLST         168          1.0000000000
       504       168  TIP3  H2           -2.7906541222       -2.9632091514        0.9678459020  CLST         168          1.0000000000
       505       169  TIP3  OH2           0.7625805001       12.0737805959       12.6393409290  CLST         169          1.0000000000
       506       169  TIP3  H1            1.6368074472       11.3427328602       12.6003948721  CLST         169          1.0000000000
       507       169  TIP3  H2            1.5291364879       12.3878191890       13.1160606956  CLST         169          1.0000000000
       508       170  TIP3  OH2         -14.6892365295      -12.3950264181        4.8329826276  CLST         170          1.0000000000
       509       170  TIP3  H1          -13.8859229002      -12.6506790548        5.3596073076  CLST         170          1.0000000000
       510       170  TIP3  H2          -15.0007461284      -11.8614207252        5.5525244829  CLST         170          1.0000000000
       511       171  TIP3  OH2          -9.7635827300        2.5516736134        2.5912577038  CLST         171          1.0000000000
       512       171  TIP3  H1           -8.8498040719        2.8379996053        2.5639449148  CLST         171          1.0000000000
       513       171  TIP3  H2           -9.6577128535        2.2552060837        3.4731205645  CLST         171          1.0000000000
       514       172  TIP3  OH2          14.0144895478       -7.0085960162      -11.6925031819  CLST         172          1.0000000000
       515       172  TIP3  H1           14.0306267878       -6.8825603002      -10.7372778919  CLST         172          1.0000000000
       516       172  TIP3  H2           13.2776233315       -7.5998523710      -11.6045049260  CLST         172          1.0000000000
       517       173  TIP3  OH2         -12.8427081182       -5.4981822663        3.0626986827  CLST         173          1.0000000000
       518       173  TIP3  H1          -13.3162849924       -4.6530580435        3.2346664856  CLST         173          1.0000000000
       519       173  TIP3  H2          -13.0129859270       -5.5083622676        2.1040506600  CLST         173          1.0000000000
       520       174  TIP3  OH2           5.6303508044      -14.1694682768        5.8904869061  CLST         174          1.0000000000
       521       174  TIP3  H1            5.2100661352      -14.5861717150        6.6467850914  CLST         174          1.0000000000
       522       174  TIP3  H2            4.7479417047      -13.8569568779        5.7404750850  CLST         174          1.0000000000
       523       175  TIP3  OH2           4.4142121508       -3.7429061797        7.5723568606  CLST         175          1.0000000000
       524       175  TIP3  H1            3.7726394023       -4.3286518614        7.1488966709  CLST         175          1.0000000000
       525       175  TIP3  H2            5.2456761237       -4.0432030390        7.2610923598  CLST         175          1.0000000000
       526       176  TIP3  OH2           8.2960112779        2.6946152100      -10.8236740176  CLST         176          1.0000000000
       527       176  TIP3  H1            8.7944486724        2.1413085553      -10.2474742111  CLST         176          1.0000000000
       528       176  TIP3  H2            8.6126067980        2.1803880172      -11.5728965008  CLST         176          1.0000000000
       529       177  TIP3  OH2          -4.1875134675       10.8994507003        7.3090335043  CLST         177          1.0000000000
       530       177  TIP3  H1           -3.2838801896       10.8579783619        7.0982391699  CLST         177          1.0000000000
       531       177  TIP3  H2           -4.4590570689       10.1127329791        6.8932867001  CLST         177          1.0000000000
       532       178  TIP3  OH2           4.2029895155       -6.4057063128        0.7492062501  CLST         178          1.0000000000
       533       178  TIP3  H1            3.4591148970       -5.7795767214        0.6258145437  CLST         178          1.0000000000
       534       178  TIP3  H2            3.8338301151       -6.9705600254        0.0927338628  CLST         178          1.0000000000
       535       179  TIP3  OH2           2.6795508873       -9.8698523745        0.1199523587  CLST         179          1.0000000000
       536       179  TIP3  H1            1.9002292066       -9.5071866160        0.5866754792  CLST         179          1.0000000000
       537       179  TIP3  H2            3.2860448407       -9.6136713032        0.8101233150  CLST         179          1.0000000000
       538       180  TIP3  OH2          -1.8422350133       -3.6282319538        8.2126683486  CLST         180          1.0000000000
       539       180  TIP3  H1           -1.9655807930       -2.9579680119        8.9142078301  CLST         180          1.0000000000
       540       180  TIP3  H2           -2.5799658158       -3.3363903399        7.6492949981  CLST         180          1.0000000000
       541       181  TIP3  OH2         -12.2450592519        0.1474709768      -11.2638727415  CLST         181          1.0000000000
       542       181  TIP3  H1          -11.3563400029        0.1279486544      -10.9209197581  CLST         181          1.0000000000
       543       181  TIP3  H2          -12.4551442565       -0.5657344826      -10.7078660355  CLST         181          1.0000000000
       544       182  TIP3  OH2         -10.5180873899      -12.8198753495        5.2500351215  CLST         182          1.0000000000
       545       182  TIP3  H1          -11.1677932497      -12.9101193719        5.9822998158  CLST         182          1.0000000000
       546       182  TIP3  H2           -9.9321908164      -12.4740539296        5.9020953505  CLST         182          1.0000000000
       547       183  TIP3  OH2          11.8176382560        5.5562591434        4.4249351951  CLST         183          1.0000000000
       548       183  TIP3  H1           11.8659151141        5.5614178758        3.4889079942  CLST         183          1.0000000000
       549       183  TIP3  H2           11.3094026378        6.3688279313        4.3970305247  CLST         183          1.0000000000
       550       184  TIP3  OH2          -0.2722183422       -0.6798088195        7.9540478784  CLST         184          1.0000000000
       551       184  TIP3  H1            0.6456602496       -1.0531139801        7.8742874172  CLST         184          1.0000000000
       552       184  TIP3  H2           -0.6453082118       -1.0619408536        8.7328357953  CLST         184          1.0000000000
       553       185  TIP3  OH2           9.3459874749       12.9654627499       -3.8399310030  CLST         185          1.0000000000
       554       185  TIP3  H1            8.5234486543       12.4968354903       -3.7816741555  CLST         185          1.0000000000
       555       185  TIP3  H2            9.0695071094       13.4510782636       -4.6270189265  CLST         185          1.0000000000
       556       186  TIP3  OH2          11.8057299900       -0.0458467435        4.1651256775  CLST         186          1.0000000000
       557       186  TIP3  H1           12.0354524908        0.1405061818        3.2388552142  CLST         186          1.0000000000
       558       186  TIP3  H2           10.9422097128        0.3792842706        4.0423222592  CLST         186          1.0000000000
       559       187  TIP3  OH2          -9.9915905591       -7.6394301154      -11.3223424812  CLST         187          1.0000000000
       560       187  TIP3  H1          -10.4329545665       -7.4442200896      -10.4562301852  CLST         187          1.0000000000
       561       187  TIP3  H2           -9.9420591833       -6.6591241404      -11.4604030733  CLST         187          1.0000000000
       562       188  TIP3  OH2         -15.0828567514       -0.3628878647        0.8179162036  CLST         188          1.0000000000
       563       188  TIP3  H1          -14.3747103858       -0.4351479438        1.4307928589  CLST         188          1.0000000000
       564       188  TIP3  H2          -14.7166150118       -1.0255988614        0.1832933680  CLST         188          1.0000000000
       565       189  TIP3  OH2          14.0440676154        0.7537717057       14.4272175938  CLST         189          1.0000000000
       566       189  TIP3  H1           14.7378105150        0.7047802490       15.0422685476  CLST         189          1.0000000000
       567       189  TIP3  H2           14.4369914029        0.1636088338       13.7909740548  CLST         189          1.0000000000
       568       190  TIP3  OH2           0.5520026315       -7.9318569118        3.9237133110  CLST         190          1.0000000000
       569       190  TIP3  H1            1.2248242999       -8.2257979165        4.5308774376  CLST         190          1.0000000000
       570       190  TIP3  H2            0.9866901600       -7.0352659495        3.7535669075  CLST         190          1.0000000000
       571       191  TIP3  OH2          -0.9438835581       14.1237065604       -4.0643897807  CLST         191          1.0000000000
       572       191  TIP3  H1           -1.8469330309       13.9978089174       -3.8040555016  CLST         191          1.0000000000
       573       191  TIP3  H2           -1.2253696987       15.0251663120       -4.1649292067  CLST         191          1.0000000000
       574       192  TIP3  OH2          -5.1126155839       -0.2829764282       -0.7716696089  CLST         192          1.0000000000
       575       192  TIP3  H1           -5.9083670034       -0.5107759491       -1.2493942378  CLST         192          1.0000000000
       576       192  TIP3  H2           -5.6141811473        0.2647247575       -0.1666085297  CLST         192          1.0000000000
       577       193  TIP3  OH2         -12.8216884424      -13.1693983837        6.9309909328  CLST         193          1.0000000000
       578       193  TIP3  H1          -12.5276690906      -13.8166096202        7.5494211729  CLST         193          1.0000000000
       579       193  TIP3  H2          -12.3887662662      -12.5506781850        7.5476933461  CLST         193          1.0000000000
       580       194  TIP3  OH2          12.7787073020       12.5201416729      -11.1277962520  CLST         194          1.0000000000
       581       194  TIP3  H1           12.8783389266       13.1635640113      -11.8360414100  CLST         194          1.0000000000
       582       194  TIP3  H2           13.3832515668       11.8867190742      -11.4294015573  CLST         194          1.0000000000
       583       195  TIP3  OH2           4.9645105171        2.7190301511        3.4929185346  CLST         195          1.0000000000
       584       195  TIP3  H1            4.2485016532        2.8293855814        3.0082479288  CLST         195          1.0000000000
       585       195  TIP3  H2            4.7191308590        2.0052965987        2.6324356657  CLST         195          1.0000000000
       586       196  TIP3  OH2           7.2222324471        6.3447933039       11.8916983352  CLST         196          1.0000000000
       587       196  TIP3  H1            8.0793978866        6.0665450167       12.2147779909  CLST         196          1.0000000000
       588       196  TIP3  H2            7.0392647187        6.7565280507       12.7216243890  CLST         196          1.0000000000
       589       197  TIP3  OH2          -4.3847079834       -9.2944982331        3.7503269546  CLST         197          1.0000000000
       590       197  TIP3  H1           -4.6595055698       -8.9832909570        2.8796815138  CLST         197          1.0000000000
       591       197  TIP3  H2           -3.8241670733       -8.5454467707        3.9278733302  CLST         197          1.0000000000
       592       198  TIP3  OH2          -4.3968395145       -8.9109916582       -6.0928759691  CLST         198          1.0000000000
       593       198  TIP3  H1           -3.9969132928       -8.5016277246       -6.8387765633  CLST         198          1.0000000000
       594       198  TIP3  H2           -5.2606767945       -8.8513166998       -6.4694350193  CLST         198          1.0000000000
       595       199  TIP3  OH2          11.4385023671        7.6724553687       -2.4863006845  CLST         199          1.0000000000
       596       199  TIP3  H1           11.1888089461        8.4641807741       -2.0409549712  CLST         199          1.0000000000
       597       199  TIP3  H2           12.1974932745        7.5774253454       -1.9435761546  CLST         199          1.0000000000
       598       200  TIP3  OH2          -4.6634625454       -7.4185130367       -1.1823079891  CLST         200          1.0000000000
       599       200  TIP3  H1           -3.8717548936       -7.7966420195       -1.5368269986  CLST         200          1.0000000000
       600       200  TIP3  H2           -4.5287679089       -6.5619220316       -1.5568652319  CLST         200          1.0000000000
       601       201  TIP3  OH2          13.9498422596      -10.3957226074       11.8850724530  CLST         201          1.0000000000
       602       201  TIP3  H1           14.5430142056       -9.9503724966       11.3025523748  CLST         201          1.0000000000
       603       201  TIP3  H2           13.0723608516      -10.2847513832       11.4985175114  CLST         201          1.0000000000
       604       202  TIP3  OH2          -2.8926137546       -9.5772175988        7.9487360975  CLST         202          1.0000000000
       605       202  TIP3  H1           -2.3095544972      -10.1079667939        8.4971780657  CLST         202          1.0000000000
       606       202  TIP3  H2           -2.4653588171      -10.1777921521        7.2685582699  CLST         202          1.0000000000
       607       203  TIP3  OH2          10.5501084479        4.4311483783       13.7790070443  CLST         203          1.0000000000
       608       203  TIP3  H1            9.7445378987        4.2662919969       13.3336110203  CLST         203          1.0000000000
       609       203  TIP3  H2           10.1976588412        3.3976645358       13.8364376919  CLST         203          1.0000000000
       610       204  TIP3  OH2          -5.2959411496        6.0934927051        6.0004125387  CLST         204          1.0000000000
       611       204  TIP3  H1           -6.0245798290        6.6965931476        5.8165931609  CLST         204          1.0000000000
       612       204  TIP3  H2           -4.9175928225        6.7229732802        6.6527252311  CLST         204          1.0000000000
       613       205  TIP3  OH2          -2.2839205472        1.4041070069       -4.8699133745  CLST         205          1.0000000000
       614       205  TIP3  H1           -1.5863390152        1.4749139507       -5.5316976818  CLST         205          1.0000000000
       615       205  TIP3  H2           -2.8149235937        2.0491251631       -5.4949783238  CLST         205          1.0000000000
       616       206  TIP3  OH2          -8.6588848436       -1.3084500534        4.5366357980  CLST         206          1.0000000000
       617       206  TIP3  H1           -8.9803906657       -1.5451540849        5.4131921434  CLST         206          1.0000000000
       618       206  TIP3  H2           -8.1535837085       -0.6383275821        5.0509983352  CLST         206          1.0000000000
       619       207  TIP3  OH2          -7.7157768392        9.4861588359        0.4370019557  CLST         207          1.0000000000
       620       207  TIP3  H1           -7.1818285311        8.7082892173        0.2912218640  CLST         207          1.0000000000
       621       207  TIP3  H2           -8.2338884252        8.9751042117        1.0374698240  CLST         207          1.0000000000
       622       208  TIP3  OH2           9.3234174715       14.3843468339      -11.5489365855  CLST         208          1.0000000000
       623       208  TIP3  H1            9.4565229391       13.9007348544      -12.3548163407  CLST         208          1.0000000000
       624       208  TIP3  H2           10.1989726996       14.8092676096      -11.6243536825  CLST         208          1.0000000000
       625       209  TIP3  OH2          -6.4313426352       -6.3330725117      -14.4448090796  CLST         209          1.0000000000
       626       209  TIP3  H1           -7.3824126401       -6.5229851092      -14.4455428913  CLST         209          1.0000000000
       627       209  TIP3  H2           -6.4455142216       -6.8695781239      -13.6318315162  CLST         209          1.0000000000
       628       210  TIP3  OH2          -2.1174238276        1.2753900297        8.1300701351  CLST         210          1.0000000000
       629       210  TIP3  H1           -1.3026225187        0.7964802004        8.1280503819  CLST         210          1.0000000000
       630       210  TIP3  H2           -2.1411825208        1.2615906232        9.1107396107  CLST         210          1.0000000000
       631       211  TIP3  OH2          -0.7213129072        0.1240783049       -2.8819321680  CLST         211          1.0000000000
       632       211  TIP3  H1           -1.2510733398       -0.4775612967       -2.4717337089  CLST         211          1.0000000000
       633       211  TIP3  H2           -1.4493903634        0.5445808130       -3.3664771054  CLST         211          1.0000000000
       634       212  TIP3  OH2           6.9173507569        3.1708280022        5.5789094372  CLST         212          1.0000000000
       635       212  TIP3  H1            6.1661945628        2.2667595035        5.5621677079  CLST         212          1.0000000000
       636       212  TIP3  H2            5.9412057686        3.1482904414        5.1243777562  CLST         212          1.0000000000
       637       213  TIP3  OH2           1.9971021627       -4.8824549642       -0.3796566253  CLST         213          1.0000000000
       638       213  TIP3  H1            1.8714094919       -4.3484352378       -1.1814782604  CLST         213          1.0000000000
       639       213  TIP3  H2            2.0097274519       -5.5668498073       -1.1043351422  CLST         213          1.0000000000
       640       214  TIP3  OH2           2.2349678159       -7.1299950688      -11.8165608400  CLST         214          1.0000000000
       641       214  TIP3  H1            2.6003978523       -8.0138816396      -11.7782876577  CLST         214          1.0000000000
       642       214  TIP3  H2            2.8618906399       -6.8562111947      -11.1277890157  CLST         214          1.0000000000
       643       215  TIP3  OH2         -12.5711995362        2.7721438983      -11.0573927375  CLST         215          1.0000000000
       644       215  TIP3  H1          -12.2137791099        2.0136863759      -10.5026235717  CLST         215          1.0000000000
       645       215  TIP3  H2          -12.8153813838        2.0010973010      -11.5673209339  CLST         215          1.0000000000
       646       216  TIP3  OH2          11.6616051095       -6.4299464434       -4.4965096339  CLST         216          1.0000000000
       647       216  TIP3  H1           11.0856119178       -7.1513751868       -4.3728786418  CLST         216          1.0000000000
       648       216  TIP3  H2           10.9131887298       -5.8358649308       -4.6389856014  CLST         216          1.0000000000
       649       217  TIP3  OH2          -6.6235107537        9.4070366653        4.1251333982  CLST         217          1.0000000000
       650       217  TIP3  H1           -5.6724130394        9.1240878978        4.2335227575  CLST         217          1.0000000000
       651       217  TIP3  H2           -7.0634297212        8.5876051676        3.8793763071  CLST         217          1.0000000000
       652       218  TIP3  OH2           5.7380983122       -7.3937562755       -8.5079713034  CLST         218          1.0000000000
       653       218  TIP3  H1            6.0348245101       -8.3031385625       -8.5021974225  CLST         218          1.0000000000
       654       218  TIP3  H2            5.7177413108       -7.4174120320       -7.5014931765  CLST         218          1.0000000000
       655       219  TIP3  OH2           2.5063285488      -13.5683159628        7.5047907668  CLST         219          1.0000000000
       656       219  TIP3  H1            2.1778293576      -13.1989574174        8.3329836036  CLST         219          1.0000000000
       657       219  TIP3  H2            3.4027819944      -13.7230670420        7.8447179574  CLST         219          1.0000000000
       658       220  TIP3  OH2           2.3879647418        1.4706197921      -11.1729148681  CLST         220          1.0000000000
       659       220  TIP3  H1            2.5251163845        1.7105521037      -12.0547185267  CLST         220          1.0000000000
       660       220  TIP3  H2            3.3074471930        1.2215549974      -11.0877186549  CLST         220          1.0000000000
       661       221  TIP3  OH2           1.6631780189       -0.3841180627        3.0628246106  CLST         221          1.0000000000
       662       221  TIP3  H1            0.7769910555       -0.3379594739        2.6761099174  CLST         221          1.0000000000
       663       221  TIP3  H2            1.6288666651        0.4722599038        3.4347720052  CLST         221          1.0000000000
       664       222  TIP3  OH2          12.0855369511        0.6328395143        1.5321165983  CLST         222          1.0000000000
       665       222  TIP3  H1           12.5281509398        0.6432805263        0.6880103047  CLST         222          1.0000000000
       666       222  TIP3  H2           11.2095641198        0.9196165296        1.2050351052  CLST         222          1.0000000000
       667       223  TIP3  OH2           1.2134588342      -10.4846309858      -13.1133764613  CLST         223          1.0000000000
       668       223  TIP3  H1            0.7268178094      -10.8752887334      -12.3677371343  CLST         223          1.0000000000
       669       223  TIP3  H2            0.7140416870       -9.7210027252      -12.9382552082  CLST         223          1.0000000000
       670       224  TIP3  OH2          -9.0791713403        6.9371711339      -12.8385001741  CLST         224          1.0000000000
       671       224  TIP3  H1           -9.6141064333        5.9675252336      -12.6323445560  CLST         224          1.0000000000
       672       224  TIP3  H2           -8.6069472537        5.9291502827      -12.9390492844  CLST         224          1.0000000000
       673       225  TIP3  OH2          13.2220302124        3.6890540431       -7.6052981376  CLST         225          1.0000000000
       674       225  TIP3  H1           12.3715063940        4.0178829674       -7.9331356360  CLST         225          1.0000000000
       675       225  TIP3  H2           12.7738260338        3.1768353659       -6.9255195189  CLST         225          1.0000000000
       676       226  TIP3  OH2           5.1116810682        4.9533409481       10.7746197423  CLST         226          1.0000000000
       677       226  TIP3  H1            5.8825646723        5.5061925893       10.9569949288  CLST         226          1.0000000000
       678       226  TIP3  H2            5.5085300453        4.2522053847       11.2617122999  CLST         226          1.0000000000
       679       227  TIP3  OH2          -6.0739203144        1.1406088408        9.8732585636  CLST         227          1.0000000000
       680       227  TIP3  H1           -6.6263653354        0.6789927012       10.5078737725  CLST         227          1.0000000000
       681       227  TIP3  H2           -5.7694636883        0.2891890136        9.4749933041  CLST         227          1.0000000000
       682       228  TIP3  OH2          -8.6866628527       -5.1835856165       10.4671374140  CLST         228          1.0000000000
       683       228  TIP3  H1           -8.6175514426       -4.7648211175        9.6184672799  CLST         228          1.0000000000
       684       228  TIP3  H2           -7.8411833652       -5.5512726635       10.4020428482  CLST         228          1.0000000000
       685       229  TIP3  OH2          11.2235337769        8.0860121591      -14.9533166390  CLST         229          1.0000000000
       686       229  TIP3  H1           11.3131406851        8.4968851802      -14.1037816103  CLST         229          1.0000000000
       687       229  TIP3  H2           11.8110601024        7.3797119527      -14.7189357320  CLST         229          1.0000000000
       688       230  TIP3  OH2         -10.7955384651       -3.5357697482        8.5475391965  CLST         230          1.0000000000
       689       230  TIP3  H1          -11.1143564695       -4.3798445307        8.4103677544  CLST         230          1.0000000000
       690       230  TIP3  H2          -11.6732544146       -3.2855957479        8.7292953220  CLST         230          1.0000000000
       691       231  TIP3  OH2          -0.3232437829        3.0602221947      -12.0008094346  CLST         231          1.0000000000
       692       231  TIP3  H1            0.0383533312        2.3308962128      -11.5098804966  CLST         231          1.0000000000
       693       231  TIP3  H2            0.2715228714        2.9633210336      -12.7145393628  CLST         231          1.0000000000
       694       232  TIP3  OH2           1.8380810802      -15.0828567514      -12.0399765192  CLST         232          1.0000000000
       695       232  TIP3  H1            1.4416166687      -14.4413512758      -11.4201611369  CLST         232          1.0000000000
       696       232  TIP3  H2            2.1527770951      -14.3608562483      -12.5728613011  CLST         232          1.0000000000
       697       233  TIP3  OH2         -12.2702603807        9.8307714519        2.0786054203  CLST         233          1.0000000000
       698       233  TIP3  H1          -12.7670719141        9.5130339596        2.8288074870  CLST         233          1.0000000000
       699       233  TIP3  H2          -13.0973200580        9.9028103216        1.6035663590  CLST         233          1.0000000000
       700       234  TIP3  OH2          -2.2279501043        4.4612971284       -8.1600042355  CLST         234          1.0000000000
       701       234  TIP3  H1           -2.0011108210        5.3557982907       -8.0135341780  CLST         234          1.0000000000
       702       234  TIP3  H2           -2.2339719310        4.5350366076       -9.1148998836  CLST         234          1.0000000000
       703       235  TIP3  OH2         -10.4277458301        5.0087642344       -5.5634022752  CLST         235          1.0000000000
       704       235  TIP3  H1          -10.9788379463        4.8067878992       -6.2964775696  CLST         235          1.0000000000
       705       235  TIP3  H2           -9.6282611633        4.6525921939       -5.8509695183  CLST         235          1.0000000000
       706       236  TIP3  OH2         -12.3404620037      -10.7736086030       13.5200904842  CLST         236          1.0000000000
       707       236  TIP3  H1          -11.8255514419      -10.9037620983       12.6947728806  CLST         236          1.0000000000
       708       236  TIP3  H2          -12.2480504607      -10.0973742564       12.4913775971  CLST         236          1.0000000000
       709       237  TIP3  OH2          -6.2711009869       -6.4092160430       10.5896955103  CLST         237          1.0000000000
       710       237  TIP3  H1           -5.9057890125       -7.0977097749       10.0457904847  CLST         237          1.0000000000
       711       237  TIP3  H2           -5.5687432716       -6.3353796353       11.2411719682  CLST         237          1.0000000000
       712       238  TIP3  OH2          -0.8693259296        3.6886574731       -2.6770271963  CLST         238          1.0000000000
       713       238  TIP3  H1           -1.4045372068        4.3574145115       -3.1602323215  CLST         238          1.0000000000
       714       238  TIP3  H2           -1.6717114501        3.2855629823       -2.4029368430  CLST         238          1.0000000000
       715       239  TIP3  OH2           8.1086135958        7.4371497656       -0.1211295949  CLST         239          1.0000000000
       716       239  TIP3  H1            8.5284571522        6.7102924059       -0.5098515858  CLST         239          1.0000000000
       717       239  TIP3  H2            8.9862612707        7.5513016611        0.2842284749  CLST         239          1.0000000000
       718       240  TIP3  OH2          -9.8299394085        8.5308768295        1.7532050732  CLST         240          1.0000000000
       719       240  TIP3  H1          -10.7191620655        8.8577865019        1.8022122073  CLST         240          1.0000000000
       720       240  TIP3  H2          -10.2140069698        7.6566866506        1.8800493141  CLST         240          1.0000000000
       721       241  TIP3  OH2          10.9836929869       -4.4880844953       -1.8056709471  CLST         241          1.0000000000
       722       241  TIP3  H1           10.4268757368       -4.9303874388       -2.4329984761  CLST         241          1.0000000000
       723       241  TIP3  H2           11.8014219638       -4.7206664535       -2.2418858213  CLST         241          1.0000000000
       724       242  TIP3  OH2           9.4219978460       -1.6710918519       -4.4610614443  CLST         242          1.0000000000
       725       242  TIP3  H1           10.2960934457       -1.5787043384       -4.1630943448  CLST         242          1.0000000000
       726       242  TIP3  H2            9.2334848640       -2.1724472249       -3.7034367682  CLST         242          1.0000000000
       727       243  TIP3  OH2           5.0666343068        9.3995011557      -12.1861603466  CLST         243          1.0000000000
       728       243  TIP3  H1            4.4391478780        9.9865558822      -11.8347245192  CLST         243          1.0000000000
       729       243  TIP3  H2            4.9681024295        8.8799519997      -11.3791585185  CLST         243          1.0000000000
       730       244  TIP3  OH2          -9.1781616288       -6.6276054512      -14.3157888076  CLST         244          1.0000000000
       731       244  TIP3  H1           -9.4688084299       -6.1499458429      -13.5671596945  CLST         244          1.0000000000
       732       244  TIP3  H2          -10.0551910623       -6.7198935374      -14.6568683715  CLST         244          1.0000000000
       733       245  TIP3  OH2         -13.3278198913        6.1387665415        2.3880877631  CLST         245          1.0000000000
       734       245  TIP3  H1          -13.2586121093        6.8332930818        3.0980260031  CLST         245          1.0000000000
       735       245  TIP3  H2          -12.3861669055        6.2018911934        2.2403855028  CLST         245          1.0000000000
       736       246  TIP3  OH2          -9.2399567951        6.3151364195       -1.9720234778  CLST         246          1.0000000000
       737       246  TIP3  H1          -10.0920498235        6.2355788072       -2.3227514606  CLST         246          1.0000000000
       738       246  TIP3  H2           -9.3128405583        7.2789100180       -2.1631873236  CLST         246          1.0000000000
       739       247  TIP3  OH2          -4.5042315153        7.9721509053        7.8999882913  CLST         247          1.0000000000
       740       247  TIP3  H1           -3.8208142169        8.4999435503        8.3123744695  CLST         247          1.0000000000
       741       247  TIP3  H2           -4.6563312890        7.5331033844        8.7591386532  CLST         247          1.0000000000
       742       248  TIP3  OH2           9.9130443544       -8.2327325411        7.9007466335  CLST         248          1.0000000000
       743       248  TIP3  H1            9.0195396625       -8.6159931255        8.0439941347  CLST         248          1.0000000000
       744       248  TIP3  H2            9.6645254481       -7.8833431969        7.0514423806  CLST         248          1.0000000000
       745       249  TIP3  OH2           9.6823628548        5.6224995790       -1.2747383608  CLST         249          1.0000000000
       746       249  TIP3  H1           10.3512918269        5.0249829753       -0.9787967187  CLST         249          1.0000000000
       747       249  TIP3  H2           10.3281513403        6.1517721890       -1.7321253672  CLST         249          1.0000000000
       748       250  TIP3  OH2           5.8495300377       -4.6475043428        3.3725643228  CLST         250          1.0000000000
       749       250  TIP3  H1            6.0383246204       -5.4431928548        2.9590222491  CLST         250          1.0000000000
       750       250  TIP3  H2            5.0100887471       -4.9015769649        3.6489617918  CLST         250          1.0000000000
       751       251  TIP3  OH2         -14.6273869464      -11.6387784609        1.8749258877  CLST         251          1.0000000000
       752       251  TIP3  H1          -14.3904838764      -12.4609792017        1.4301513576  CLST         251          1.0000000000
       753       251  TIP3  H2          -14.3749269043      -11.8716640062        2.7619092922  CLST         251          1.0000000000
       754       252  TIP3  OH2          -7.0763368141      -14.7832254928      -11.8168564031  CLST         252          1.0000000000
       755       252  TIP3  H1           -8.0420211929      -14.6930895814      -11.7324269024  CLST         252          1.0000000000
       756       252  TIP3  H2           -7.1641764729      -14.2011062220      -12.6172313851  CLST         252          1.0000000000
       757       253  TIP3  OH2           0.6748310216        7.3299136101        7.7781415203  CLST         253          1.0000000000
       758       253  TIP3  H1            0.4704262505        7.0419118625        6.8664633681  CLST         253          1.0000000000
       759       253  TIP3  H2            1.6158100489        7.2874662516        7.5943653477  CLST         253          1.0000000000
       760       254  TIP3  OH2         -11.4488788057        1.4039228396      -14.5622236798  CLST         254          1.0000000000
       761       254  TIP3  H1          -11.8962908548        0.6557857405      -14.2772900012  CLST         254          1.0000000000
       762       254  TIP3  H2          -12.3042621041        1.8547685928      -14.5895501227  CLST         254          1.0000000000
       763       255  TIP3  OH2           4.1842474560       -0.0196944488       -0.7768706474  CLST         255          1.0000000000
       764       255  TIP3  H1            4.0089317967       -0.8611436053       -0.3165856857  CLST         255          1.0000000000
       765       255  TIP3  H2            3.2812168672       -0.1502542228       -1.1173601659  CLST         255          1.0000000000
       766       256  TIP3  OH2          14.0765119916       -3.2042234555      -12.1902152294  CLST         256          1.0000000000
       767       256  TIP3  H1           14.5724249050       -2.7753277556      -12.9095166979  CLST         256          1.0000000000
       768       256  TIP3  H2           13.6966649617       -3.8850847516      -12.7054155815  CLST         256          1.0000000000
       769       257  TIP3  OH2          -6.4694184436      -13.4344401696       10.1417079645  CLST         257          1.0000000000
       770       257  TIP3  H1           -6.8600887631      -14.2830735819        9.9947037685  CLST         257          1.0000000000
       771       257  TIP3  H2           -5.7223488608      -13.9296643114       10.4782704469  CLST         257          1.0000000000
       772       258  TIP3  OH2         -10.3390170920      -11.8734228295       -6.6109764443  CLST         258          1.0000000000
       773       258  TIP3  H1           -9.8448150300      -12.0161980722       -5.8220771084  CLST         258          1.0000000000
       774       258  TIP3  H2          -10.2586300966      -10.9027752012       -6.5297359851  CLST         258          1.0000000000
       775       259  TIP3  OH2           2.8521208294        1.6792780876       14.1307214447  CLST         259          1.0000000000
       776       259  TIP3  H1            3.4868575824        0.9962481970       14.1008040167  CLST         259          1.0000000000
       777       259  TIP3  H2            2.7962618231        1.6592152594       15.0776896927  CLST         259          1.0000000000
       778       260  TIP3  OH2         -10.7397082662      -10.3678047934       -9.6340938163  CLST         260          1.0000000000
       779       260  TIP3  H1          -11.3862637002      -10.6715758304      -10.2312669497  CLST         260          1.0000000000
       780       260  TIP3  H2          -11.3379661063       -9.7149572489       -9.3322879889  CLST         260          1.0000000000
       781       261  TIP3  OH2           6.9862920572        1.0290600154       -0.1808163692  CLST         261          1.0000000000
       782       261  TIP3  H1            6.7265280427        1.7339076717       -0.8503527684  CLST         261          1.0000000000
       783       261  TIP3  H2            6.0784896444        1.0557644836        0.0855540880  CLST         261          1.0000000000
       784       262  TIP3  OH2          -1.8491964060       14.3374067218        3.1683734961  CLST         262          1.0000000000
       785       262  TIP3  H1           -2.4286319553       13.9779325857        3.8760937777  CLST         262          1.0000000000
       786       262  TIP3  H2           -1.5011254352       13.4334297062        3.1182058770  CLST         262          1.0000000000
       787       263  TIP3  OH2           6.7176052842        3.8637199192        1.8426919681  CLST         263          1.0000000000
       788       263  TIP3  H1            6.2711476909        3.3248824867        1.1665605862  CLST         263          1.0000000000
       789       263  TIP3  H2            6.2899610019        3.3815853987        2.5690991437  CLST         263          1.0000000000
       790       264  TIP3  OH2          -3.0716081930       10.2905250153       10.2020615434  CLST         264          1.0000000000
       791       264  TIP3  H1           -2.4051377520       10.8232567641       10.5913941841  CLST         264          1.0000000000
       792       264  TIP3  H2           -2.4847847686       10.2549300409        9.4422072476  CLST         264          1.0000000000
       793       265  TIP3  OH2         -12.7743829855       12.5457577162       -0.1044105595  CLST         265          1.0000000000
       794       265  TIP3  H1          -12.7738474633       12.5918148436       -1.0795154975  CLST         265          1.0000000000
       795       265  TIP3  H2          -13.4120319028       11.8102611259       -0.0376475392  CLST         265          1.0000000000
       796       266  TIP3  OH2          -3.9913619174        1.6378560488        4.0684206104  CLST         266          1.0000000000
       797       266  TIP3  H1           -4.1191655938        0.8124579752        3.5478368343  CLST         266          1.0000000000
       798       266  TIP3  H2           -3.9682593412        2.1873956745        3.3146834147  CLST         266          1.0000000000
       799       267  TIP3  OH2          -6.9873303033       11.5929877085       -5.2794092143  CLST         267          1.0000000000
       800       267  TIP3  H1           -7.5576660549       11.3988865278       -6.0236214236  CLST         267          1.0000000000
       801       267  TIP3  H2           -7.8070440632       11.9648810025       -4.8786518438  CLST         267          1.0000000000
       802       268  TIP3  OH2           4.8741153434        3.4709255154      -14.0868849885  CLST         268          1.0000000000
       803       268  TIP3  H1            5.6908146931        3.5770754130      -13.5848354090  CLST         268          1.0000000000
       804       268  TIP3  H2            4.8633309020        4.3730895483      -14.4246796607  CLST         268          1.0000000000
       805       269  TIP3  OH2           9.2305740699       -0.4107534011       11.2028046809  CLST         269          1.0000000000
       806       269  TIP3  H1           10.2983640598       -0.1204397482       11.5644686763  CLST         269          1.0000000000
       807       269  TIP3  H2            9.4808864576       -0.4684621353       12.1376588991  CLST         269          1.0000000000
       808       270  TIP3  OH2          -8.0959625075       -5.8802568985        6.3711098697  CLST         270          1.0000000000
       809       270  TIP3  H1           -8.0823579746       -5.7390482936        5.4135601193  CLST         270          1.0000000000
       810       270  TIP3  H2           -7.2370042380       -5.6060532646        6.5831898664  CLST         270          1.0000000000
       811       271  TIP3  OH2         -11.8065400559       12.2888668637       11.4518986017  CLST         271          1.0000000000
       812       271  TIP3  H1          -11.2085424810       12.1266100336       12.1965720800  CLST         271          1.0000000000
       813       271  TIP3  H2          -11.2136557296       12.9564018739       11.1800765587  CLST         271          1.0000000000
       814       272  TIP3  OH2           6.9951641549      -14.1345557023        3.1551037129  CLST         272          1.0000000000
       815       272  TIP3  H1            7.7919851857      -13.5534947278        3.3515104013  CLST         272          1.0000000000
       816       272  TIP3  H2            6.7601494340      -14.1045928058        4.1187639173  CLST         272          1.0000000000
       817       273  TIP3  OH2          -8.5459281815       10.9086832882       -7.5492293933  CLST         273          1.0000000000
       818       273  TIP3  H1           -9.2373857420       11.2482819939       -8.1148324891  CLST         273          1.0000000000
       819       273  TIP3  H2           -9.0782859499       10.1836771962       -7.3104380489  CLST         273          1.0000000000
       820       274  TIP3  OH2          -6.6754839789        0.5522052090       13.8427913589  CLST         274          1.0000000000
       821       274  TIP3  H1           -7.4879793662        0.6163655494       14.3733484946  CLST         274          1.0000000000
       822       274  TIP3  H2           -7.2717728478        0.5444369863       13.0580816761  CLST         274          1.0000000000
       823       275  TIP3  OH2           3.7126171936      -15.0828567514       -0.6981273174  CLST         275          1.0000000000
       824       275  TIP3  H1            2.8704240099      -14.6230270210       -0.4699587532  CLST         275          1.0000000000
       825       275  TIP3  H2            3.9511893611      -14.4761952947       -1.3800520169  CLST         275          1.0000000000
       826       276  TIP3  OH2           2.4068594184      -10.0691457171        7.2099155961  CLST         276          1.0000000000
       827       276  TIP3  H1            2.3897553516      -10.5450140907        8.0342475302  CLST         276          1.0000000000
       828       276  TIP3  H2            3.1630044806       -9.5298160887        7.5025970452  CLST         276          1.0000000000
       829       277  TIP3  OH2          -7.1172481920        7.0319861058        2.9001014359  CLST         277          1.0000000000
       830       277  TIP3  H1           -7.7619843351        6.7482984268        2.2706722143  CLST         277          1.0000000000
       831       277  TIP3  H2           -6.5845075088        6.2947800127        2.5988546382  CLST         277          1.0000000000
       832       278  TIP3  OH2           4.9919169575      -10.4408703925        9.9637009549  CLST         278          1.0000000000
       833       278  TIP3  H1            4.7973129285       -9.7533620629        9.2831167424  CLST         278          1.0000000000
       834       278  TIP3  H2            4.2243680762      -10.2080463882       10.5126156788  CLST         278          1.0000000000
       835       279  TIP3  OH2          12.0284451395       -5.8436976111        7.4007175078  CLST         279          1.0000000000
       836       279  TIP3  H1           11.5801276262       -6.1900690073        6.6583700667  CLST         279          1.0000000000
       837       279  TIP3  H2           12.4865985613       -5.2121663510        6.8413739598  CLST         279          1.0000000000
       838       280  TIP3  OH2           6.7623519629       -8.9689523467       12.8501674662  CLST         280          1.0000000000
       839       280  TIP3  H1            7.2068065764       -9.7864063429       12.7858114057  CLST         280          1.0000000000
       840       280  TIP3  H2            7.5058523492       -8.3914870859       12.7855116058  CLST         280          1.0000000000
       841       281  TIP3  OH2          -1.6334159155        4.6222731288       10.6929312734  CLST         281          1.0000000000
       842       281  TIP3  H1           -2.0248570456        3.8040326482       10.5238968758  CLST         281          1.0000000000
       843       281  TIP3  H2           -1.5393442638        4.4575697740       11.5954386622  CLST         281          1.0000000000
       844       282  TIP3  OH2          10.4539830987       10.7688208266      -10.9781863113  CLST         282          1.0000000000
       845       282  TIP3  H1           10.8749734335       10.1099131613      -11.5193736497  CLST         282          1.0000000000
       846       282  TIP3  H2           11.2892375022       11.2739403464      -10.9739368516  CLST         282          1.0000000000
       847       283  TIP3  OH2          -2.9892543416       -4.4387467279       -0.1286907452  CLST         283          1.0000000000
       848       283  TIP3  H1           -3.7951612571       -4.6109857918       -0.6479809511  CLST         283          1.0000000000
       849       283  TIP3  H2           -3.0562269416       -5.2946218072        0.3284882887  CLST         283          1.0000000000
       850       284  TIP3  OH2           4.0275737167       10.6006913371        2.1239111549  CLST         284          1.0000000000
       851       284  TIP3  H1            4.4963583233        9.8098679938        1.9154667406  CLST         284          1.0000000000
       852       284  TIP3  H2            3.4788140944       10.1182016074        2.6803353804  CLST         284          1.0000000000
       853       285  TIP3  OH2         -11.5880923309       -6.1435824191        8.3034953384  CLST         285          1.0000000000
       854       285  TIP3  H1          -10.6400452096       -6.3847019734        8.1551586383  CLST         285          1.0000000000
       855       285  TIP3  H2          -11.8754028081       -6.3523784855        7.3601619583  CLST         285          1.0000000000
       856       286  TIP3  OH2          -2.5770106499       -9.6824403601      -10.5872552826  CLST         286          1.0000000000
       857       286  TIP3  H1           -2.4155047826       -9.2100453248      -11.3241106661  CLST         286          1.0000000000
       858       286  TIP3  H2           -3.2360514944      -10.3363216034      -10.7711747820  CLST         286          1.0000000000
       859       287  TIP3  OH2           2.7115950566       -0.7936513737       -8.0182616994  CLST         287          1.0000000000
       860       287  TIP3  H1            2.5054943977        0.1288992711       -8.1096056348  CLST         287          1.0000000000
       861       287  TIP3  H2            3.6406500983       -0.4321408933       -8.1199386717  CLST         287          1.0000000000
       862       288  TIP3  OH2          13.7900811438      -14.4735785221       -8.4304489916  CLST         288          1.0000000000
       863       288  TIP3  H1           13.2819945990      -13.7485890540       -7.9902540550  CLST         288          1.0000000000
       864       288  TIP3  H2           14.4390128854      -14.2731319623       -7.7979542798  CLST         288          1.0000000000
       865       289  TIP3  OH2          14.1143433219        3.8038908876      -10.1964301505  CLST         289          1.0000000000
       866       289  TIP3  H1           13.9757168000        3.6930608094       -9.2304949694  CLST         289          1.0000000000
       867       289  TIP3  H2           15.0306947990        3.5814842281      -10.1308525160  CLST         289          1.0000000000
       868       290  TIP3  OH2          11.7846629778        0.9459294940       11.9707701712  CLST         290          1.0000000000
       869       290  TIP3  H1           11.6326056206        1.2123724454       12.9332816336  CLST         290          1.0000000000
       870       290  TIP3  H2           12.0807892535        1.8712348307       11.8174337424  CLST         290          1.0000000000
       871       291  TIP3  OH2         -11.3200141739       -9.5505335269       -2.7010222774  CLST         291          1.0000000000
       872       291  TIP3  H1          -10.7501836284       -9.9924594362       -2.0925125314  CLST         291          1.0000000000
       873       291  TIP3  H2          -11.5967497350       -8.9285386368       -1.9982491624  CLST         291          1.0000000000
       874       292  TIP3  OH2           9.1337375185       -1.8282660607      -11.7140810350  CLST         292          1.0000000000
       875       292  TIP3  H1            8.5085560841       -2.5219975705      -11.6874461212  CLST         292          1.0000000000
       876       292  TIP3  H2            9.4424633908       -1.9508893016      -10.8263863819  CLST         292          1.0000000000
       877       293  TIP3  OH2           2.3276993231        2.7984705253      -13.5455181910  CLST         293          1.0000000000
       878       293  TIP3  H1            2.0061489382        3.7119242977      -13.6233613259  CLST         293          1.0000000000
       879       293  TIP3  H2            3.1729543785        3.1111594303      -13.8301858869  CLST         293          1.0000000000
       880       294  TIP3  OH2           1.7750444217        7.9187424780        0.8377744448  CLST         294          1.0000000000
       881       294  TIP3  H1            1.4349397968        7.6124047923        1.8047447317  CLST         294          1.0000000000
       882       294  TIP3  H2            2.3453997489        7.8954151868        1.8548447634  CLST         294          1.0000000000
       883       295  TIP3  OH2           3.8777671765       12.8870626451       -4.4630827106  CLST         295          1.0000000000
       884       295  TIP3  H1            3.1823418982       13.0487003550       -3.7994835694  CLST         295          1.0000000000
       885       295  TIP3  H2            4.1433790876       13.7404777196       -4.7999742009  CLST         295          1.0000000000
       886       296  TIP3  OH2           2.6979382747        5.8164909776      -11.0974325704  CLST         296          1.0000000000
       887       296  TIP3  H1            2.2147509731        5.6547063766      -11.9328294847  CLST         296          1.0000000000
       888       296  TIP3  H2            1.8278375877        5.0311629581      -10.7855810474  CLST         296          1.0000000000
       889       297  TIP3  OH2          13.5469158101        0.2135774297        8.8561027717  CLST         297          1.0000000000
       890       297  TIP3  H1           13.7970642108        1.1383958824        8.9492115609  CLST         297          1.0000000000
       891       297  TIP3  H2           14.4849754777        0.0493343449        8.6756603998  CLST         297          1.0000000000
       892       298  TIP3  OH2          12.2914624294       -5.1285394079      -12.6502562568  CLST         298          1.0000000000
       893       298  TIP3  H1           11.5892862641       -5.6902215687      -12.9734591841  CLST         298          1.0000000000
       894       298  TIP3  H2           12.8629350508       -5.8789244749      -12.4436538628  CLST         298          1.0000000000
       895       299  TIP3  OH2           3.3194973197       -5.7020053336       -7.5260376068  CLST         299          1.0000000000
       896       299  TIP3  H1            3.2584965031       -4.6873620153       -7.5378578917  CLST         299          1.0000000000
       897       299  TIP3  H2            3.6744567147       -5.7521748618       -6.6444846245  CLST         299          1.0000000000
       898       300  TIP3  OH2          10.3552503471       -6.7548383365      -13.7342269132  CLST         300          1.0000000000
       899       300  TIP3  H1           10.3900437149       -6.1716636782      -14.4786940707  CLST         300          1.0000000000
       900       300  TIP3  H2            9.3941531977       -6.5594700171      -13.6454238012  CLST         300          1.0000000000
       901       301  TIP3  OH2          11.2101758513       -6.5600195287        0.3579049673  CLST         301          1.0000000000
       902       301  TIP3  H1           10.9425664276       -5.8221100711       -0.2326547894  CLST         301          1.0000000000
       903       301  TIP3  H2           10.8104655130       -7.1823449465       -0.2541875669  CLST         301          1.0000000000
       904       302  TIP3  OH2          11.5967759584       -7.3112022650       11.9447873632  CLST         302          1.0000000000
       905       302  TIP3  H1           12.0858452312       -6.7631205904       11.3466001677  CLST         302          1.0000000000
       906       302  TIP3  H2           11.6545024520       -8.1370047338       11.4231047953  CLST         302          1.0000000000
       907       303  TIP3  OH2          -8.9473573777       11.7603051247        6.8374329663  CLST         303          1.0000000000
       908       303  TIP3  H1           -9.4613296851       12.1767718473        6.1394561788  CLST         303          1.0000000000
       909       303  TIP3  H2           -8.3263815085       12.5043936256        6.9029939926  CLST         303          1.0000000000
       910       304  TIP3  OH2          -1.9401827462        8.2815996759       -0.7464292522  CLST         304          1.0000000000
       911       304  TIP3  H1           -2.5441771803        7.9591905738       -0.0114866543  CLST         304          1.0000000000
       912       304  TIP3  H2           -2.7509126003        8.5536492793       -1.1228775378  CLST         304          1.0000000000
       913       305  TIP3  OH2          -2.5074937626       -6.2193023299      -10.4635478768  CLST         305          1.0000000000
       914       305  TIP3  H1           -2.1077927293       -5.2361550228      -10.9066176319  CLST         305          1.0000000000
       915       305  TIP3  H2           -1.6462807927       -6.2540339493      -10.8737246091  CLST         305          1.0000000000
       916       306  TIP3  OH2          -8.6178476418      -14.4473294036       -6.9950791639  CLST         306          1.0000000000
       917       306  TIP3  H1           -7.8458246871      -14.9841405708       -7.1170478987  CLST         306          1.0000000000
       918       306  TIP3  H2           -8.2163404970      -13.8903291965       -6.3194438591  CLST         306          1.0000000000
       919       307  TIP3  OH2           0.8256194776       10.1065850487      -14.4347533999  CLST         307          1.0000000000
       920       307  TIP3  H1            1.1219724128       10.6035819789      -13.7039867257  CLST         307          1.0000000000
       921       307  TIP3  H2            1.4138593166        9.4080724346      -14.2137734799  CLST         307          1.0000000000
       922       308  TIP3  OH2          12.4912655949       -3.3231758029       13.1513588711  CLST         308          1.0000000000
       923       308  TIP3  H1           12.5519668616       -3.2184423241       12.2556299247  CLST         308          1.0000000000
       924       308  TIP3  H2           13.2684405117       -3.8794941941       13.1648917294  CLST         308          1.0000000000
       925       309  TIP3  OH2          12.7219598929       12.4953311046       14.8450352203  CLST         309          1.0000000000
       926       309  TIP3  H1           12.2836770326       11.8556695212       14.2748995196  CLST         309          1.0000000000
       927       309  TIP3  H2           13.0622548088       12.7500555464       13.9342675224  CLST         309          1.0000000000
       928       310  TIP3  OH2           4.3898424062       14.5709351302       -6.4548969172  CLST         310          1.0000000000
       929       310  TIP3  H1            4.3609522467       14.8621987966       -7.2328176336  CLST         310          1.0000000000
       930       310  TIP3  H2            3.6211309649       14.1440793295       -7.2271641196  CLST         310          1.0000000000
       931       311  TIP3  OH2          -5.8714467672        6.0136256969       -5.2031497901  CLST         311          1.0000000000
       932       311  TIP3  H1           -6.7148395343        5.5617601307       -5.1314107162  CLST         311          1.0000000000
       933       311  TIP3  H2           -5.9247833791        5.7067412411       -6.1332874304  CLST         311          1.0000000000
       934       312  TIP3  OH2           4.8805673232       -8.7047748891        7.8413005743  CLST         312          1.0000000000
       935       312  TIP3  H1            4.7774305057       -7.7796052876        8.1141333829  CLST         312          1.0000000000
       936       312  TIP3  H2            5.8472897073       -8.5972422300        7.5982999721  CLST         312          1.0000000000
       937       313  TIP3  OH2          -2.3769990462        7.8118189745       11.0088058709  CLST         313          1.0000000000
       938       313  TIP3  H1           -3.0294464025        8.4906098779       10.9271580490  CLST         313          1.0000000000
       939       313  TIP3  H2           -3.1265673243        7.2323533679       11.1771136579  CLST         313          1.0000000000
       940       314  TIP3  OH2           9.5683583866       -2.3929351783       -1.9391534519  CLST         314          1.0000000000
       941       314  TIP3  H1            9.8509810262       -3.1609700103       -1.5089501743  CLST         314          1.0000000000
       942       314  TIP3  H2            8.8689617562       -2.2826257554       -1.3086317896  CLST         314          1.0000000000
       943       315  TIP3  OH2           4.5206408153       10.0734023350       -2.8124388428  CLST         315          1.0000000000
       944       315  TIP3  H1            3.7576957558        9.5397767173       -2.6000771813  CLST         315          1.0000000000
       945       315  TIP3  H2            4.3895872145       10.8022737019       -2.1442014090  CLST         315          1.0000000000
       946       316  TIP3  OH2          13.9224388422       -6.5675542519       -5.8937060096  CLST         316          1.0000000000
       947       316  TIP3  H1           12.9911930129       -6.5222972360       -5.6757564473  CLST         316          1.0000000000
       948       316  TIP3  H2           13.8125578329       -5.8218913412       -6.4985931511  CLST         316          1.0000000000
       949       317  TIP3  OH2          -3.0253866160       -9.9370923181       -2.5798430880  CLST         317          1.0000000000
       950       317  TIP3  H1           -3.4521087578      -10.1094993649       -3.4937275091  CLST         317          1.0000000000
       951       317  TIP3  H2           -2.3216418164       -9.6772985296       -3.2328232414  CLST         317          1.0000000000
       952       318  TIP3  OH2          -1.2717885371        9.7023943783       -4.7714972394  CLST         318          1.0000000000
       953       318  TIP3  H1           -2.1549268688        9.5497749617       -5.0553703542  CLST         318          1.0000000000
       954       318  TIP3  H2           -1.2993448547       10.6568729283       -4.8839034629  CLST         318          1.0000000000
       955       319  TIP3  OH2           6.1525821352       -7.9721014246       -2.0774369865  CLST         319          1.0000000000
       956       319  TIP3  H1            6.8606385720       -8.1730738752       -2.6456979771  CLST         319          1.0000000000
       957       319  TIP3  H2            6.4837847490       -8.6110158294       -1.4570589600  CLST         319          1.0000000000
       958       320  TIP3  OH2           5.8278353733       12.7633521056      -12.3143667681  CLST         320          1.0000000000
       959       320  TIP3  H1            5.9254946799       12.5320107034      -13.2108405982  CLST         320          1.0000000000
       960       320  TIP3  H2            6.5154350438       12.1460789240      -11.9515559894  CLST         320          1.0000000000
       961       321  TIP3  OH2           1.3976111303      -11.4105179767        9.3493196428  CLST         321          1.0000000000
       962       321  TIP3  H1            1.7423167671      -11.9527186648       10.0493802052  CLST         321          1.0000000000
       963       321  TIP3  H2            1.5738845228      -10.7056014103        9.9612986499  CLST         321          1.0000000000
       964       322  TIP3  OH2           0.8476045287        5.6865981323        9.9934846070  CLST         322          1.0000000000
       965       322  TIP3  H1            0.5195479207        6.3292263723        9.3731842295  CLST         322          1.0000000000
       966       322  TIP3  H2           -0.0210289227        5.3190058818       10.1316147580  CLST         322          1.0000000000
       967       323  TIP3  OH2           7.8579492645        3.2011717359       12.7530774124  CLST         323          1.0000000000
       968       323  TIP3  H1            6.9679944404        3.1690769624       12.4733728028  CLST         323          1.0000000000
       969       323  TIP3  H2            8.0701738285        2.9155131032       11.8185242635  CLST         323          1.0000000000
       970       324  TIP3  OH2           6.5105953026        3.2246547355       -1.7605722452  CLST         324          1.0000000000
       971       324  TIP3  H1            6.3686951693        4.1155572007       -1.5069454679  CLST         324          1.0000000000
       972       324  TIP3  H2            6.4717077768        3.3499957833       -2.6759732454  CLST         324          1.0000000000
       973       325  TIP3  OH2         -12.6467648506       -8.5043915143       11.8485839523  CLST         325          1.0000000000
       974       325  TIP3  H1          -13.0077834861       -7.6924066787       11.5305260154  CLST         325          1.0000000000
       975       325  TIP3  H2          -11.8406651904       -8.0354850261       11.9781113026  CLST         325          1.0000000000
       976       326  TIP3  OH2         -12.3040294952        9.1459042310       -5.1609326031  CLST         326          1.0000000000
       977       326  TIP3  H1          -12.1685926559       10.1031534624       -5.3116320924  CLST         326          1.0000000000
       978       326  TIP3  H2          -11.6803168546        9.0009614486       -5.8730278658  CLST         326          1.0000000000
       979       327  TIP3  OH2          12.4605474207       -5.6922043594       10.0188359991  CLST         327          1.0000000000
       980       327  TIP3  H1           12.3614429807       -6.1310601269        9.1631859376  CLST         327          1.0000000000
       981       327  TIP3  H2           13.0161109871       -5.0383075151        9.6156679219  CLST         327          1.0000000000
       982       328  TIP3  OH2         -12.3257391603       -8.1801136834      -12.5800830098  CLST         328          1.0000000000
       983       328  TIP3  H1          -11.4743348358       -7.9591006571      -12.2653982366  CLST         328          1.0000000000
       984       328  TIP3  H2          -12.1377516474       -9.0823892929      -12.4541846509  CLST         328          1.0000000000
       985       329  TIP3  OH2           6.8038981825       -4.5175696275       -1.5627243510  CLST         329          1.0000000000
       986       329  TIP3  H1            5.9547436028       -3.9490641351       -1.1323605783  CLST         329          1.0000000000
       987       329  TIP3  H2            5.9030657410       -4.2094985362       -2.1467756073  CLST         329          1.0000000000
       988       330  TIP3  OH2          12.8283302861        5.9442829974      -14.4534695524  CLST         330          1.0000000000
       989       330  TIP3  H1           13.5855790077        5.9820621087      -14.9550509227  CLST         330          1.0000000000
       990       330  TIP3  H2           13.3650553746        6.1138106858      -13.6366823086  CLST         330          1.0000000000
       991       331  TIP3  OH2          -4.4970128358       -0.1294895575        6.0400917749  CLST         331          1.0000000000
       992       331  TIP3  H1           -4.4520875506        0.6768622362        5.5208564520  CLST         331          1.0000000000
       993       331  TIP3  H2           -5.4658983808       -0.0263292861        6.1456662613  CLST         331          1.0000000000
       994       332  TIP3  OH2          -8.8601320311        9.0899909402       -2.0256844518  CLST         332          1.0000000000
       995       332  TIP3  H1           -9.3455165263       10.0284124605       -1.9632816623  CLST         332          1.0000000000
       996       332  TIP3  H2           -8.5188924173        9.1234774892       -1.1290809614  CLST         332          1.0000000000
       997       333  TIP3  OH2          -6.9543825617       -8.7854695011       -6.8552353669  CLST         333          1.0000000000
       998       333  TIP3  H1           -7.3725073860       -9.1227556082       -7.6628801921  CLST         333          1.0000000000
       999       333  TIP3  H2           -7.6464211268       -8.0719058060       -6.7187130743  CLST         333          1.0000000000
      1000       334  TIP3  OH2         -10.4980700035        8.1026712894       -9.4432806709  CLST         334          1.0000000000
      1001       334  TIP3  H1           -9.9931439023        8.8159822714       -9.8449958208  CLST         334          1.0000000000
      1002       334  TIP3  H2          -10.4837725024        8.5313067726       -8.6092519850  CLST         334          1.0000000000
      1003       335  TIP3  OH2           1.5379005009        0.0205386796       -1.2045519181  CLST         335          1.0000000000
      1004       335  TIP3  H1            1.0822773522       -0.7985451956       -0.7608610087  CLST         335          1.0000000000
      1005       335  TIP3  H2            0.8069998669       -0.0518749058       -1.8914136305  CLST         335          1.0000000000
      1006       336  TIP3  OH2          11.6908235345        5.5123148800        1.7302035460  CLST         336          1.0000000000
      1007       336  TIP3  H1           10.8886497046        5.0734659554        1.5080106899  CLST         336          1.0000000000
      1008       336  TIP3  H2           11.3530848358        6.2753121969        1.3053453914  CLST         336          1.0000000000
      1009       337  TIP3  OH2           2.1816341019      -14.8403358076        5.3768779927  CLST         337          1.0000000000
      1010       337  TIP3  H1            2.0977267019      -13.9396587025        5.8062367216  CLST         337          1.0000000000
      1011       337  TIP3  H2            1.7977471410      -14.3220341583        4.6132461998  CLST         337          1.0000000000
      1012       338  TIP3  OH2          -4.4353773117        2.6632415121      -11.6631436354  CLST         338          1.0000000000
      1013       338  TIP3  H1           -5.3202574762        2.7714958897      -11.9715465259  CLST         338          1.0000000000
      1014       338  TIP3  H2           -4.4720198065        1.9937692564      -12.4102351284  CLST         338          1.0000000000
      1015       339  TIP3  OH2           5.1627611056        2.2946628659       -7.8961102190  CLST         339          1.0000000000
      1016       339  TIP3  H1            4.2096015585        2.1904478640       -7.9710169897  CLST         339          1.0000000000
      1017       339  TIP3  H2            5.2136184773        2.9365007038       -8.5597507727  CLST         339          1.0000000000
      1018       340  TIP3  OH2         -10.7429301847       12.1083620326       -8.7026637670  CLST         340          1.0000000000
      1019       340  TIP3  H1          -11.6403524451       11.9782232667       -9.0389492344  CLST         340          1.0000000000
      1020       340  TIP3  H2          -10.9466773909       12.9391798229       -8.2775591513  CLST         340          1.0000000000
      1021       341  TIP3  OH2          -1.8325737799       14.0324934228       -0.7066570457  CLST         341          1.0000000000
      1022       341  TIP3  H1           -1.6970754950       13.2305205004       -1.2297999410  CLST         341          1.0000000000
      1023       341  TIP3  H2           -2.2344676950       14.4345367925       -1.4690854266  CLST         341          1.0000000000
      1024       342  TIP3  OH2         -11.6532984408        3.5998769944        9.6848479823  CLST         342          1.0000000000
      1025       342  TIP3  H1          -12.2138760001        2.9711800592       10.0424395484  CLST         342          1.0000000000
      1026       342  TIP3  H2          -11.4968127314        3.9883889720       10.5348252425  CLST         342          1.0000000000
      1027       343  TIP3  OH2          -0.6298532673       -1.4546088027      -14.0932705719  CLST         343          1.0000000000
      1028       343  TIP3  H1           -1.0250554639       -0.6278352804      -13.8574260059  CLST         343          1.0000000000
      1029       343  TIP3  H2           -0.7858062163       -1.3119315364      -15.0129765455  CLST         343          1.0000000000
      1030       344  TIP3  OH2           8.9726951504        4.0528949230        4.1801656315  CLST         344          1.0000000000
      1031       344  TIP3  H1            8.9176608922        4.9100790912        4.5835421486  CLST         344          1.0000000000
      1032       344  TIP3  H2            8.0600766821        3.8686337176        4.3657598637  CLST         344          1.0000000000
      1033       345  TIP3  OH2           0.1668449281        9.8519401851       -0.2780807689  CLST         345          1.0000000000
      1034       345  TIP3  H1            0.7627791411        9.2207759292        0.1902509845  CLST         345          1.0000000000
      1035       345  TIP3  H2           -0.5013803037        9.1529082438       -0.1623158567  CLST         345          1.0000000000
      1036       346  TIP3  OH2          -4.8012587992      -14.6571057620        6.1553863765  CLST         346          1.0000000000
      1037       346  TIP3  H1           -5.1123186731      -13.8228309912        5.8370495480  CLST         346          1.0000000000
      1038       346  TIP3  H2           -4.4683936244      -13.6835754494        6.7548257857  CLST         346          1.0000000000
      1039       347  TIP3  OH2         -13.8612474456      -11.7537984390       -1.9980064194  CLST         347          1.0000000000
      1040       347  TIP3  H1          -14.0739457515      -11.0667939937       -2.6608393224  CLST         347          1.0000000000
      1041       347  TIP3  H2          -13.7397316788      -11.0872367703       -1.3422455503  CLST         347          1.0000000000
      1042       348  TIP3  OH2           4.1761116482        7.6351093036       -7.5328353111  CLST         348          1.0000000000
      1043       348  TIP3  H1            5.1806799040        7.2618010074       -7.1006736173  CLST         348          1.0000000000
      1044       348  TIP3  H2            4.7053450982        7.9806860874       -6.6460118033  CLST         348          1.0000000000
      1045       349  TIP3  OH2           8.1105171477       10.0136240895        2.7166446165  CLST         349          1.0000000000
      1046       349  TIP3  H1            8.3472388517       10.4771293707        1.8995352855  CLST         349          1.0000000000
      1047       349  TIP3  H2            7.3648675452        9.5934926582        2.2679650760  CLST         349          1.0000000000
      1048       350  TIP3  OH2          -8.7277775215        1.0125583442      -14.5065796169  CLST         350          1.0000000000
      1049       350  TIP3  H1           -9.0659752581        0.1166337726      -14.2695183826  CLST         350          1.0000000000
      1050       350  TIP3  H2           -9.6638078682        1.1359068767      -14.7783039296  CLST         350          1.0000000000
      1051       351  TIP3  OH2          10.2380124838        3.2437056103        6.0572431410  CLST         351          1.0000000000
      1052       351  TIP3  H1           10.8722278022        3.8886581453        5.8531074657  CLST         351          1.0000000000
      1053       351  TIP3  H2           10.0961093149        3.0539633242        5.1036506791  CLST         351          1.0000000000
      1054       352  TIP3  OH2           5.4772010191       -0.4025086113       -8.3439071010  CLST         352          1.0000000000
      1055       352  TIP3  H1            6.1359000275       -0.7226633943       -7.6950298913  CLST         352          1.0000000000
      1056       352  TIP3  H2            5.5985830805        0.4678132851       -7.9232591840  CLST         352          1.0000000000
      1057       353  TIP3  OH2          -1.3090439000        9.5982794690      -12.8607528586  CLST         353          1.0000000000
      1058       353  TIP3  H1           -0.5285046940        9.2394146321      -13.3906126396  CLST         353          1.0000000000
      1059       353  TIP3  H2           -1.7375291891        8.7733954486      -12.8048350366  CLST         353          1.0000000000
      1060       354  TIP3  OH2         -11.7269396160      -10.9837466456      -14.2331454508  CLST         354          1.0000000000
      1061       354  TIP3  H1          -12.2039745605      -10.9310453781      -15.0314742652  CLST         354          1.0000000000
      1062       354  TIP3  H2          -10.9729684617      -11.1017059847      -14.8182653171  CLST         354          1.0000000000
      1063       355  TIP3  OH2           1.6824237228      -13.7553273436       -9.8050412039  CLST         355          1.0000000000
      1064       355  TIP3  H1            1.8238084814      -12.9635974419       -9.0826930666  CLST         355          1.0000000000
      1065       355  TIP3  H2            1.2525576630      -13.0446015155       -9.7736768154  CLST         355          1.0000000000
      1066       356  TIP3  OH2         -12.9490502778       -5.2018924390       -3.1045270917  CLST         356          1.0000000000
      1067       356  TIP3  H1          -13.1450667238       -6.0623141179       -3.3052574804  CLST         356          1.0000000000
      1068       356  TIP3  H2          -13.2931155369       -4.8151082452       -3.9232026277  CLST         356          1.0000000000
      1069       357  TIP3  OH2          -6.7711309319       -9.4198207166        5.0707453249  CLST         357          1.0000000000
      1070       357  TIP3  H1           -5.9849180168       -9.6390939458        4.5347520042  CLST         357          1.0000000000
      1071       357  TIP3  H2           -6.5894740935       -8.4690306978        4.7614162023  CLST         357          1.0000000000
      1072       358  TIP3  OH2          -2.2730101589       -7.4822612987        4.0859228808  CLST         358          1.0000000000
      1073       358  TIP3  H1           -1.2878400111       -7.5374235216        4.0008316972  CLST         358          1.0000000000
      1074       358  TIP3  H2           -2.2980775264       -7.2530879265        5.0359010485  CLST         358          1.0000000000
      1075       359  TIP3  OH2          10.1568374521        9.9537406264       -1.8402514274  CLST         359          1.0000000000
      1076       359  TIP3  H1            9.9181709895       10.2876460302       -0.9502223160  CLST         359          1.0000000000
      1077       359  TIP3  H2           10.7086788355       10.7166597598       -1.8506174138  CLST         359          1.0000000000
      1078       360  TIP3  OH2           7.5426309000       12.8783844112       13.0195703656  CLST         360          1.0000000000
      1079       360  TIP3  H1            8.4172862452       13.1970777879       12.8592358494  CLST         360          1.0000000000
      1080       360  TIP3  H2            7.2295859849       12.7977425180       12.1168737293  CLST         360          1.0000000000
      1081       361  TIP3  OH2          -6.0218462629      -10.7870719324       10.4412371045  CLST         361          1.0000000000
      1082       361  TIP3  H1           -6.2587951744      -11.1704548701        9.3953880163  CLST         361          1.0000000000
      1083       361  TIP3  H2           -6.1864765353      -11.7849935332       10.3174660282  CLST         361          1.0000000000
      1084       362  TIP3  OH2           4.4906425446       -3.4761778545       10.3126676980  CLST         362          1.0000000000
      1085       362  TIP3  H1            4.7892573544       -3.2018590039        9.4465233708  CLST         362          1.0000000000
      1086       362  TIP3  H2            5.3482872600       -3.8501151906       10.5597413873  CLST         362          1.0000000000
      1087       363  TIP3  OH2           4.9143253140       -4.7386043061       14.0805299653  CLST         363          1.0000000000
      1088       363  TIP3  H1            4.9561642365       -4.8518900475       15.0042270177  CLST         363          1.0000000000
      1089       363  TIP3  H2            5.7633466358       -4.3416356281       14.0591208205  CLST         363          1.0000000000
      1090       364  TIP3  OH2          -1.0451206435        4.8838820524       13.4634123515  CLST         364          1.0000000000
      1091       364  TIP3  H1           -0.1542723096        4.7306070655       13.8559615393  CLST         364          1.0000000000
      1092       364  TIP3  H2           -0.9869531220        5.8313262282       13.3436723849  CLST         364          1.0000000000
      1093       365  TIP3  OH2          -7.6250506873        4.9770603035      -11.7671764325  CLST         365          1.0000000000
      1094       365  TIP3  H1           -7.9294698732        5.2505044545      -10.9303426914  CLST         365          1.0000000000
      1095       365  TIP3  H2           -6.7299168688        5.3041020890      -11.5634508908  CLST         365          1.0000000000
      1096       366  TIP3  OH2         -10.1479931208       -2.8067892695        0.6813266615  CLST         366          1.0000000000
      1097       366  TIP3  H1          -10.9714754953       -2.8228363281        1.1007016838  CLST         366          1.0000000000
      1098       366  TIP3  H2          -10.6247826423       -2.8278823052       -0.1674100324  CLST         366          1.0000000000
      1099       367  TIP3  OH2          13.7281469901       10.5946955429       11.8707481124  CLST         367          1.0000000000
      1100       367  TIP3  H1           13.2163670668       11.3335315931       11.5008401553  CLST         367          1.0000000000
      1101       367  TIP3  H2           12.9678481051       10.5245063011       12.4638589260  CLST         367          1.0000000000
      1102       368  TIP3  OH2          -9.8661326077       -1.1163309059       13.0352533793  CLST         368          1.0000000000
      1103       368  TIP3  H1          -10.6401022523       -0.9467681625       12.5106036004  CLST         368          1.0000000000
      1104       368  TIP3  H2           -9.8252719457       -2.0621995648       12.9022250545  CLST         368          1.0000000000
      1105       369  TIP3  OH2           7.5007001459        9.5811570722       -2.5197686524  CLST         369          1.0000000000
      1106       369  TIP3  H1            8.5320983302        9.6365154338       -2.5920882100  CLST         369          1.0000000000
      1107       369  TIP3  H2            7.6135269882        8.7237839517       -2.2171890134  CLST         369          1.0000000000
      1108       370  TIP3  OH2          -6.8722067243      -12.9973784019       -0.9967437547  CLST         370          1.0000000000
      1109       370  TIP3  H1           -6.0234551857      -13.3575019195       -0.9060086941  CLST         370          1.0000000000
      1110       370  TIP3  H2           -7.1086238607      -13.3427006345       -0.1061830454  CLST         370          1.0000000000
      1111       371  TIP3  OH2           8.6619020221       12.3598408617        9.8031821212  CLST         371          1.0000000000
      1112       371  TIP3  H1            8.6163981658       11.6160008698        9.1586120896  CLST         371          1.0000000000
      1113       371  TIP3  H2            7.6203559922       12.3426293288        9.9212127595  CLST         371          1.0000000000
      1114       372  TIP3  OH2          -1.3525825536       11.5104690032       -1.9923367690  CLST         372          1.0000000000
      1115       372  TIP3  H1           -2.0689203333       10.8606814569       -2.0607996530  CLST         372          1.0000000000
      1116       372  TIP3  H2           -0.8567464937       10.9052139395       -1.4639992736  CLST         372          1.0000000000
      1117       373  TIP3  OH2           8.6840863258       -5.5640572696        8.5176765413  CLST         373          1.0000000000
      1118       373  TIP3  H1            9.0323514466       -6.4336666537        8.2359539787  CLST         373          1.0000000000
      1119       373  TIP3  H2            9.6371709481       -5.2965762217        8.4874351715  CLST         373          1.0000000000
      1120       374  TIP3  OH2          11.2322254759       -9.7653876137       -4.6098900586  CLST         374          1.0000000000
      1121       374  TIP3  H1           11.1389320609       -9.9345132189       -3.6536765772  CLST         374          1.0000000000
      1122       374  TIP3  H2           11.0366141471      -10.7194306209       -4.7096565648  CLST         374          1.0000000000
      1123       375  TIP3  OH2           1.3926298999       13.4137223440       -2.9080500675  CLST         375          1.0000000000
      1124       375  TIP3  H1            1.1810203739       13.8970298881       -2.1189257035  CLST         375          1.0000000000
      1125       375  TIP3  H2            0.6245894699       13.7066144126       -3.3515295138  CLST         375          1.0000000000
      1126       376  TIP3  OH2          10.8134521012        4.2954059961       -8.7613193364  CLST         376          1.0000000000
      1127       376  TIP3  H1            9.8605839221        4.5506158858       -8.7261605807  CLST         376          1.0000000000
      1128       376  TIP3  H2           10.9425068015        4.8488502836       -9.5880189825  CLST         376          1.0000000000
      1129       377  TIP3  OH2           7.9104576779       11.0743918286      -11.9129300849  CLST         377          1.0000000000
      1130       377  TIP3  H1            8.3391746056       10.5060594559      -12.5510214784  CLST         377          1.0000000000
      1131       377  TIP3  H2            8.8498597655       11.2819100939      -11.6352066135  CLST         377          1.0000000000
      1132       378  TIP3  OH2           6.5233671749        9.4466625296        7.4899299103  CLST         378          1.0000000000
      1133       378  TIP3  H1            7.0763414906        8.7087698495        7.8582229847  CLST         378          1.0000000000
      1134       378  TIP3  H2            5.9102626484        9.4790176758        8.2546482580  CLST         378          1.0000000000
      1135       379  TIP3  OH2          -6.8271834356      -10.6200734450       -2.3430969451  CLST         379          1.0000000000
      1136       379  TIP3  H1           -7.0516942182      -10.9665292621       -3.1836978253  CLST         379          1.0000000000
      1137       379  TIP3  H2           -6.7849656285      -11.4842481574       -1.9508453875  CLST         379          1.0000000000
      1138       380  TIP3  OH2           7.4816406250       11.5380256902        4.8014295343  CLST         380          1.0000000000
      1139       380  TIP3  H1            6.5416445575       11.7361107253        4.4782806300  CLST         380          1.0000000000
      1140       380  TIP3  H2            7.3681984381       10.9526775152        4.0547138003  CLST         380          1.0000000000
      1141       381  TIP3  OH2          -7.5914959886       -6.8820898876      -10.1876972134  CLST         381          1.0000000000
      1142       381  TIP3  H1           -7.9186743398       -6.9618019646      -11.0801351856  CLST         381          1.0000000000
      1143       381  TIP3  H2           -6.7906976282       -6.4105572330      -10.5275025674  CLST         381          1.0000000000
      1144       382  TIP3  OH2          -3.5541332236        2.4435257225       -2.0543300673  CLST         382          1.0000000000
      1145       382  TIP3  H1           -4.0227893163        2.7201009734       -2.8748517290  CLST         382          1.0000000000
      1146       382  TIP3  H2           -3.9080352035        1.6163118888       -2.4084870117  CLST         382          1.0000000000
      1147       383  TIP3  OH2          -7.5317361521       -9.4210860766        8.6287711386  CLST         383          1.0000000000
      1148       383  TIP3  H1           -6.5968524540       -9.2951264155        8.7948868076  CLST         383          1.0000000000
      1149       383  TIP3  H2           -7.2207388542      -10.0444623890        7.9606513409  CLST         383          1.0000000000
      1150       384  TIP3  OH2         -11.8413305319       -5.4558541734       13.3694719786  CLST         384          1.0000000000
      1151       384  TIP3  H1          -11.7029921147       -6.3614947006       13.6386502723  CLST         384          1.0000000000
      1152       384  TIP3  H2          -12.2967334488       -5.6767767720       12.6284490333  CLST         384          1.0000000000
      1153       385  TIP3  OH2           7.7874626229        0.6281641894        9.0300863442  CLST         385          1.0000000000
      1154       385  TIP3  H1            8.0477689352        1.4906224325        9.6754143916  CLST         385          1.0000000000
      1155       385  TIP3  H2            8.4179595164        0.5992092316        9.9576602187  CLST         385          1.0000000000
      1156       386  TIP3  OH2         -12.5293566536       -8.7207883601        8.3065114922  CLST         386          1.0000000000
      1157       386  TIP3  H1          -12.0753161646       -7.9199400732        8.4866401609  CLST         386          1.0000000000
      1158       386  TIP3  H2          -12.1093483298       -9.1683763210        9.0100448118  CLST         386          1.0000000000
      1159       387  TIP3  OH2          -1.1086851123      -12.6893509694       -1.0339870362  CLST         387          1.0000000000
      1160       387  TIP3  H1           -1.3269458348      -13.1307209361       -0.1523305547  CLST         387          1.0000000000
      1161       387  TIP3  H2           -1.5324996601      -11.9363242574       -0.5767719318  CLST         387          1.0000000000
      1162       388  TIP3  OH2           3.3756389029        7.1590747850        7.1502648859  CLST         388          1.0000000000
      1163       388  TIP3  H1            2.9684098318        7.0325983881        6.2324854751  CLST         388          1.0000000000
      1164       388  TIP3  H2            4.1712409794        7.5103466234        6.7483021189  CLST         388          1.0000000000
      1165       389  TIP3  OH2          -3.7472710649      -10.9576729397       -0.1639486843  CLST         389          1.0000000000
      1166       389  TIP3  H1           -4.6739347383      -10.7266959105       -0.2565788873  CLST         389          1.0000000000
      1167       389  TIP3  H2           -3.4985117016      -10.4146918174       -0.9232407859  CLST         389          1.0000000000
      1168       390  TIP3  OH2          -1.0134304224        5.0111958287        4.6692307454  CLST         390          1.0000000000
      1169       390  TIP3  H1           -0.2518701637        4.1559029688        4.8802043153  CLST         390          1.0000000000
      1170       390  TIP3  H2           -0.7967183439        4.1469824693        3.9743215344  CLST         390          1.0000000000
      1171       391  TIP3  OH2          -6.0594182938       -4.8108755706        1.5605601440  CLST         391          1.0000000000
      1172       391  TIP3  H1           -5.8580239584       -4.0153102158        1.1156825503  CLST         391          1.0000000000
      1173       391  TIP3  H2           -6.9679482533       -4.6424871927        1.8001401659  CLST         391          1.0000000000
      1174       392  TIP3  OH2           4.9066163417        9.2285094613       -5.3554325905  CLST         392          1.0000000000
      1175       392  TIP3  H1            5.8509349586        9.0284944639       -5.1841913145  CLST         392          1.0000000000
      1176       392  TIP3  H2            4.7135487267        9.3877051042       -4.4364547550  CLST         392          1.0000000000
      1177       393  TIP3  OH2          13.2260057026       11.1138490280       -7.8284809325  CLST         393          1.0000000000
      1178       393  TIP3  H1           13.1658873087       10.2336110515       -8.2738118858  CLST         393          1.0000000000
      1179       393  TIP3  H2           12.6924252021       10.8678196253       -7.0258034356  CLST         393          1.0000000000
      1180       394  TIP3  OH2           1.2506168491        6.7645835299        5.2922582661  CLST         394          1.0000000000
      1181       394  TIP3  H1            0.7676781625        7.0803821514        4.5157458333  CLST         394          1.0000000000
      1182       394  TIP3  H2            1.3402288204        5.9150636584        4.8608461960  CLST         394          1.0000000000
      1183       395  TIP3  OH2          -5.9968021291        7.2453826836        0.1013335536  CLST         395          1.0000000000
      1184       395  TIP3  H1           -5.9075996653        6.6631586190        0.8564977538  CLST         395          1.0000000000
      1185       395  TIP3  H2           -5.0943156980        7.5257312706        0.2793923550  CLST         395          1.0000000000
      1186       396  TIP3  OH2          -3.4324714433        9.5411342365       -2.3878933568  CLST         396          1.0000000000
      1187       396  TIP3  H1           -3.5631963096        8.9549512901       -3.1404289605  CLST         396          1.0000000000
      1188       396  TIP3  H2           -4.3271830003        9.8393098453       -2.5500615656  CLST         396          1.0000000000
      1189       397  TIP3  OH2           2.4806193804      -12.7565347000      -13.4807238153  CLST         397          1.0000000000
      1190       397  TIP3  H1            1.8155196946      -12.0740204996      -13.5907280275  CLST         397          1.0000000000
      1191       397  TIP3  H2            2.8275024854      -12.2727030288      -12.7437977093  CLST         397          1.0000000000
      1192       398  TIP3  OH2           8.6871185856       -4.4269736633        0.9130856215  CLST         398          1.0000000000
      1193       398  TIP3  H1            8.1772972288       -5.3333437072        0.6059248487  CLST         398          1.0000000000
      1194       398  TIP3  H2            8.2773908486       -4.4343070423        0.2084336102  CLST         398          1.0000000000
      1195       399  TIP3  OH2         -14.3237343261       -2.9206568522       13.4594781320  CLST         399          1.0000000000
      1196       399  TIP3  H1          -14.8728887364       -3.5644607711       13.9094699999  CLST         399          1.0000000000
      1197       399  TIP3  H2          -13.5231102738       -3.2406780565       13.7790644372  CLST         399          1.0000000000
      1198       400  TIP3  OH2         -13.2014625209        8.6876174517        4.3164136520  CLST         400          1.0000000000
      1199       400  TIP3  H1          -13.4947342343        9.2395475053        5.0513302650  CLST         400          1.0000000000
      1200       400  TIP3  H2          -13.0687822712        8.0220471885        4.9538878812  CLST         400          1.0000000000
      1201       401  TIP3  OH2           1.4326761344        5.3823896018      -13.6253931541  CLST         401          1.0000000000
      1202       401  TIP3  H1            1.6579423642        5.3975288643      -14.5658917949  CLST         401          1.0000000000
      1203       401  TIP3  H2            1.0952585681        6.2546125254      -13.6520389037  CLST         401          1.0000000000
      1204       402  TIP3  OH2          14.4639695928       -5.0672700157       14.1716616864  CLST         402          1.0000000000
      1205       402  TIP3  H1           13.7087840278       -5.7386258148       14.3634834949  CLST         402          1.0000000000
      1206       402  TIP3  H2           15.0816238188       -5.4882706942       14.7598020428  CLST         402          1.0000000000
      1207       403  TIP3  OH2         -13.1596837741       12.0009801004       -2.7964947962  CLST         403          1.0000000000
      1208       403  TIP3  H1          -13.9966759448       11.7025463891       -2.9081499135  CLST         403          1.0000000000
      1209       403  TIP3  H2          -13.0098365145       12.2748974076       -3.7123165401  CLST         403          1.0000000000
      1210       404  TIP3  OH2           5.3826523856       -3.2389661914        0.3535031378  CLST         404          1.0000000000
      1211       404  TIP3  H1            4.5308293934       -2.9323113494        0.7228269128  CLST         404          1.0000000000
      1212       404  TIP3  H2            5.6823736488       -3.3983230679        1.2265134248  CLST         404          1.0000000000
      1213       405  TIP3  OH2           2.3848953993        8.3920913561       -3.1179610216  CLST         405          1.0000000000
      1214       405  TIP3  H1            1.9331040715        9.2384328406       -2.9344440098  CLST         405          1.0000000000
      1215       405  TIP3  H2            1.5099543494        7.9693721087       -3.1612144364  CLST         405          1.0000000000
      1216       406  TIP3  OH2          -9.1365443992       -2.5372023535       -7.2491068173  CLST         406          1.0000000000
      1217       406  TIP3  H1           -8.7642721993       -1.7747635698       -6.8364543641  CLST         406          1.0000000000
      1218       406  TIP3  H2           -9.9574063888       -2.1806428326       -7.2854091081  CLST         406          1.0000000000
      1219       407  TIP3  OH2           5.3718120432        5.5044632628        4.8113204395  CLST         407          1.0000000000
      1220       407  TIP3  H1            6.1357735406        5.6939415333        5.2381996306  CLST         407          1.0000000000
      1221       407  TIP3  H2            5.8653138518        5.5772294830        4.0172862806  CLST         407          1.0000000000
      1222       408  TIP3  OH2         -14.0431575044       -4.4743034240       -5.5556337034  CLST         408          1.0000000000
      1223       408  TIP3  H1          -14.1365388833       -3.5344395810       -5.8021274574  CLST         408          1.0000000000
      1224       408  TIP3  H2          -14.2953890582       -4.8264358908       -6.4686317881  CLST         408          1.0000000000
      1225       409  TIP3  OH2          -1.9535880084      -12.7561585832        1.4390359802  CLST         409          1.0000000000
      1226       409  TIP3  H1           -2.5952959335      -13.0342183761        2.1050218893  CLST         409          1.0000000000
      1227       409  TIP3  H2           -1.6352824286      -12.0561106080        2.0870465770  CLST         409          1.0000000000
      1228       410  TIP3  OH2          12.7547926816       -2.0508478566       10.9364057500  CLST         410          1.0000000000
      1229       410  TIP3  H1           12.4816002287       -1.4687160228       10.1362455344  CLST         410          1.0000000000
      1230       410  TIP3  H2           13.3959609668       -2.4542000439       10.3492375895  CLST         410          1.0000000000
      1231       411  TIP3  OH2           8.5306437544      -13.4697504501       -2.4888361218  CLST         411          1.0000000000
      1232       411  TIP3  H1            8.3969015186      -13.7237801287       -1.5944758498  CLST         411          1.0000000000
      1233       411  TIP3  H2            7.8225861314      -13.9605555244       -2.8879192647  CLST         411          1.0000000000
      1234       412  TIP3  OH2          13.2177618990       -4.4798388689       -7.5309827667  CLST         412          1.0000000000
      1235       412  TIP3  H1           12.6670865961       -4.3796989429       -8.2943267876  CLST         412          1.0000000000
      1236       412  TIP3  H2           12.6960286319       -3.9102488592       -6.9786220245  CLST         412          1.0000000000
      1237       413  TIP3  OH2           7.4489718168        8.2969968414       -5.2428289266  CLST         413          1.0000000000
      1238       413  TIP3  H1            7.6760202351        8.1105033438       -4.2801521600  CLST         413          1.0000000000
      1239       413  TIP3  H2            8.4534126731        8.3110590221       -5.4309543819  CLST         413          1.0000000000
      1240       414  TIP3  OH2          -9.3201465452       -5.0935955581      -12.0331876880  CLST         414          1.0000000000
      1241       414  TIP3  H1           -8.5160484100       -4.3257835134      -12.1256374305  CLST         414          1.0000000000
      1242       414  TIP3  H2           -9.2495566970       -4.2986509865      -11.3202315827  CLST         414          1.0000000000
      1243       415  TIP3  OH2         -14.4243348096        0.7779764306        5.6832725508  CLST         415          1.0000000000
      1244       415  TIP3  H1          -14.5895603280        1.7271025760        5.8202104753  CLST         415          1.0000000000
      1245       415  TIP3  H2          -13.6616594468        0.9075516734        6.2525906778  CLST         415          1.0000000000
      1246       416  TIP3  OH2          11.3784841310       12.3940794818       -2.1423592717  CLST         416          1.0000000000
      1247       416  TIP3  H1           11.9489250669       12.3997086242       -2.9008318723  CLST         416          1.0000000000
      1248       416  TIP3  H2           10.6826610998       12.9562614635       -2.5395221176  CLST         416          1.0000000000
      1249       417  TIP3  OH2          10.7357154328      -12.6522814170       -5.1280925286  CLST         417          1.0000000000
      1250       417  TIP3  H1           10.2423047891      -13.1993298221       -4.4962175660  CLST         417          1.0000000000
      1251       417  TIP3  H2            9.9821242195      -12.7331849793       -5.7100737816  CLST         417          1.0000000000
      1252       418  TIP3  OH2          -1.8832871347        5.3406408821        1.1684593942  CLST         418          1.0000000000
      1253       418  TIP3  H1           -2.2222032793        5.2309148578        0.2864334885  CLST         418          1.0000000000
      1254       418  TIP3  H2           -2.7680397129        5.5321441728        1.4321630769  CLST         418          1.0000000000
      1255       419  TIP3  OH2          -8.2943244128        9.4112130820        8.1300565242  CLST         419          1.0000000000
      1256       419  TIP3  H1           -8.5655902710       10.0739467058        7.4116839977  CLST         419          1.0000000000
      1257       419  TIP3  H2           -8.7093689984       10.0135074360        8.6948535473  CLST         419          1.0000000000
      1258       420  TIP3  OH2           3.1781090270        9.0032959551      -14.1060426799  CLST         420          1.0000000000
      1259       420  TIP3  H1            3.7870283212        8.9722488610      -13.3769586153  CLST         420          1.0000000000
      1260       420  TIP3  H2            3.4079338764        8.2045670883      -14.5849544364  CLST         420          1.0000000000
      1261       421  TIP3  OH2          -3.9297061667        7.1464340069       -3.5836462238  CLST         421          1.0000000000
      1262       421  TIP3  H1           -4.7614820784        6.6712896296       -3.9031873546  CLST         421          1.0000000000
      1263       421  TIP3  H2           -3.6278668198        6.3789133307       -3.1134345195  CLST         421          1.0000000000
      1264       422  TIP3  OH2           3.1316265684      -10.4191029685       -2.5569097052  CLST         422          1.0000000000
      1265       422  TIP3  H1            2.4971403356      -11.0406409974       -2.2081050651  CLST         422          1.0000000000
      1266       422  TIP3  H2            3.1426033954      -10.0019665442       -1.6661561251  CLST         422          1.0000000000
      1267       423  TIP3  OH2          -5.2732435842        5.1050729787        1.7179272183  CLST         423          1.0000000000
      1268       423  TIP3  H1           -4.7654928896        4.3070615775        1.4097266346  CLST         423          1.0000000000
      1269       423  TIP3  H2           -4.8416200547        4.9599738580        2.6058839104  CLST         423          1.0000000000
      1270       424  TIP3  OH2          -9.6038312965        8.5625423726        4.8078705136  CLST         424          1.0000000000
      1271       424  TIP3  H1           -9.2315385935        9.2231815432        4.2578609440  CLST         424          1.0000000000
      1272       424  TIP3  H2           -9.8082306745        8.0039250685        4.0652534120  CLST         424          1.0000000000
      1273       425  TIP3  OH2          -9.8161090483        2.3662515388       -9.0989430237  CLST         425          1.0000000000
      1274       425  TIP3  H1           -9.9373816163        1.6821602285       -8.4449643826  CLST         425          1.0000000000
      1275       425  TIP3  H2          -10.5464154829        2.8375685085       -8.7667225144  CLST         425          1.0000000000
      1276       426  TIP3  OH2          -1.0487956685       -8.9086721566       -4.2677232542  CLST         426          1.0000000000
      1277       426  TIP3  H1           -0.1016953208       -9.1683105768       -4.1764689954  CLST         426          1.0000000000
      1278       426  TIP3  H2           -1.0252127754       -9.0950665420       -5.2314740757  CLST         426          1.0000000000
      1279       427  TIP3  OH2          -9.8503092024        2.1085013299        5.2381246880  CLST         427          1.0000000000
      1280       427  TIP3  H1           -9.7327620871        3.1068812963        5.1914616309  CLST         427          1.0000000000
      1281       427  TIP3  H2          -10.5497018478        2.1042366704        5.8712476109  CLST         427          1.0000000000
      1282       428  TIP3  OH2          -6.5691531507       13.6889596996        6.7554493068  CLST         428          1.0000000000
      1283       428  TIP3  H1           -6.1378647532       14.5044483393        6.5043290171  CLST         428          1.0000000000
      1284       428  TIP3  H2           -6.2921991575       13.1754381951        5.9805259527  CLST         428          1.0000000000
      1285       429  TIP3  OH2           0.1600704602      -11.6206696689      -10.8825000292  CLST         429          1.0000000000
      1286       429  TIP3  H1           -0.8852862081      -12.1064906024      -11.1736533007  CLST         429          1.0000000000
      1287       429  TIP3  H2           -0.4670575567      -11.8524134035      -10.3226026582  CLST         429          1.0000000000
      1288       430  TIP3  OH2           0.6541372187       10.0460938662       10.0096162384  CLST         430          1.0000000000
      1289       430  TIP3  H1            0.0311932236       10.6498922411       10.4889826426  CLST         430          1.0000000000
      1290       430  TIP3  H2            0.9344339275        9.7380198628       10.8990532547  CLST         430          1.0000000000
      1291       431  TIP3  OH2          -6.1838418923       -3.4757804117       -4.0421377164  CLST         431          1.0000000000
      1292       431  TIP3  H1           -5.7560009148       -3.3723510290       -4.9615645146  CLST         431          1.0000000000
      1293       431  TIP3  H2           -6.7737550381       -4.0337198480       -4.5524193365  CLST         431          1.0000000000
      1294       432  TIP3  OH2          -5.3342609735        3.5702322574       -3.6450623778  CLST         432          1.0000000000
      1295       432  TIP3  H1           -6.4379928216        3.7325695716       -3.9156702522  CLST         432          1.0000000000
      1296       432  TIP3  H2           -6.0222941475        4.2441384699       -3.1309658467  CLST         432          1.0000000000
      1297       433  TIP3  OH2          -8.7868308551        3.2084135134       10.3283502617  CLST         433          1.0000000000
      1298       433  TIP3  H1           -8.4166725480        4.0550338101       10.1010966910  CLST         433          1.0000000000
      1299       433  TIP3  H2           -9.1470921022        3.6433467571       11.0618467613  CLST         433          1.0000000000
      1300       434  TIP3  OH2           0.9640406977       -4.1334778545        9.7421233054  CLST         434          1.0000000000
      1301       434  TIP3  H1            0.2080292947       -3.8878201233       10.3918775026  CLST         434          1.0000000000
      1302       434  TIP3  H2            1.3649592024       -3.2176745732        9.8737816820  CLST         434          1.0000000000
      1303       435  TIP3  OH2           7.4849933820       -8.3514130836        6.3317903148  CLST         435          1.0000000000
      1304       435  TIP3  H1            7.7893426305       -8.4651228331        5.4155866010  CLST         435          1.0000000000
      1305       435  TIP3  H2            6.8862732664       -7.6589196594        6.0925802083  CLST         435          1.0000000000
      1306       436  TIP3  OH2          -6.7818585558       14.1097425731       -2.0670047809  CLST         436          1.0000000000
      1307       436  TIP3  H1           -6.8285103007       14.9739864196       -2.3452917774  CLST         436          1.0000000000
      1308       436  TIP3  H2           -6.8766275589       14.3181177951       -1.1405439594  CLST         436          1.0000000000
      1309       437  TIP3  OH2          -0.8353139905      -13.4159839980        5.3598253142  CLST         437          1.0000000000
      1310       437  TIP3  H1           -1.5803267284      -12.7952235462        5.2866040518  CLST         437          1.0000000000
      1311       437  TIP3  H2           -0.2812289879      -12.5868982277        5.3611069014  CLST         437          1.0000000000
      1312       438  TIP3  OH2         -12.1232733298       -0.9571957594       -3.2227718413  CLST         438          1.0000000000
      1313       438  TIP3  H1          -11.9777059903       -1.6517922988       -2.5903195141  CLST         438          1.0000000000
      1314       438  TIP3  H2          -12.7129972206       -0.3832401295       -2.6443636129  CLST         438          1.0000000000
      1315       439  TIP3  OH2          -3.9137308764       -3.7974697743        3.4663120156  CLST         439          1.0000000000
      1316       439  TIP3  H1           -4.8699298821       -3.5875031928        4.0521592381  CLST         439          1.0000000000
      1317       439  TIP3  H2           -4.7188919001       -4.2727527909        3.2095333890  CLST         439          1.0000000000
      1318       440  TIP3  OH2         -10.1698641122      -11.6319989976       12.2674812894  CLST         440          1.0000000000
      1319       440  TIP3  H1          -10.0271178345      -11.0248662046       11.5141318193  CLST         440          1.0000000000
      1320       440  TIP3  H2           -9.4212509870      -12.0582107048       11.7848759337  CLST         440          1.0000000000
      1321       441  TIP3  OH2         -14.5045079274        3.6734016376        7.2556500829  CLST         441          1.0000000000
      1322       441  TIP3  H1          -14.4483394898        4.6470550666        7.4012636604  CLST         441          1.0000000000
      1323       441  TIP3  H2          -15.0274873631        3.5814030911        6.3872509949  CLST         441          1.0000000000
      1324       442  TIP3  OH2           9.4230458238        0.6526274277      -12.3046920431  CLST         442          1.0000000000
      1325       442  TIP3  H1            9.6429329517       -0.1356500367      -11.8335836413  CLST         442          1.0000000000
      1326       442  TIP3  H2           10.2169320585        0.5616483990      -12.7778828525  CLST         442          1.0000000000
      1327       443  TIP3  OH2           7.9959731731       -8.3711069706        3.5963493089  CLST         443          1.0000000000
      1328       443  TIP3  H1            8.8464022757       -8.0045144850        3.2874165217  CLST         443          1.0000000000
      1329       443  TIP3  H2            7.5506618377       -7.5717175627        3.2786269603  CLST         443          1.0000000000
      1330       444  TIP3  OH2          12.9159566737        8.4225289954       -0.4382740890  CLST         444          1.0000000000
      1331       444  TIP3  H1           13.2390824262        9.2945091262       -0.2452759391  CLST         444          1.0000000000
      1332       444  TIP3  H2           13.6462783950        8.0408753039       -0.0028835950  CLST         444          1.0000000000
      1333       445  TIP3  OH2          -8.8422991461       -9.6966158685       14.3544737507  CLST         445          1.0000000000
      1334       445  TIP3  H1           -8.1742238225       -9.4306577980       13.6638135553  CLST         445          1.0000000000
      1335       445  TIP3  H2           -8.4433777070       -8.9578780285       14.8036472700  CLST         445          1.0000000000
      1336       446  TIP3  OH2          12.7763193718       11.0073772623        0.0384207499  CLST         446          1.0000000000
      1337       446  TIP3  H1           12.3682235280       11.6088787769        0.7276826370  CLST         446          1.0000000000
      1338       446  TIP3  H2           12.4419364186       11.6526816709       -0.5462524716  CLST         446          1.0000000000
      1339       447  TIP3  OH2          -3.6158890252       13.4046235684        5.0309169988  CLST         447          1.0000000000
      1340       447  TIP3  H1           -4.0921371948       14.1204450754        5.5397103771  CLST         447          1.0000000000
      1341       447  TIP3  H2           -4.4119906596       12.9124499598        4.8910143706  CLST         447          1.0000000000
      1342       448  TIP3  OH2         -10.6726041219        9.2336022647      -12.9900112549  CLST         448          1.0000000000
      1343       448  TIP3  H1          -10.0520641253        9.6852056712      -12.3856674964  CLST         448          1.0000000000
      1344       448  TIP3  H2           -9.9827532242        8.5175121940      -13.0888017629  CLST         448          1.0000000000
      1345       449  TIP3  OH2           5.3154775568       -7.8231896753       -5.7844914545  CLST         449          1.0000000000
      1346       449  TIP3  H1            5.5263478736       -8.6444811717       -5.2503444493  CLST         449          1.0000000000
      1347       449  TIP3  H2            4.9171410975       -7.5149125214       -4.9825239593  CLST         449          1.0000000000
      1348       450  TIP3  OH2           4.8891133471       10.2190450971       11.5756304843  CLST         450          1.0000000000
      1349       450  TIP3  H1            5.7306079306        9.7623594849       11.7538861635  CLST         450          1.0000000000
      1350       450  TIP3  H2            4.7316292291        9.8473617748       10.6749926541  CLST         450          1.0000000000
      1351       451  TIP3  OH2         -12.5112546543       11.0617591922      -12.6125547179  CLST         451          1.0000000000
      1352       451  TIP3  H1          -12.4677442890       11.6144735151      -13.3683300965  CLST         451          1.0000000000
      1353       451  TIP3  H2          -11.8969202567       10.4406242563      -12.9473679331  CLST         451          1.0000000000
      1354       452  TIP3  OH2          -9.9874369463       14.5968662659        1.5880117420  CLST         452          1.0000000000
      1355       452  TIP3  H1          -10.6721069043       14.0147773716        1.8647430499  CLST         452          1.0000000000
      1356       452  TIP3  H2          -10.6416448690       15.0444147998        1.1000215240  CLST         452          1.0000000000
      1357       453  TIP3  OH2          -3.2171513822       -8.5169313609      -13.7022354858  CLST         453          1.0000000000
      1358       453  TIP3  H1           -4.1263525966       -8.7633260913      -13.4149282408  CLST         453          1.0000000000
      1359       453  TIP3  H2           -3.2548377559       -9.1289141697      -14.4739615911  CLST         453          1.0000000000
      1360       454  TIP3  OH2          13.6927156624      -13.3519647110       11.2219370209  CLST         454          1.0000000000
      1361       454  TIP3  H1           14.4879407159      -13.6493306663       11.6708458187  CLST         454          1.0000000000
      1362       454  TIP3  H2           13.6523217394      -12.6193565542       11.8642499985  CLST         454          1.0000000000
      1363       455  TIP3  OH2         -13.3991534620       -9.8788940577       -4.4067094291  CLST         455          1.0000000000
      1364       455  TIP3  H1          -13.4525897827       -8.8913870252       -4.3775070608  CLST         455          1.0000000000
      1365       455  TIP3  H2          -12.6446232627       -9.7606418223       -3.9193497836  CLST         455          1.0000000000
      1366       456  TIP3  OH2          -8.0529779506        7.1487164938        6.6046345156  CLST         456          1.0000000000
      1367       456  TIP3  H1           -8.0819164307        7.9346833204        7.1854273941  CLST         456          1.0000000000
      1368       456  TIP3  H2           -8.5552299735        7.6943919853        6.0135775435  CLST         456          1.0000000000
      1369       457  TIP3  OH2          -3.8349236941      -12.8110983074        8.4213249529  CLST         457          1.0000000000
      1370       457  TIP3  H1           -3.7911921149      -12.9929010322        9.3134681522  CLST         457          1.0000000000
      1371       457  TIP3  H2           -3.0197215251      -13.2522608813        8.3169715016  CLST         457          1.0000000000
      1372       458  TIP3  OH2          -2.3183996725       12.1137773294      -11.4144274222  CLST         458          1.0000000000
      1373       458  TIP3  H1           -3.2037403873       12.3704913447      -11.5579035579  CLST         458          1.0000000000
      1374       458  TIP3  H2           -2.2825172562       11.4995275426      -12.1638590151  CLST         458          1.0000000000
      1375       459  TIP3  OH2         -13.6376877465        7.2177170248       -3.8951946130  CLST         459          1.0000000000
      1376       459  TIP3  H1          -13.7708841385        7.7185005404       -3.1428500217  CLST         459          1.0000000000
      1377       459  TIP3  H2          -13.1694620147        7.7606847276       -4.5271080658  CLST         459          1.0000000000
      1378       460  TIP3  OH2           7.1955832181        9.6170445918      -13.8749654740  CLST         460          1.0000000000
      1379       460  TIP3  H1            6.6627827701        9.6662259549      -13.0942071794  CLST         460          1.0000000000
      1380       460  TIP3  H2            6.7506389599       10.3867772471      -14.1885150027  CLST         460          1.0000000000
      1381       461  TIP3  OH2           0.4046682245        7.6964473253      -12.8669669393  CLST         461          1.0000000000
      1382       461  TIP3  H1           -0.3427837474        7.1679212973      -12.4922963127  CLST         461          1.0000000000
      1383       461  TIP3  H2            0.5093492366        8.1387697850      -11.9948723544  CLST         461          1.0000000000
      1384       462  TIP3  OH2           4.2875320221        7.7317729139      -10.1860403472  CLST         462          1.0000000000
      1385       462  TIP3  H1            3.5033073069        7.2439019231      -10.4996351944  CLST         462          1.0000000000
      1386       462  TIP3  H2            4.0711526815        7.5947194861       -9.2698101007  CLST         462          1.0000000000
      1387       463  TIP3  OH2          -1.2112249574      -11.5393161383       -8.2594495256  CLST         463          1.0000000000
      1388       463  TIP3  H1           -2.0646744598      -11.8923051093       -8.5283061011  CLST         463          1.0000000000
      1389       463  TIP3  H2           -1.4370447418      -11.7291877602       -7.3511398972  CLST         463          1.0000000000
      1390       464  TIP3  OH2          -2.0868038959        2.6198996274       14.3898192375  CLST         464          1.0000000000
      1391       464  TIP3  H1           -2.8084703954        2.3368820274       13.8984153134  CLST         464          1.0000000000
      1392       464  TIP3  H2           -2.2041416443        3.5542316510       14.1546907212  CLST         464          1.0000000000
      1393       465  TIP3  OH2         -14.6419270992        6.0367554151        8.0271580305  CLST         465          1.0000000000
      1394       465  TIP3  H1          -14.6863593126        5.7882560649        8.9496972628  CLST         465          1.0000000000
      1395       465  TIP3  H2          -14.6034600410        6.9787163885        8.2821433108  CLST         465          1.0000000000
      1396       466  TIP3  OH2          -4.0962485442      -13.4764770669        3.0435258727  CLST         466          1.0000000000
      1397       466  TIP3  H1           -4.5514541557      -14.1994926368        3.4554996928  CLST         466          1.0000000000
      1398       466  TIP3  H2           -4.9035017420      -13.1406993201        2.6811552018  CLST         466          1.0000000000
      1399       467  TIP3  OH2           4.4615754398       14.7027322746        8.0943644230  CLST         467          1.0000000000
      1400       467  TIP3  H1            5.2087227977       14.1731397371        8.4150763413  CLST         467          1.0000000000
      1401       467  TIP3  H2            4.2578467538       15.0125008407        8.9952044125  CLST         467          1.0000000000
      1402       468  TIP3  OH2          -8.5975948541       -0.8838125669        1.8458347767  CLST         468          1.0000000000
      1403       468  TIP3  H1           -8.8388996656       -1.0919249764        2.7369706629  CLST         468          1.0000000000
      1404       468  TIP3  H2           -9.3411345041       -1.4586545912        1.5997634024  CLST         468          1.0000000000
      1405       469  TIP3  OH2           6.9369751795        0.8259816883       14.4783546821  CLST         469          1.0000000000
      1406       469  TIP3  H1            6.0969129889        0.5672017037       14.1354821679  CLST         469          1.0000000000
      1407       469  TIP3  H2            6.8878016392        1.7290512324       14.1246115830  CLST         469          1.0000000000
      1408       470  TIP3  OH2           1.1802601770       11.5366019575       -8.6968468982  CLST         470          1.0000000000
      1409       470  TIP3  H1            1.2866026057       12.4985513795       -8.6081752738  CLST         470          1.0000000000
      1410       470  TIP3  H2            1.9528216541       11.3824642107       -8.1328885053  CLST         470          1.0000000000
      1411       471  TIP3  OH2           5.3791845956        5.5540708167       -2.1094122196  CLST         471          1.0000000000
      1412       471  TIP3  H1            4.8057186747        5.6389962619       -2.8297037389  CLST         471          1.0000000000
      1413       471  TIP3  H2            4.6891185291        5.9431694252       -1.5543896159  CLST         471          1.0000000000
      1414       472  TIP3  OH2           5.2600975603      -12.2897990646       -7.0814846070  CLST         472          1.0000000000
      1415       472  TIP3  H1            5.0724156674      -13.0780155119       -7.5204391876  CLST         472          1.0000000000
      1416       472  TIP3  H2            5.4924291430      -12.6083413393       -6.2767128217  CLST         472          1.0000000000
      1417       473  TIP3  OH2          -4.0487395988        2.7405999574        1.0232186373  CLST         473          1.0000000000
      1418       473  TIP3  H1           -3.1082623099        2.6044282516        0.8611196115  CLST         473          1.0000000000
      1419       473  TIP3  H2           -4.3052495904        2.0587073911        0.4125332806  CLST         473          1.0000000000
      1420       474  TIP3  OH2           8.2585194587        4.5207972270        7.7221028300  CLST         474          1.0000000000
      1421       474  TIP3  H1            7.7543594424        3.8032615272        7.0738039954  CLST         474          1.0000000000
      1422       474  TIP3  H2            8.7580660497        3.9345017514        6.9162634557  CLST         474          1.0000000000
      1423       475  TIP3  OH2           6.2403449968       -3.9422946687       -7.9579870587  CLST         475          1.0000000000
      1424       475  TIP3  H1            5.9121960825       -3.4031368591       -8.6289881554  CLST         475          1.0000000000
      1425       475  TIP3  H2            6.8428248844       -4.3307367500       -8.5960965285  CLST         475          1.0000000000
      1426       476  TIP3  OH2           3.4110735262       10.2166636589       -8.0714232240  CLST         476          1.0000000000
      1427       476  TIP3  H1            3.8960694141        9.3864381792       -8.0070111110  CLST         476          1.0000000000
      1428       476  TIP3  H2            3.1200139079       10.1244918601       -7.1201551376  CLST         476          1.0000000000
      1429       477  TIP3  OH2          -7.2929614894       -3.4856745143       -9.7987334469  CLST         477          1.0000000000
      1430       477  TIP3  H1           -6.9192691733       -2.8312128258      -10.3844099570  CLST         477          1.0000000000
      1431       477  TIP3  H2           -6.4452847972       -3.7177359721       -9.4177704856  CLST         477          1.0000000000
      1432       478  TIP3  OH2           0.7262199998       -5.0208908516      -12.5669137225  CLST         478          1.0000000000
      1433       478  TIP3  H1            1.1325491055       -5.8982965117      -12.5378731679  CLST         478          1.0000000000
      1434       478  TIP3  H2            1.3860101438       -4.8330068553      -11.8731817543  CLST         478          1.0000000000
      1435       479  TIP3  OH2           0.1484331668       -1.5148974383       -7.4418151249  CLST         479          1.0000000000
      1436       479  TIP3  H1            0.4348711109       -1.2605556203       -6.5465313943  CLST         479          1.0000000000
      1437       479  TIP3  H2            1.0008550784       -1.3335164034       -7.8195161133  CLST         479          1.0000000000
      1438       480  TIP3  OH2           5.6718049150       -0.9726276062        9.0369323779  CLST         480          1.0000000000
      1439       480  TIP3  H1            6.3898841458       -1.5707045203        9.2125008724  CLST         480          1.0000000000
      1440       480  TIP3  H2            6.3547973566       -0.3516509853        8.7265096103  CLST         480          1.0000000000
      1441       481  TIP3  OH2          -6.7481961850        2.2400368906       -5.7398665627  CLST         481          1.0000000000
      1442       481  TIP3  H1           -7.2591921175        2.9509903332       -6.0198318072  CLST         481          1.0000000000
      1443       481  TIP3  H2           -5.9557504944        2.4336028731       -6.1684334364  CLST         481          1.0000000000
      1444       482  TIP3  OH2           3.6683824489       -7.8871310410        4.2607707120  CLST         482          1.0000000000
      1445       482  TIP3  H1            4.2546219778       -7.5134337119        4.8716394013  CLST         482          1.0000000000
      1446       482  TIP3  H2            3.3576594833       -6.9615300947        4.1885415950  CLST         482          1.0000000000
      1447       483  TIP3  OH2         -15.0828567514        0.2990178544       -8.0920185289  CLST         483          1.0000000000
      1448       483  TIP3  H1          -14.7916287791       -0.5976135041       -8.2822923659  CLST         483          1.0000000000
      1449       483  TIP3  H2          -14.2333743437        0.6533533778       -7.7772720346  CLST         483          1.0000000000
      1450       484  TIP3  OH2          14.7918377926       -2.3921464213       -8.7930950310  CLST         484          1.0000000000
      1451       484  TIP3  H1           14.2704245833       -3.0079466157       -8.2727178156  CLST         484          1.0000000000
      1452       484  TIP3  H2           14.0989984953       -2.0355317754       -9.3714699026  CLST         484          1.0000000000
      1453       485  TIP3  OH2          -3.5520310709        5.3254588574        3.7637683125  CLST         485          1.0000000000
      1454       485  TIP3  H1           -2.7975693957        5.1100674440        4.2737096156  CLST         485          1.0000000000
      1455       485  TIP3  H2           -3.9838781312        5.7455883129        4.5214679220  CLST         485          1.0000000000
      1456       486  TIP3  OH2          11.1750010463       13.0331151315       -8.9398666895  CLST         486          1.0000000000
      1457       486  TIP3  H1           11.6095093703       12.5686043724       -8.2507304390  CLST         486          1.0000000000
      1458       486  TIP3  H2           11.9280927872       12.8608495243       -9.4956676621  CLST         486          1.0000000000
      1459       487  TIP3  OH2           2.2739062789       -5.6787321302        3.4377205996  CLST         487          1.0000000000
      1460       487  TIP3  H1            2.6901029394       -4.9399904921        3.8233216461  CLST         487          1.0000000000
      1461       487  TIP3  H2            1.7656727513       -5.1397244783        2.8302144928  CLST         487          1.0000000000
      1462       488  TIP3  OH2         -11.5715623684       -0.7257840938       11.0238146499  CLST         488          1.0000000000
      1463       488  TIP3  H1          -12.0936844079        0.1093737828       10.9884856039  CLST         488          1.0000000000
      1464       488  TIP3  H2          -10.9351811702       -0.4086538905       10.3708340311  CLST         488          1.0000000000
      1465       489  TIP3  OH2          -8.3615630455        7.9883095894       -4.4966336851  CLST         489          1.0000000000
      1466       489  TIP3  H1           -8.5079998897        8.2770208806       -3.5804515939  CLST         489          1.0000000000
      1467       489  TIP3  H2           -7.4493929106        7.9776573413       -4.3140234130  CLST         489          1.0000000000
      1468       490  TIP3  OH2         -11.2135030604       11.0729760869        5.1282886643  CLST         490          1.0000000000
      1469       490  TIP3  H1          -11.2435414516       10.1533136934        5.1858387282  CLST         490          1.0000000000
      1470       490  TIP3  H2          -10.5182545106       11.0677841357        4.5035779868  CLST         490          1.0000000000
      1471       491  TIP3  OH2          -1.0822751761      -10.0944219612       11.0704137715  CLST         491          1.0000000000
      1472       491  TIP3  H1           -0.4456916652       -9.8855668976       10.4213274237  CLST         491          1.0000000000
      1473       491  TIP3  H2           -0.6794196796       -9.4878874871       11.6585940846  CLST         491          1.0000000000
      1474       492  TIP3  OH2          -2.0720748242       10.3040454297        2.7899089005  CLST         492          1.0000000000
      1475       492  TIP3  H1           -1.3680325389       10.8884822171        2.5393089011  CLST         492          1.0000000000
      1476       492  TIP3  H2           -2.6837254026       10.7131362751        2.1968792332  CLST         492          1.0000000000
      1477       493  TIP3  OH2          -6.2120638498       10.4336162565       -2.9655424341  CLST         493          1.0000000000
      1478       493  TIP3  H1           -6.6120698430       10.9540445291       -3.6616284063  CLST         493          1.0000000000
      1479       493  TIP3  H2           -7.0757676496       10.3743249021       -2.5995235657  CLST         493          1.0000000000
      1480       494  TIP3  OH2         -13.7189046098       10.8229104108       12.3864236044  CLST         494          1.0000000000
      1481       494  TIP3  H1          -14.5794239130       10.7747460934       12.0495892103  CLST         494          1.0000000000
      1482       494  TIP3  H2          -13.3150120680       11.5698812250       11.9817006514  CLST         494          1.0000000000
      1483       495  TIP3  OH2           3.1705896284      -12.9232426689       13.6424646551  CLST         495          1.0000000000
      1484       495  TIP3  H1            2.9097169200      -12.9585739894       14.5422911912  CLST         495          1.0000000000
      1485       495  TIP3  H2            3.6156764049      -12.0628013306       13.7828136350  CLST         495          1.0000000000
      1486       496  TIP3  OH2         -15.0606405540        6.5203526925        0.3476190985  CLST         496          1.0000000000
      1487       496  TIP3  H1          -14.4243179522        6.6954881665        1.0574928535  CLST         496          1.0000000000
      1488       496  TIP3  H2          -14.9787127253        5.5937637866        0.4335163380  CLST         496          1.0000000000
      1489       497  TIP3  OH2         -13.6190484303       -8.7437847265        3.3548732564  CLST         497          1.0000000000
      1490       497  TIP3  H1          -14.3839432156       -8.1563297705        3.2511033824  CLST         497          1.0000000000
      1491       497  TIP3  H2          -13.7899720636       -9.0393956995        4.2647766866  CLST         497          1.0000000000
      1492       498  TIP3  OH2           4.2629896511       14.2072697074      -10.5682671138  CLST         498          1.0000000000
      1493       498  TIP3  H1            4.5005679355       13.5786904608      -11.5074033269  CLST         498          1.0000000000
      1494       498  TIP3  H2            4.8847758773       13.2674973108      -10.6609006250  CLST         498          1.0000000000
      1495       499  TIP3  OH2           1.5473198348       10.9823880170       -2.9585404823  CLST         499          1.0000000000
      1496       499  TIP3  H1            0.7912280362       11.5811676632       -2.9248305955  CLST         499          1.0000000000
      1497       499  TIP3  H2            2.0620089040       11.6219316508       -2.4242081033  CLST         499          1.0000000000
      1498       500  TIP3  OH2          -6.2665024464       -2.5124742883        4.3675475758  CLST         500          1.0000000000
      1499       500  TIP3  H1           -7.0958568831       -2.3293626388        3.9830119322  CLST         500          1.0000000000
      1500       500  TIP3  H2           -5.8641619201       -1.8780807353        3.7959773013  CLST         500          1.0000000000
      1501       501  TIP3  OH2         -12.5028627278      -13.5620737884       -6.0037694696  CLST         501          1.0000000000
      1502       501  TIP3  H1          -13.1363167209      -12.9185709576       -6.2857722697  CLST         501          1.0000000000
      1503       501  TIP3  H2          -11.8472783547      -12.8031944700       -6.2475801978  CLST         501          1.0000000000
      1504       502  TIP3  OH2          -1.5244726893       -3.7060601905      -11.5385792476  CLST         502          1.0000000000
      1505       502  TIP3  H1           -1.0432858359       -2.9368784114      -11.8092787814  CLST         502          1.0000000000
      1506       502  TIP3  H2           -0.5007109206       -3.8406584122      -12.1392736066  CLST         502          1.0000000000
      1507       503  TIP3  OH2          -0.2394780375       -4.9187683161        1.0543016482  CLST         503          1.0000000000
      1508       503  TIP3  H1            0.4180190350       -5.2583332222        0.4617455058  CLST         503          1.0000000000
      1509       503  TIP3  H2           -0.9203292294       -5.4938219545        0.7148451839  CLST         503          1.0000000000
      1510       504  TIP3  OH2          -4.2411678636       -3.5947564293       12.6453890601  CLST         504          1.0000000000
      1511       504  TIP3  H1           -4.6627260625       -4.4215307646       13.0315896809  CLST         504          1.0000000000
      1512       504  TIP3  H2           -3.9886296510       -3.1653472721       13.4657533946  CLST         504          1.0000000000
      1513       505  TIP3  OH2           5.7639680965       12.1177894693       -9.3126352674  CLST         505          1.0000000000
      1514       505  TIP3  H1            5.7755882844       11.7100120421       -8.4586449287  CLST         505          1.0000000000
      1515       505  TIP3  H2            6.6415541704       12.4985197774       -9.1750873781  CLST         505          1.0000000000
      1516       506  TIP3  OH2          -4.0192024849        3.7275547357       10.3482284398  CLST         506          1.0000000000
      1517       506  TIP3  H1           -4.7567132191        3.6216186125        9.6988549683  CLST         506          1.0000000000
      1518       506  TIP3  H2           -3.9990512113        2.8314424896       10.6504303896  CLST         506          1.0000000000
      1519       507  TIP3  OH2          -2.1473298435        6.9678389233      -12.5421708051  CLST         507          1.0000000000
      1520       507  TIP3  H1           -2.3546087509        6.2546728565      -12.1378783951  CLST         507          1.0000000000
      1521       507  TIP3  H2           -3.0201123637        6.9429514574      -12.9283501131  CLST         507          1.0000000000
      1522       508  TIP3  OH2         -11.2041126056        5.0858478867      -11.6271555919  CLST         508          1.0000000000
      1523       508  TIP3  H1          -12.0280476004        5.5218296463      -11.4818974823  CLST         508          1.0000000000
      1524       508  TIP3  H2          -11.6762240079        4.2291291984      -11.6040793013  CLST         508          1.0000000000
      1525       509  TIP3  OH2           4.9244147961        0.4040241883      -11.0110462555  CLST         509          1.0000000000
      1526       509  TIP3  H1            5.5458761402        0.5885109653      -10.3038278125  CLST         509          1.0000000000
      1527       509  TIP3  H2            5.7338579850        0.2321122187      -11.6034350813  CLST         509          1.0000000000
      1528       510  TIP3  OH2          -4.5058091596        0.2297175069       -3.6538463722  CLST         510          1.0000000000
      1529       510  TIP3  H1           -4.5109616884       -0.3114873140       -4.4137508764  CLST         510          1.0000000000
      1530       510  TIP3  H2           -3.7947723730        0.4965368281       -4.6087485832  CLST         510          1.0000000000
      1531       511  TIP3  OH2         -10.5919081920        1.6295392920       -0.9819528731  CLST         511          1.0000000000
      1532       511  TIP3  H1          -10.9639217693        2.2481666673       -0.3876724005  CLST         511          1.0000000000
      1533       511  TIP3  H2          -11.1121708822        0.9121696442       -0.6101592067  CLST         511          1.0000000000
      1534       512  TIP3  OH2          -3.2223492285       -8.0991869673       -8.5877662162  CLST         512          1.0000000000
      1535       512  TIP3  H1           -2.7586277582       -8.8418169871       -9.0310785807  CLST         512          1.0000000000
      1536       512  TIP3  H2           -2.9062011231       -7.4944528643       -9.2697448538  CLST         512          1.0000000000
      1537       513  TIP3  OH2           9.4145871872       14.1401918302       11.5468355785  CLST         513          1.0000000000
      1538       513  TIP3  H1            9.1503362978       15.0187672931       11.2667001618  CLST         513          1.0000000000
      1539       513  TIP3  H2            9.1326977836       13.7657912389       10.7233597620  CLST         513          1.0000000000
      1540       514  TIP3  OH2          -4.7236052393        7.7824407660      -12.9687564674  CLST         514          1.0000000000
      1541       514  TIP3  H1           -5.2767789052        7.9433116291      -13.7071822965  CLST         514          1.0000000000
      1542       514  TIP3  H2           -5.5055004687        7.9365329570      -12.3533378584  CLST         514          1.0000000000
      1543       515  TIP3  OH2           6.0169480272        6.0959694481       -6.0374513803  CLST         515          1.0000000000
      1544       515  TIP3  H1            5.5941049690        5.8716766057       -5.2336571192  CLST         515          1.0000000000
      1545       515  TIP3  H2            6.6948411381        6.6442557010       -5.5586974265  CLST         515          1.0000000000
      1546       516  TIP3  OH2           9.4338801189        0.2759074975       -8.0152286734  CLST         516          1.0000000000
      1547       516  TIP3  H1           10.3981059414        0.3251527353       -7.9416002391  CLST         516          1.0000000000
      1548       516  TIP3  H2            9.4255268862        1.2475365502       -7.9804900528  CLST         516          1.0000000000
      1549       517  TIP3  OH2          14.0387865372       -7.0347117663       -8.9059663969  CLST         517          1.0000000000
      1550       517  TIP3  H1           14.3915648171       -6.2246981249       -8.5262374093  CLST         517          1.0000000000
      1551       517  TIP3  H2           14.7873081001       -7.5743833784       -8.7290733576  CLST         517          1.0000000000
      1552       518  TIP3  OH2          -0.7088006910       12.1163385814       -5.9921880936  CLST         518          1.0000000000
      1553       518  TIP3  H1            0.1715652339       12.0241310101       -5.6592975731  CLST         518          1.0000000000
      1554       518  TIP3  H2           -0.7744898487       12.8588978881       -5.3879417451  CLST         518          1.0000000000
      1555       519  TIP3  OH2           0.8543501281        5.0351835244        1.2095222075  CLST         519          1.0000000000
      1556       519  TIP3  H1            0.7112682791        4.2307725728        0.7393050218  CLST         519          1.0000000000
      1557       519  TIP3  H2           -0.1087487942        5.1989549955        1.1525242719  CLST         519          1.0000000000
      1558       520  TIP3  OH2           6.7516696316        6.5652675558      -10.5950119112  CLST         520          1.0000000000
      1559       520  TIP3  H1            5.9119532532        7.0506793666      -10.6524960386  CLST         520          1.0000000000
      1560       520  TIP3  H2            7.0419274266        7.4408797540      -10.2316014158  CLST         520          1.0000000000
      1561       521  TIP3  OH2          -5.5921016053       10.1464808809        9.6120301516  CLST         521          1.0000000000
      1562       521  TIP3  H1           -4.8131540734       10.1672600246       10.1273360736  CLST         521          1.0000000000
      1563       521  TIP3  H2           -5.0443060464       10.4891649344        8.9041206741  CLST         521          1.0000000000
      1564       522  TIP3  OH2           3.0942674211        3.8433764160        2.2116183938  CLST         522          1.0000000000
      1565       522  TIP3  H1            2.3948228271        4.4208904943        1.9357226013  CLST         522          1.0000000000
      1566       522  TIP3  H2            2.9570855850        3.5130370011        1.2576934353  CLST         522          1.0000000000
      1567       523  TIP3  OH2           8.3022877804        0.6224990858       -3.4159422650  CLST         523          1.0000000000
      1568       523  TIP3  H1            7.3161191753        0.5146535035       -3.5417698224  CLST         523          1.0000000000
      1569       523  TIP3  H2            8.5614106193       -0.2514205689       -3.6796060853  CLST         523          1.0000000000
      1570       524  TIP3  OH2          -5.2591228355        5.6272018614      -10.5705850414  CLST         524          1.0000000000
      1571       524  TIP3  H1           -4.7844441555        6.4451121448      -10.7279437633  CLST         524          1.0000000000
      1572       524  TIP3  H2           -4.4509132659        5.1521727113      -10.7458990149  CLST         524          1.0000000000
      1573       525  TIP3  OH2          -5.6913952931        5.8601178067       -7.9733500453  CLST         525          1.0000000000
      1574       525  TIP3  H1           -5.1112845736        6.5700421902       -8.3283628504  CLST         525          1.0000000000
      1575       525  TIP3  H2           -5.4702063610        5.2919842881       -8.7394755303  CLST         525          1.0000000000
      1576       526  TIP3  OH2           9.6089348233      -11.1609244430      -12.9846005445  CLST         526          1.0000000000
      1577       526  TIP3  H1            9.9966957243      -11.1390569870      -13.7453383962  CLST         526          1.0000000000
      1578       526  TIP3  H2            8.8405963873      -10.6372695071      -13.2849210722  CLST         526          1.0000000000
      1579       527  TIP3  OH2         -11.5969917794       -3.2310499361       -1.6121684382  CLST         527          1.0000000000
      1580       527  TIP3  H1          -12.3508152440       -3.7082114653       -2.0438851602  CLST         527          1.0000000000
      1581       527  TIP3  H2          -11.0043578144       -3.5395605408       -2.3433750147  CLST         527          1.0000000000
      1582       528  TIP3  OH2           4.5962891924      -12.1063564290      -11.1975286594  CLST         528          1.0000000000
      1583       528  TIP3  H1            4.1821957027      -11.2651695697      -11.1261208354  CLST         528          1.0000000000
      1584       528  TIP3  H2            5.3788900522      -11.7872298016      -11.5434672142  CLST         528          1.0000000000
      1585       529  TIP3  OH2          -5.9390516451       -7.0607200300       -4.7601366468  CLST         529          1.0000000000
      1586       529  TIP3  H1           -5.2233079520       -7.6286668507       -4.9392080485  CLST         529          1.0000000000
      1587       529  TIP3  H2           -5.7338486677       -6.4714415502       -5.4718964480  CLST         529          1.0000000000
      1588       530  TIP3  OH2           2.8082612183       -5.7981914578        6.5844482939  CLST         530          1.0000000000
      1589       530  TIP3  H1            2.3684533835       -6.2591797746        7.2595858553  CLST         530          1.0000000000
      1590       530  TIP3  H2            2.0012084932       -5.6548238669        6.0509006561  CLST         530          1.0000000000
      1591       531  TIP3  OH2          -3.4821279081       -3.2763465158      -15.0828567514  CLST         531          1.0000000000
      1592       531  TIP3  H1           -4.4334263924       -3.1399156236      -14.7793567618  CLST         531          1.0000000000
      1593       531  TIP3  H2           -3.3660826082       -2.3976434529      -14.8306165222  CLST         531          1.0000000000
      1594       532  TIP3  OH2          -1.2559908420       -3.6081352637       -2.0470551911  CLST         532          1.0000000000
      1595       532  TIP3  H1           -1.8785804229       -2.8695470340       -2.1262527777  CLST         532          1.0000000000
      1596       532  TIP3  H2           -1.7665438065       -3.9171252025       -1.3434938482  CLST         532          1.0000000000
      1597       533  TIP3  OH2          -3.1388485829       13.3025555466        8.0618618445  CLST         533          1.0000000000
      1598       533  TIP3  H1           -4.0217546142       13.7636668212        8.0358671392  CLST         533          1.0000000000
      1599       533  TIP3  H2           -3.5726080967       12.4822766933        8.0406598914  CLST         533          1.0000000000
      1600       534  TIP3  OH2           6.9188272325       -4.4413660277       -5.2559748006  CLST         534          1.0000000000
      1601       534  TIP3  H1            6.1278672468       -4.4197372317       -4.7659208573  CLST         534          1.0000000000
      1602       534  TIP3  H2            6.3259149396       -4.3430764793       -6.0888232554  CLST         534          1.0000000000
      1603       535  TIP3  OH2           7.1815724098       -3.7571556232      -11.4169903971  CLST         535          1.0000000000
      1604       535  TIP3  H1            6.3734317558       -3.3167293315      -11.0859286301  CLST         535          1.0000000000
      1605       535  TIP3  H2            7.3773210165       -4.2478099222      -10.6561113879  CLST         535          1.0000000000
      1606       536  TIP3  OH2          14.5692602732        8.1141597840       10.8216544831  CLST         536          1.0000000000
      1607       536  TIP3  H1           14.2423929428        8.9223337009       11.1846561282  CLST         536          1.0000000000
      1608       536  TIP3  H2           15.0529331220        8.5184825294       10.0601813336  CLST         536          1.0000000000
      1609       537  TIP3  OH2           4.5936378246       -4.4642930764       -3.5633653722  CLST         537          1.0000000000
      1610       537  TIP3  H1            3.6870669390       -4.2347305988       -3.8461196574  CLST         537          1.0000000000
      1611       537  TIP3  H2            4.2840861085       -5.3627256003       -3.4876559584  CLST         537          1.0000000000
      1612       538  TIP3  OH2          -0.5324113235        7.5225568130       12.9682199256  CLST         538          1.0000000000
      1613       538  TIP3  H1           -1.1309373668        7.7482585165       12.2380167597  CLST         538          1.0000000000
      1614       538  TIP3  H2           -0.5132454617        8.5042538731       13.0365432698  CLST         538          1.0000000000
      1615       539  TIP3  OH2           6.2485677053        8.7861855622        1.1198718997  CLST         539          1.0000000000
      1616       539  TIP3  H1            6.6907995704        8.1060080730        0.5734401806  CLST         539          1.0000000000
      1617       539  TIP3  H2            5.8144837786        8.0468231942        1.5498732813  CLST         539          1.0000000000
      1618       540  TIP3  OH2          12.2004366441       -1.2171084888       -4.0169830148  CLST         540          1.0000000000
      1619       540  TIP3  H1           13.0203642790       -0.7336415851       -4.0541492014  CLST         540          1.0000000000
      1620       540  TIP3  H2           12.3737259604       -1.5470081514       -3.1645334741  CLST         540          1.0000000000
      1621       541  TIP3  OH2          10.4865043094        7.3657978799        8.4221208611  CLST         541          1.0000000000
      1622       541  TIP3  H1           10.5645483250        7.6587966566        9.3330827944  CLST         541          1.0000000000
      1623       541  TIP3  H2           10.9161695431        6.5496183338        8.6458085849  CLST         541          1.0000000000
      1624       542  TIP3  OH2          13.5597683360        0.7667727983       -5.3018990866  CLST         542          1.0000000000
      1625       542  TIP3  H1           12.9882696604        1.2268217885       -5.9657272364  CLST         542          1.0000000000
      1626       542  TIP3  H2           14.1237113951        0.6767131818       -6.0936462459  CLST         542          1.0000000000
      1627       543  TIP3  OH2          10.0817636236       -6.4104778472        5.6529732111  CLST         543          1.0000000000
      1628       543  TIP3  H1           10.3329154978       -6.7784749316        4.8072564022  CLST         543          1.0000000000
      1629       543  TIP3  H2            9.5641091544       -5.6963202753        5.1457088645  CLST         543          1.0000000000
      1630       544  TIP3  OH2           6.8106427460        4.3885044227      -12.2611495129  CLST         544          1.0000000000
      1631       544  TIP3  H1            7.2280612885        3.7850726335      -11.6778205131  CLST         544          1.0000000000
      1632       544  TIP3  H2            6.7362888146        4.9680866993      -11.4771224613  CLST         544          1.0000000000
      1633       545  TIP3  OH2         -12.0199287715        2.0489607796        7.3298418310  CLST         545          1.0000000000
      1634       545  TIP3  H1          -12.7661540642        2.6678288427        7.3683972660  CLST         545          1.0000000000
      1635       545  TIP3  H2          -11.7081032654        2.4974209305        8.1211633960  CLST         545          1.0000000000
      1636       546  TIP3  OH2          -1.1179907531       12.0485288412       10.7706032637  CLST         546          1.0000000000
      1637       546  TIP3  H1           -0.8413229806       12.8532222588       10.3589591026  CLST         546          1.0000000000
      1638       546  TIP3  H2           -0.6415154301       12.3376058573       11.5215500494  CLST         546          1.0000000000
      1639       547  TIP3  OH2          -2.1281013634        7.1641262148        5.9651423046  CLST         547          1.0000000000
      1640       547  TIP3  H1           -2.1673778811        6.7575687466        6.8570304616  CLST         547          1.0000000000
      1641       547  TIP3  H2           -1.6351193098        6.4034610926        5.5853295244  CLST         547          1.0000000000
      1642       548  TIP3  OH2           2.8308408949       -7.7277824756       12.6314577118  CLST         548          1.0000000000
      1643       548  TIP3  H1            2.5305470896       -6.7548368052       12.6085445163  CLST         548          1.0000000000
      1644       548  TIP3  H2            3.7200930629       -7.4581874975       12.2631132139  CLST         548          1.0000000000
      1645       549  TIP3  OH2          -6.5818982728       14.4934188653        3.2342124139  CLST         549          1.0000000000
      1646       549  TIP3  H1           -7.2212183496       14.8761693048        3.8017478679  CLST         549          1.0000000000
      1647       549  TIP3  H2           -6.5270032733       13.6472987559        3.6619964513  CLST         549          1.0000000000
      1648       550  TIP3  OH2          -8.0279515306        4.6033193574       -4.2756894691  CLST         550          1.0000000000
      1649       550  TIP3  H1           -8.8652917736        4.0552378180       -3.8164603925  CLST         550          1.0000000000
      1650       550  TIP3  H2           -8.5347010591        5.0157832067       -3.7092851829  CLST         550          1.0000000000
      1651       551  TIP3  OH2          -2.3018480880      -13.5259373348       -3.3788937051  CLST         551          1.0000000000
      1652       551  TIP3  H1           -1.9154707298      -13.1309418083       -2.5639608067  CLST         551          1.0000000000
      1653       551  TIP3  H2           -3.1774385690      -13.2215751867       -3.1128073815  CLST         551          1.0000000000
      1654       552  TIP3  OH2          -2.2435789812       -7.7974056167       13.6662153029  CLST         552          1.0000000000
      1655       552  TIP3  H1           -2.5034825567       -8.6620889928       13.9052962074  CLST         552          1.0000000000
      1656       552  TIP3  H2           -1.5950950370       -7.8471770553       12.9529483681  CLST         552          1.0000000000
      1657       553  TIP3  OH2           8.1565542778      -13.8797733472        0.1548079833  CLST         553          1.0000000000
      1658       553  TIP3  H1            8.4923181932      -13.1240342196        0.5655892772  CLST         553          1.0000000000
      1659       553  TIP3  H2            8.4325454071      -14.4968458498        0.8449281136  CLST         553          1.0000000000
      1660       554  TIP3  OH2          -9.1938963611      -12.1953509267       -3.6813178894  CLST         554          1.0000000000
      1661       554  TIP3  H1           -9.5365550506      -11.5084621939       -3.0241012656  CLST         554          1.0000000000
      1662       554  TIP3  H2          -10.0134554515      -12.6573737721       -3.4064856386  CLST         554          1.0000000000
      1663       555  TIP3  OH2         -11.1610676529       -5.2547949942       -7.4882895973  CLST         555          1.0000000000
      1664       555  TIP3  H1          -11.2778441414       -4.2980562694       -7.5461662003  CLST         555          1.0000000000
      1665       555  TIP3  H2          -11.0371019468       -5.1996197221       -6.5065095893  CLST         555          1.0000000000
      1666       556  TIP3  OH2         -10.5024741544       11.3221577703       13.7167014560  CLST         556          1.0000000000
      1667       556  TIP3  H1          -11.0991701664       10.6446252429       14.0737582014  CLST         556          1.0000000000
      1668       556  TIP3  H2           -9.7017435880       10.8045815911       13.5549422541  CLST         556          1.0000000000
      1669       557  TIP3  OH2          -2.5708970565       -6.6381009007        1.3097068872  CLST         557          1.0000000000
      1670       557  TIP3  H1           -2.5435946972       -6.7611065143        2.2629484518  CLST         557          1.0000000000
      1671       557  TIP3  H2           -2.4868423000       -7.5761285991        1.0727916030  CLST         557          1.0000000000
      1672       558  TIP3  OH2         -10.3591447936        6.2521420978        2.9956997085  CLST         558          1.0000000000
      1673       558  TIP3  H1          -10.2176715099        5.6722530051        3.8264557709  CLST         558          1.0000000000
      1674       558  TIP3  H2           -9.9421042494        5.5635297304        2.4421624432  CLST         558          1.0000000000
      1675       559  TIP3  OH2           1.1052872375        2.4416980233       -0.0182022742  CLST         559          1.0000000000
      1676       559  TIP3  H1            1.2009923487        2.0574193399       -1.0583473308  CLST         559          1.0000000000
      1677       559  TIP3  H2            1.7810275088        1.6281961836       -0.2426036045  CLST         559          1.0000000000
      1678       560  TIP3  OH2          12.6044258571      -11.9317733200        1.0336077026  CLST         560          1.0000000000
      1679       560  TIP3  H1           12.8902301881      -12.1150125690        0.1232733560  CLST         560          1.0000000000
      1680       560  TIP3  H2           12.0368047369      -12.6900298215        0.8695945980  CLST         560          1.0000000000
      1681       561  TIP3  OH2         -12.9125441755        8.6344406670      -10.8203760884  CLST         561          1.0000000000
      1682       561  TIP3  H1          -12.0904534643        8.8749100745      -11.3142716471  CLST         561          1.0000000000
      1683       561  TIP3  H2          -12.1110867190        8.5973852545      -10.1627948755  CLST         561          1.0000000000
      1684       562  TIP3  OH2           9.7976789070        6.9308089881       13.2376312422  CLST         562          1.0000000000
      1685       562  TIP3  H1           10.3207421217        7.2432729155       13.9959353534  CLST         562          1.0000000000
      1686       562  TIP3  H2           10.0898705361        6.0823323785       13.4721118119  CLST         562          1.0000000000
      1687       563  TIP3  OH2           3.0799939661      -10.2931293570       -6.6791028402  CLST         563          1.0000000000
      1688       563  TIP3  H1            3.8557492694      -10.7749812992       -6.8295873784  CLST         563          1.0000000000
      1689       563  TIP3  H2            2.5410725504      -10.8851364242       -7.2090809020  CLST         563          1.0000000000
      1690       564  TIP3  OH2           4.7178881781      -13.5162810961       -2.7817008433  CLST         564          1.0000000000
      1691       564  TIP3  H1            5.1293018364      -13.6314149224       -3.6603188645  CLST         564          1.0000000000
      1692       564  TIP3  H2            3.9726451218      -13.1549634148       -3.2013477889  CLST         564          1.0000000000
      1693       565  TIP3  OH2           1.5744672367       12.2470085414        0.4381149058  CLST         565          1.0000000000
      1694       565  TIP3  H1            1.2646088526       11.4033610595        0.1118500893  CLST         565          1.0000000000
      1695       565  TIP3  H2            2.4763140212       12.1220317479        0.0292254546  CLST         565          1.0000000000
      1696       566  TIP3  OH2          -8.7725886863        5.5252527432        0.8771575548  CLST         566          1.0000000000
      1697       566  TIP3  H1           -8.5948006308        4.7969076368        0.0583421049  CLST         566          1.0000000000
      1698       566  TIP3  H2           -9.0951098267        5.6740499693       -0.1760960007  CLST         566          1.0000000000
      1699       567  TIP3  OH2          12.1621818921       -0.0484055454       -8.2176549203  CLST         567          1.0000000000
      1700       567  TIP3  H1           13.0867865062       -0.0432684443       -7.9849923039  CLST         567          1.0000000000
      1701       567  TIP3  H2           12.3047101392       -0.5288184742       -9.0548336994  CLST         567          1.0000000000
      1702       568  TIP3  OH2           8.9193594414       -7.0904994848       11.5704142016  CLST         568          1.0000000000
      1703       568  TIP3  H1            9.8645471281       -7.0828268392       11.7617610725  CLST         568          1.0000000000
      1704       568  TIP3  H2            8.9105807834       -6.1289625624       11.4855461662  CLST         568          1.0000000000
      1705       569  TIP3  OH2          -8.4443395158       -6.1836125242        3.6406822235  CLST         569          1.0000000000
      1706       569  TIP3  H1           -8.5450975765       -5.8370784108        2.7032603890  CLST         569          1.0000000000
      1707       569  TIP3  H2           -9.2021864903       -6.7678505892        3.5148993287  CLST         569          1.0000000000
      1708       570  TIP3  OH2           6.1715085220       11.7879913468       15.0828567514  CLST         570          1.0000000000
      1709       570  TIP3  H1            5.3019384346       11.6381859131       14.6518433256  CLST         570          1.0000000000
      1710       570  TIP3  H2            6.5408461160       12.2425693727       14.3294154073  CLST         570          1.0000000000
      1711       571  TIP3  OH2           9.4257320844        1.1984682114        4.4288748502  CLST         571          1.0000000000
      1712       571  TIP3  H1            8.5317983647        1.4917817120        4.5861540439  CLST         571          1.0000000000
      1713       571  TIP3  H2            9.0709602665        0.5942995557        3.7309565107  CLST         571          1.0000000000
      1714       572  TIP3  OH2           5.1640299558        0.2675271350        2.3150960030  CLST         572          1.0000000000
      1715       572  TIP3  H1            4.8562927920       -0.6561956443        2.2422528861  CLST         572          1.0000000000
      1716       572  TIP3  H2            6.0383672882       -0.0350375211        2.5512204367  CLST         572          1.0000000000
      1717       573  TIP3  OH2          -1.9072475511       -6.5502142022       -6.4699951619  CLST         573          1.0000000000
      1718       573  TIP3  H1           -1.4038227438       -7.3643157365       -6.4339946430  CLST         573          1.0000000000
      1719       573  TIP3  H2           -2.3371711456       -6.8410352683       -7.2758004571  CLST         573          1.0000000000
      1720       574  TIP3  OH2          -9.7699844614        0.7781600445        9.5384709225  CLST         574          1.0000000000
      1721       574  TIP3  H1           -9.5812820039        1.6854468146        9.7701626528  CLST         574          1.0000000000
      1722       574  TIP3  H2           -9.1338939537        0.8063531672        8.8155933481  CLST         574          1.0000000000
      1723       575  TIP3  OH2          -3.9744572856       10.7408369807        0.8994197744  CLST         575          1.0000000000
      1724       575  TIP3  H1           -3.9154323722       11.3869720757        0.1799461167  CLST         575          1.0000000000
      1725       575  TIP3  H2           -4.8120294163       11.0366763678        1.2428835456  CLST         575          1.0000000000
      1726       576  TIP3  OH2          -3.4588882564       -2.5671474707        6.3402476572  CLST         576          1.0000000000
      1727       576  TIP3  H1           -3.7563582590       -1.7248079775        6.0384245322  CLST         576          1.0000000000
      1728       576  TIP3  H2           -2.9460860646       -2.6692307889        5.5386794468  CLST         576          1.0000000000
      1729       577  TIP3  OH2         -12.0064668107       11.2946888010        8.6474238743  CLST         577          1.0000000000
      1730       577  TIP3  H1          -11.7524503140       12.1312699462        8.9981094494  CLST         577          1.0000000000
      1731       577  TIP3  H2          -11.5489148912       11.3906797307        7.8354442042  CLST         577          1.0000000000
      1732       578  TIP3  OH2          -1.7608840309        0.9132380858        5.2888733335  CLST         578          1.0000000000
      1733       578  TIP3  H1           -2.5806058038        1.2703980677        4.9563244678  CLST         578          1.0000000000
      1734       578  TIP3  H2           -2.1284593946        0.6619914815        6.1341316035  CLST         578          1.0000000000
      1735       579  TIP3  OH2          -6.4733223091       11.5978264646        1.6390911725  CLST         579          1.0000000000
      1736       579  TIP3  H1           -6.7371556916       12.2942535972        1.0789138830  CLST         579          1.0000000000
      1737       579  TIP3  H2           -6.8721985256       10.9233495051        1.0128483806  CLST         579          1.0000000000
      1738       580  TIP3  OH2          11.2379377568        3.5171385734       -3.3511958257  CLST         580          1.0000000000
      1739       580  TIP3  H1           11.3316109192        2.6232708251       -3.1203895152  CLST         580          1.0000000000
      1740       580  TIP3  H2           11.4915687777        3.8012036010       -2.4456978470  CLST         580          1.0000000000
      1741       581  TIP3  OH2          12.8670046862      -11.6890968530        3.6897976635  CLST         581          1.0000000000
      1742       581  TIP3  H1           13.0351428890      -11.9465142921        2.8070833993  CLST         581          1.0000000000
      1743       581  TIP3  H2           13.7513349707      -11.8786028828        3.9572076809  CLST         581          1.0000000000
      1744       582  TIP3  OH2           6.2444351940       10.7219894135       -7.0817366598  CLST         582          1.0000000000
      1745       582  TIP3  H1            5.3812721642       10.4742909868       -6.8136121742  CLST         582          1.0000000000
      1746       582  TIP3  H2            6.4516893747       10.9759342567       -6.1760054156  CLST         582          1.0000000000
      1747       583  TIP3  OH2          -2.5208723544        4.3587991033      -10.9267161481  CLST         583          1.0000000000
      1748       583  TIP3  H1           -2.9998506728        3.6238477027      -11.2791586041  CLST         583          1.0000000000
      1749       583  TIP3  H2           -1.8173754571        3.8453204990      -11.3328042548  CLST         583          1.0000000000
      1750       584  TIP3  OH2           2.2573035205       -3.9632550309       -9.9752842807  CLST         584          1.0000000000
      1751       584  TIP3  H1            3.0501342148       -4.4422907419      -10.1665344458  CLST         584          1.0000000000
      1752       584  TIP3  H2            2.7143717048       -3.2017647017       -9.7038078885  CLST         584          1.0000000000
      1753       585  TIP3  OH2         -13.8744211737        0.9618016873       -2.0943032321  CLST         585          1.0000000000
      1754       585  TIP3  H1          -13.8490807080        1.7525587699       -2.6909235495  CLST         585          1.0000000000
      1755       585  TIP3  H2          -14.8418588808        0.8757131328       -2.1017231374  CLST         585          1.0000000000
      1756       586  TIP3  OH2          -7.4416016968        8.4250147850       10.5460778453  CLST         586          1.0000000000
      1757       586  TIP3  H1           -7.0738251855        8.7823330973        9.4113062765  CLST         586          1.0000000000
      1758       586  TIP3  H2           -7.1156299911        7.8055566409        9.8725462838  CLST         586          1.0000000000
      1759       587  TIP3  OH2           4.6454838846        4.5016019477       -9.8659327309  CLST         587          1.0000000000
      1760       587  TIP3  H1            3.8268038341        4.9546813128       -9.9725437079  CLST         587          1.0000000000
      1761       587  TIP3  H2            5.0235658792        5.0826078014      -10.5476363880  CLST         587          1.0000000000
      1762       588  TIP3  OH2           4.9335277630       -9.6900505024      -14.0907642826  CLST         588          1.0000000000
      1763       588  TIP3  H1            4.1709890228       -9.6902227070      -14.6182541686  CLST         588          1.0000000000
      1764       588  TIP3  H2            4.7668827228       -9.1901210557      -13.3192579828  CLST         588          1.0000000000
      1765       589  TIP3  OH2           0.5229657280      -14.2895559381        3.2196938113  CLST         589          1.0000000000
      1766       589  TIP3  H1           -0.3335898543      -15.0509011099        2.9763706138  CLST         589          1.0000000000
      1767       589  TIP3  H2           -0.4014180147      -14.4251131667        3.6582135649  CLST         589          1.0000000000
      1768       590  TIP3  OH2           2.4528802827        1.9013844788       -8.3264806888  CLST         590          1.0000000000
      1769       590  TIP3  H1            1.7231850626        2.4037762978       -8.0068102438  CLST         590          1.0000000000
      1770       590  TIP3  H2            2.2623791420        2.3020537904       -9.1871869534  CLST         590          1.0000000000
      1771       591  TIP3  OH2         -12.8685052238        0.9708002560       -6.7359759148  CLST         591          1.0000000000
      1772       591  TIP3  H1          -11.9288183008        0.9477276864       -6.4719069357  CLST         591          1.0000000000
      1773       591  TIP3  H2          -12.9154450338        1.8968337374       -6.4528200017  CLST         591          1.0000000000
      1774       592  TIP3  OH2          -4.2709222122       -3.6923008539       -6.2482069652  CLST         592          1.0000000000
      1775       592  TIP3  H1           -3.4544939108       -3.9089052171       -6.6259719265  CLST         592          1.0000000000
      1776       592  TIP3  H2           -4.7463267849       -4.1867033827       -6.9220986593  CLST         592          1.0000000000
      1777       593  TIP3  OH2          -1.6815963641        5.3208750877       -4.5800963483  CLST         593          1.0000000000
      1778       593  TIP3  H1           -1.4519508523        6.1617127221       -4.1518515517  CLST         593          1.0000000000
      1779       593  TIP3  H2           -0.9601999883        5.4027954054       -5.2125887250  CLST         593          1.0000000000
      1780       594  TIP3  OH2          11.1635175035       10.5998469191       13.4652941135  CLST         594          1.0000000000
      1781       594  TIP3  H1           10.9718972184       10.0903471294       14.5370502199  CLST         594          1.0000000000
      1782       594  TIP3  H2           10.3217172542       10.3901553721       13.7594801951  CLST         594          1.0000000000
      1783       595  TIP3  OH2          -9.2855219212       13.6998185892        4.4148408591  CLST         595          1.0000000000
      1784       595  TIP3  H1           -9.7565176347       14.3949862925        3.9072792019  CLST         595          1.0000000000
      1785       595  TIP3  H2           -9.2603065851       13.2311065264        3.5982348872  CLST         595          1.0000000000
      1786       596  TIP3  OH2         -14.1329006510       -0.6808226967        8.8487549939  CLST         596          1.0000000000
      1787       596  TIP3  H1          -14.1326518092       -1.5974917435        8.9916243871  CLST         596          1.0000000000
      1788       596  TIP3  H2          -13.4635161575       -0.6833156925        8.1233924524  CLST         596          1.0000000000
      1789       597  TIP3  OH2          -2.9846268778       -5.4295808245       -4.3049254519  CLST         597          1.0000000000
      1790       597  TIP3  H1           -2.6654142852       -6.0380305570       -4.9842436524  CLST         597          1.0000000000
      1791       597  TIP3  H2           -3.0329278126       -4.7189084768       -4.9167422683  CLST         597          1.0000000000
      1792       598  TIP3  OH2          -8.1217222660       -9.5547875249       -9.1779141340  CLST         598          1.0000000000
      1793       598  TIP3  H1           -9.0214639679       -9.9452874013       -9.1655174764  CLST         598          1.0000000000
      1794       598  TIP3  H2           -8.3410786565       -9.0816804945       -9.9671277646  CLST         598          1.0000000000
      1795       599  TIP3  OH2          12.1582530213        0.1040413927      -12.7998252121  CLST         599          1.0000000000
      1796       599  TIP3  H1           12.4810845869        0.8725518374      -13.2349988233  CLST         599          1.0000000000
      1797       599  TIP3  H2           12.1211689075       -0.3641552243      -13.6294000787  CLST         599          1.0000000000
      1798       600  TIP3  OH2          14.2329221358       -9.3323391901        1.5417089164  CLST         600          1.0000000000
      1799       600  TIP3  H1           14.9653122940       -9.9868123878        1.5518072598  CLST         600          1.0000000000
      1800       600  TIP3  H2           13.7225253061      -10.0885279705        1.2629425877  CLST         600          1.0000000000
      1801       601  TIP3  OH2          -2.3678048182       13.2667032896       -8.0983742865  CLST         601          1.0000000000
      1802       601  TIP3  H1           -1.7640577034       13.1392389721       -7.4049741376  CLST         601          1.0000000000
      1803       601  TIP3  H2           -1.6640680391       13.5385273298       -8.6648220783  CLST         601          1.0000000000
      1804       602  TIP3  OH2          13.7654562029       -3.1825951355        8.7499972634  CLST         602          1.0000000000
      1805       602  TIP3  H1           12.9947281134       -2.8554357923        8.2681217483  CLST         602          1.0000000000
      1806       602  TIP3  H2           14.0143629965       -3.6222620093        7.9392060074  CLST         602          1.0000000000
      1807       603  TIP3  OH2          -8.1988531355       -9.5543712575      -12.2254666369  CLST         603          1.0000000000
      1808       603  TIP3  H1           -8.9703221812       -8.9955450968      -12.0673035854  CLST         603          1.0000000000
      1809       603  TIP3  H2           -8.6222276448      -10.3721665244      -11.9548243602  CLST         603          1.0000000000
      1810       604  TIP3  OH2           0.1137330383       -7.9403072658       12.2122197791  CLST         604          1.0000000000
      1811       604  TIP3  H1            0.3916585480       -7.0702097859       11.9049300333  CLST         604          1.0000000000
      1812       604  TIP3  H2            0.8644607637       -8.0518182759       12.7879088865  CLST         604          1.0000000000
      1813       605  TIP3  OH2           9.8742151524        8.2183602760        3.7168226524  CLST         605          1.0000000000
      1814       605  TIP3  H1            9.1705846901        8.7961880526        3.4587350541  CLST         605          1.0000000000
      1815       605  TIP3  H2           10.4548749643        8.9228663408        3.8532015836  CLST         605          1.0000000000
      1816       606  TIP3  OH2           1.0054343803        8.7009831252       -6.2964950330  CLST         606          1.0000000000
      1817       606  TIP3  H1            1.4471821140        9.4712687457       -5.8248532297  CLST         606          1.0000000000
      1818       606  TIP3  H2            0.1502690680        9.1461526777       -6.1086572393  CLST         606          1.0000000000
      1819       607  TIP3  OH2          -4.8893984853        1.3971285191      -14.1568396639  CLST         607          1.0000000000
      1820       607  TIP3  H1           -5.7800714400        1.3667374027      -14.0533607139  CLST         607          1.0000000000
      1821       607  TIP3  H2           -5.6529059475        0.9645976642      -14.9823498753  CLST         607          1.0000000000
      1822       608  TIP3  OH2          -2.4570307302       -0.4147176183      -11.4991018794  CLST         608          1.0000000000
      1823       608  TIP3  H1           -1.5992219864       -0.1187799953      -11.2663126088  CLST         608          1.0000000000
      1824       608  TIP3  H2           -2.3517856710       -0.2069174934      -12.4361177711  CLST         608          1.0000000000
      1825       609  TIP3  OH2           3.7378522962        8.0340423384        2.8806184225  CLST         609          1.0000000000
      1826       609  TIP3  H1            4.0957499921        8.3928725955        3.6782373695  CLST         609          1.0000000000
      1827       609  TIP3  H2            4.3143458698        7.2479336280        3.0270447755  CLST         609          1.0000000000
      1828       610  TIP3  OH2          -7.9053510783       -9.0169847454       11.6563045533  CLST         610          1.0000000000
      1829       610  TIP3  H1           -7.3905705248       -9.7650031771       11.0459031039  CLST         610          1.0000000000
      1830       610  TIP3  H2           -6.8056138496       -8.9009576528       11.5184129039  CLST         610          1.0000000000
      1831       611  TIP3  OH2          13.9502787366       -4.2335700657        6.2843238767  CLST         611          1.0000000000
      1832       611  TIP3  H1           14.5465751109       -4.8659554132        5.8219796572  CLST         611          1.0000000000
      1833       611  TIP3  H2           13.9552974735       -3.7002719396        5.4965851115  CLST         611          1.0000000000
      1834       612  TIP3  OH2          -9.0371791723      -10.6806307736        6.0752325880  CLST         612          1.0000000000
      1835       612  TIP3  H1           -8.2741166031      -10.1839121422        5.6691136506  CLST         612          1.0000000000
      1836       612  TIP3  H2           -9.6702826987      -10.0786650089        5.7823438821  CLST         612          1.0000000000
      1837       613  TIP3  OH2           2.6553058964       -2.2249265779       14.4186687823  CLST         613          1.0000000000
      1838       613  TIP3  H1            2.4248667268       -3.1515186187       14.3248125018  CLST         613          1.0000000000
      1839       613  TIP3  H2            1.7827658670       -1.9249490467       14.0199348589  CLST         613          1.0000000000
      1840       614  TIP3  OH2           1.1416805932        4.6127149277       -9.0593841442  CLST         614          1.0000000000
      1841       614  TIP3  H1            1.4696483153        4.5344008421       -8.1786955800  CLST         614          1.0000000000
      1842       614  TIP3  H2            1.0628024663        5.5730460176       -8.8483548783  CLST         614          1.0000000000
      1843       615  TIP3  OH2           1.2348136119        4.4492317205        7.1739118281  CLST         615          1.0000000000
      1844       615  TIP3  H1            1.8802861147        4.7454600232        7.8457331202  CLST         615          1.0000000000
      1845       615  TIP3  H2            1.7434056828        4.6967674726        6.4217064832  CLST         615          1.0000000000
      1846       616  TIP3  OH2          -7.6641775052        4.3024590681       -7.2410881472  CLST         616          1.0000000000
      1847       616  TIP3  H1           -8.2910316141        4.4776761363       -7.9874098037  CLST         616          1.0000000000
      1848       616  TIP3  H2           -7.0871986147        4.8730867082       -7.7252500631  CLST         616          1.0000000000
      1849       617  TIP3  OH2          14.8036087652        2.1418520008       11.9879225680  CLST         617          1.0000000000
      1850       617  TIP3  H1           14.5289328922        1.1839071730       12.1841639655  CLST         617          1.0000000000
      1851       617  TIP3  H2           14.1210761162        2.5206630608       12.5365475441  CLST         617          1.0000000000
      1852       618  TIP3  OH2          -7.0971210950        3.2508541172        2.7129890480  CLST         618          1.0000000000
      1853       618  TIP3  H1           -6.6396397320        3.8608017043        2.1729996981  CLST         618          1.0000000000
      1854       618  TIP3  H2           -6.7160484260        3.3620736296        3.5635625376  CLST         618          1.0000000000
      1855       619  TIP3  OH2           1.4452488679        5.3840441640       -2.3206729036  CLST         619          1.0000000000
      1856       619  TIP3  H1            0.6969547533        4.7801320472       -2.3481851291  CLST         619          1.0000000000
      1857       619  TIP3  H2            0.8321302504        6.1075316673       -2.4274249832  CLST         619          1.0000000000
      1858       620  TIP3  OH2          -3.4193561510        8.5910205301       -5.8303504615  CLST         620          1.0000000000
      1859       620  TIP3  H1           -3.5073952639        7.9294872447       -5.1408422628  CLST         620          1.0000000000
      1860       620  TIP3  H2           -3.5911897405        7.9800586315       -6.5880572152  CLST         620          1.0000000000
      1861       621  TIP3  OH2           0.9163807425        7.4298769739       -8.6579127018  CLST         621          1.0000000000
      1862       621  TIP3  H1            1.2828696613        8.0056732349       -7.9518157708  CLST         621          1.0000000000
      1863       621  TIP3  H2            0.8672410801        8.1372659388       -9.3325414829  CLST         621          1.0000000000
      1864       622  TIP3  OH2           1.8622590974       10.5037190901        3.9620911293  CLST         622          1.0000000000
      1865       622  TIP3  H1            2.4883294579       10.6983602455        4.5667186542  CLST         622          1.0000000000
      1866       622  TIP3  H2            1.3210806198       10.0024864802        4.5784723078  CLST         622          1.0000000000
      1867       623  TIP3  OH2          -0.1287219274       12.3081906841        2.6369231319  CLST         623          1.0000000000
      1868       623  TIP3  H1            0.5785998239       12.3702879633        1.9884054587  CLST         623          1.0000000000
      1869       623  TIP3  H2            0.4504341417       11.7839233169        3.1712311398  CLST         623          1.0000000000
      1870       624  TIP3  OH2          -8.9727907715       -1.7513115657       -3.9164035493  CLST         624          1.0000000000
      1871       624  TIP3  H1           -8.6591310122       -1.0761617615       -4.5744338266  CLST         624          1.0000000000
      1872       624  TIP3  H2           -9.7931221110       -1.2026569401       -3.9910393521  CLST         624          1.0000000000
      1873       625  TIP3  OH2          -9.6836664219      -13.1778737708       -9.1301838758  CLST         625          1.0000000000
      1874       625  TIP3  H1           -9.8074556943      -12.4513976503       -8.5420830244  CLST         625          1.0000000000
      1875       625  TIP3  H2           -9.1840405525      -13.6882315689       -8.5196531969  CLST         625          1.0000000000
      1876       626  TIP3  OH2          13.3151567842       -5.5992184605       -2.7299924675  CLST         626          1.0000000000
      1877       626  TIP3  H1           13.0163420533       -6.3694017810       -3.2539718984  CLST         626          1.0000000000
      1878       626  TIP3  H2           13.6763158069       -5.2086617185       -3.5094617611  CLST         626          1.0000000000
      1879       627  TIP3  OH2          -1.0220818962      -11.2030771362        7.8896920074  CLST         627          1.0000000000
      1880       627  TIP3  H1           -0.1519817567      -11.2103252731        8.2373900765  CLST         627          1.0000000000
      1881       627  TIP3  H2           -1.0015777407      -12.1948691399        7.8689295170  CLST         627          1.0000000000
      1882       628  TIP3  OH2           7.0658309407        8.7546760075       -8.9166982113  CLST         628          1.0000000000
      1883       628  TIP3  H1            6.9154917584        9.6220002181       -9.3122435721  CLST         628          1.0000000000
      1884       628  TIP3  H2            6.8777704198        9.1995468948       -8.0876924196  CLST         628          1.0000000000
      1885       629  TIP3  OH2          -9.7973702000       -0.3252351682       -9.8989104188  CLST         629          1.0000000000
      1886       629  TIP3  H1           -8.9459748307        0.0101899404      -10.1052310562  CLST         629          1.0000000000
      1887       629  TIP3  H2           -9.4685813644       -1.1553159473      -10.2028667631  CLST         629          1.0000000000
      1888       630  TIP3  OH2          11.7644522093       12.2562490695       11.6194629955  CLST         630          1.0000000000
      1889       630  TIP3  H1           11.0446840100       12.8657069306       11.4893348980  CLST         630          1.0000000000
      1890       630  TIP3  H2           11.2085782382       11.7402492637       12.1214459929  CLST         630          1.0000000000
      1891       631  TIP3  OH2         -12.1797153875      -11.3777357565      -11.6399514389  CLST         631          1.0000000000
      1892       631  TIP3  H1          -12.3696771319      -11.2363681335      -12.5793257114  CLST         631          1.0000000000
      1893       631  TIP3  H2          -12.4823115398      -12.2477869965      -11.6504634173  CLST         631          1.0000000000
      1894       632  TIP3  OH2          11.0448961698        2.0425897335        9.3390147566  CLST         632          1.0000000000
      1895       632  TIP3  H1           11.9241399160        1.8173844751        9.6250037769  CLST         632          1.0000000000
      1896       632  TIP3  H2           11.1661742139        1.4655720725        8.5500772313  CLST         632          1.0000000000
      1897       633  TIP3  OH2          -4.5328834792        6.4110692337       10.4545394057  CLST         633          1.0000000000
      1898       633  TIP3  H1           -4.1762441220        5.5037082995       10.5188967296  CLST         633          1.0000000000
      1899       633  TIP3  H2           -5.4463600422        6.0944054254       10.3169240571  CLST         633          1.0000000000
      1900       634  TIP3  OH2          -2.4798796469       -7.1064626329        6.7515320406  CLST         634          1.0000000000
      1901       634  TIP3  H1           -2.6024031884       -7.9723578063        7.1936578379  CLST         634          1.0000000000
      1902       634  TIP3  H2           -1.9348424700       -6.6907823854        7.4516590127  CLST         634          1.0000000000
      1903       635  TIP3  OH2           2.7227510876        2.8019586570       -2.3378969643  CLST         635          1.0000000000
      1904       635  TIP3  H1            2.4027506214        3.6671422447       -2.4745936890  CLST         635          1.0000000000
      1905       635  TIP3  H2            2.3060089732        2.5420820948       -3.1971739433  CLST         635          1.0000000000
      1906       636  TIP3  OH2           4.9933392171       -2.5142895542      -10.1531756711  CLST         636          1.0000000000
      1907       636  TIP3  H1            4.5375626041       -2.1226767890      -10.8758112650  CLST         636          1.0000000000
      1908       636  TIP3  H2            5.1245292458       -1.5944448036       -9.8005155489  CLST         636          1.0000000000
      1909       637  TIP3  OH2           3.5889105186       11.1861369801      -10.6168087496  CLST         637          1.0000000000
      1910       637  TIP3  H1            4.2836122838       11.4588781685       -9.9914119496  CLST         637          1.0000000000
      1911       637  TIP3  H2            3.2238473725       10.8351095182       -9.7468038990  CLST         637          1.0000000000
      1912       638  TIP3  OH2           8.8951833963      -12.1866511403       -7.1456007846  CLST         638          1.0000000000
      1913       638  TIP3  H1            8.2647531911      -12.6829378827       -7.7051063284  CLST         638          1.0000000000
      1914       638  TIP3  H2            9.3880698236      -11.9137950605       -7.9239477568  CLST         638          1.0000000000
      1915       639  TIP3  OH2           7.4793424618      -13.5081163586       -9.1493321367  CLST         639          1.0000000000
      1916       639  TIP3  H1            6.5396005163      -13.6208306496       -9.3510193746  CLST         639          1.0000000000
      1917       639  TIP3  H2            7.6847947935      -14.4331952274       -9.3512551643  CLST         639          1.0000000000
      1918       640  TIP3  OH2          -9.9146223170       -3.2418515742      -10.0914318876  CLST         640          1.0000000000
      1919       640  TIP3  H1           -9.0496752556       -3.2708011588       -9.5892551249  CLST         640          1.0000000000
      1920       640  TIP3  H2          -10.2994488698       -2.9882124531       -9.2437514913  CLST         640          1.0000000000
      1921       641  TIP3  OH2         -13.8751387934       -2.7022678807      -13.2811389864  CLST         641          1.0000000000
      1922       641  TIP3  H1          -13.6790081594       -3.6385160104      -13.3168935556  CLST         641          1.0000000000
      1923       641  TIP3  H2          -12.7269192049       -2.9647562005      -13.1302033095  CLST         641          1.0000000000
      1924       642  TIP3  OH2          -2.0235040226        1.8247439208       11.0475645972  CLST         642          1.0000000000
      1925       642  TIP3  H1           -1.3060561543        1.5114639251       11.6000472081  CLST         642          1.0000000000
      1926       642  TIP3  H2           -2.5904596102        1.7964513212       11.8012589733  CLST         642          1.0000000000
      1927       643  TIP3  OH2         -13.9150392895       -2.9181626924        3.6418717143  CLST         643          1.0000000000
      1928       643  TIP3  H1          -13.3420185599       -2.2848753580        3.9853504301  CLST         643          1.0000000000
      1929       643  TIP3  H2          -14.6567538050       -2.5076410093        4.0701917071  CLST         643          1.0000000000
      1930       644  TIP3  OH2          12.8035837580       -2.8305244047        1.1008226385  CLST         644          1.0000000000
      1931       644  TIP3  H1           13.5884794453       -2.3778618795        1.3404357185  CLST         644          1.0000000000
      1932       644  TIP3  H2           13.1738342816       -3.3526374524        0.3472957959  CLST         644          1.0000000000
      1933       645  TIP3  OH2          -6.7235102973        6.2741021965        9.0489433467  CLST         645          1.0000000000
      1934       645  TIP3  H1           -7.0954230000        6.2745303935        8.1346936657  CLST         645          1.0000000000
      1935       645  TIP3  H2           -6.6585603861        5.2904081444        8.9139466069  CLST         645          1.0000000000
      1936       646  TIP3  OH2           7.1342389204      -11.3904629049       11.9816189039  CLST         646          1.0000000000
      1937       646  TIP3  H1            6.4226690071      -11.7026653297       11.4575136104  CLST         646          1.0000000000
      1938       646  TIP3  H2            7.6720622183      -12.1786284184       11.9081529444  CLST         646          1.0000000000
      1939       647  TIP3  OH2         -13.0803809803       -9.2215954944       -7.5455853437  CLST         647          1.0000000000
      1940       647  TIP3  H1          -13.6619082558       -9.2805041969       -6.7801276386  CLST         647          1.0000000000
      1941       647  TIP3  H2          -12.3385386451       -9.3752165581       -6.9733523923  CLST         647          1.0000000000
      1942       648  TIP3  OH2         -13.8923121926        3.4090415652       -6.2604311842  CLST         648          1.0000000000
      1943       648  TIP3  H1          -14.8343449418        3.4923000276       -6.0005465426  CLST         648          1.0000000000
      1944       648  TIP3  H2          -13.6857495345        3.4890000920       -5.2620339728  CLST         648          1.0000000000
      1945       649  TIP3  OH2          -1.6224143482       -3.4510899963       -7.3234419685  CLST         649          1.0000000000
      1946       649  TIP3  H1           -0.8158845699       -2.9836052813       -7.1287646421  CLST         649          1.0000000000
      1947       649  TIP3  H2           -1.0664385294       -4.0698282486       -7.8151039172  CLST         649          1.0000000000
      1948       650  TIP3  OH2          -4.3455694509       -3.4009010907      -11.9220301585  CLST         650          1.0000000000
      1949       650  TIP3  H1           -3.4035815098       -3.1900655163      -12.0612182931  CLST         650          1.0000000000
      1950       650  TIP3  H2           -4.3792673791       -2.5946906483      -11.4348964897  CLST         650          1.0000000000
      1951       651  TIP3  OH2           1.0370002425       -4.2424390736       14.2111069310  CLST         651          1.0000000000
      1952       651  TIP3  H1            0.2332976958       -4.7980549086       13.9819054547  CLST         651          1.0000000000
      1953       651  TIP3  H2            0.6703814456       -4.0877111891       15.0746331723  CLST         651          1.0000000000
      1954       652  TIP3  OH2           2.2536070059       -9.0736834965       10.0053997511  CLST         652          1.0000000000
      1955       652  TIP3  H1            2.2158944770       -8.5461828006       10.8265467014  CLST         652          1.0000000000
      1956       652  TIP3  H2            2.0851688437       -8.1998831620        9.5881550793  CLST         652          1.0000000000
      1957       653  TIP3  OH2          13.4451113024        0.9225507913       -2.4735485565  CLST         653          1.0000000000
      1958       653  TIP3  H1           12.6429014715        0.7223660130       -2.5995794630  CLST         653          1.0000000000
      1959       653  TIP3  H2           13.0936690030        1.1493980351       -3.5673536438  CLST         653          1.0000000000
      1960       654  TIP3  OH2          -5.8007714777        9.0334389059       13.0593644905  CLST         654          1.0000000000
      1961       654  TIP3  H1           -4.9107104446        9.2664849206       13.3327227575  CLST         654          1.0000000000
      1962       654  TIP3  H2           -5.6806489233        8.3835769809       12.3862699960  CLST         654          1.0000000000
      1963       655  TIP3  OH2          -4.1069791219        1.3602678540       12.6516767730  CLST         655          1.0000000000
      1964       655  TIP3  H1           -4.4106421912        0.5734241197       12.1290347746  CLST         655          1.0000000000
      1965       655  TIP3  H2           -4.9754172486        1.2524396003       13.0790612501  CLST         655          1.0000000000
      1966       656  TIP3  OH2         -14.1014381611       -4.3337390510      -10.7114824536  CLST         656          1.0000000000
      1967       656  TIP3  H1          -14.8144411011       -3.7663004977      -10.8989394824  CLST         656          1.0000000000
      1968       656  TIP3  H2          -14.1732449485       -4.8605954147      -11.5041444283  CLST         656          1.0000000000
      1969       657  TIP3  OH2           4.5153648133       -0.9292176155        5.3438793875  CLST         657          1.0000000000
      1970       657  TIP3  H1            5.2743598237       -0.5814303053        5.8410166139  CLST         657          1.0000000000
      1971       657  TIP3  H2            3.8503306788       -0.4584750899        5.8528493603  CLST         657          1.0000000000
      1972       658  TIP3  OH2         -14.0518986282       -7.2325664601       -4.7250592993  CLST         658          1.0000000000
      1973       658  TIP3  H1          -13.9807811751       -6.3908424201       -5.2217393406  CLST         658          1.0000000000
      1974       658  TIP3  H2          -15.0485763287       -7.1708566014       -4.9028645835  CLST         658          1.0000000000
      1975       659  TIP3  OH2           9.3233300923      -13.1968003689        9.8254572387  CLST         659          1.0000000000
      1976       659  TIP3  H1            8.9625888755      -12.6852755943        9.1018004201  CLST         659          1.0000000000
      1977       659  TIP3  H2            8.4575025224      -13.6422149702        9.9351966148  CLST         659          1.0000000000
      1978       660  TIP3  OH2         -14.6927421114       -8.9312184937        6.5888106580  CLST         660          1.0000000000
      1979       660  TIP3  H1          -15.0828567514       -9.7239351211        7.0159357655  CLST         660          1.0000000000
      1980       660  TIP3  H2          -14.0576895472       -8.7917953904        7.3132043974  CLST         660          1.0000000000
      1981       661  TIP3  OH2           2.9140628786        1.2847194231       -4.6967157636  CLST         661          1.0000000000
      1982       661  TIP3  H1            2.3769695882        2.0127477423       -4.9573010401  CLST         661          1.0000000000
      1983       661  TIP3  H2            2.2975137222        0.5581293402       -4.7837000607  CLST         661          1.0000000000
      1984       662  TIP3  OH2          -8.6798307699       -5.0841468416        1.1840216035  CLST         662          1.0000000000
      1985       662  TIP3  H1           -9.2869535442       -5.5818042772        0.5490797082  CLST         662          1.0000000000
      1986       662  TIP3  H2           -9.1230735375       -4.2159341223        0.9946524785  CLST         662          1.0000000000
      1987       663  TIP3  OH2           6.1116873315       -1.8877349390        3.4381831155  CLST         663          1.0000000000
      1988       663  TIP3  H1            5.5838993231       -1.6479399271        4.1735115080  CLST         663          1.0000000000
      1989       663  TIP3  H2            5.9073133990       -2.8222813138        3.5357920019  CLST         663          1.0000000000
      1990       664  TIP3  OH2          10.2892116605      -14.4021378103        2.5134433969  CLST         664          1.0000000000
      1991       664  TIP3  H1           10.1581805781      -13.7413759767        3.2531079199  CLST         664          1.0000000000
      1992       664  TIP3  H2           10.0895705807      -15.0828567514        3.0969107760  CLST         664          1.0000000000
      1993       665  TIP3  OH2           9.7097524897       10.3623035629      -14.1612404558  CLST         665          1.0000000000
      1994       665  TIP3  H1            8.9721635054        9.5907733469      -14.6082063694  CLST         665          1.0000000000
      1995       665  TIP3  H2            8.9917639166       10.7647885564      -14.7146361078  CLST         665          1.0000000000
      1996       666  TIP3  OH2         -11.4273911582       -7.4884714727       -8.9776149759  CLST         666          1.0000000000
      1997       666  TIP3  H1          -11.4496520664       -6.8258245295       -8.2824328640  CLST         666          1.0000000000
      1998       666  TIP3  H2          -12.1907615881       -7.9278836835       -8.5924399544  CLST         666          1.0000000000
      1999       667  TIP3  OH2         -10.9940941826        5.5140278897        7.7837481772  CLST         667          1.0000000000
      2000       667  TIP3  H1          -11.2125272511        4.9251523020        8.4876041962  CLST         667          1.0000000000
      2001       667  TIP3  H2          -10.6303646502        6.1671030096        8.3685926146  CLST         667          1.0000000000
      2002       668  TIP3  OH2         -12.7395939893       -0.0601374323        0.1114539240  CLST         668          1.0000000000
      2003       668  TIP3  H1          -12.9663556077        0.4994512315        0.8161612734  CLST         668          1.0000000000
      2004       668  TIP3  H2          -13.1279013367        0.5119789054       -0.5081227793  CLST         668          1.0000000000
      2005       669  TIP3  OH2          -3.6769964878      -11.5672166526        4.9766361153  CLST         669          1.0000000000
      2006       669  TIP3  H1           -3.9192971179      -12.0715080177        4.1933863143  CLST         669          1.0000000000
      2007       669  TIP3  H2           -3.6127136090      -10.6934660841        4.6701469093  CLST         669          1.0000000000
      2008       670  TIP3  OH2          -6.2787342210       -2.2707122986        1.2578365552  CLST         670          1.0000000000
      2009       670  TIP3  H1           -7.0270541405       -1.7123772286        1.4336532581  CLST         670          1.0000000000
      2010       670  TIP3  H2           -6.0681207981       -1.8305071259        0.4401580582  CLST         670          1.0000000000
      2011       671  TIP3  OH2           3.9351622693       -9.3764851839      -10.9549677387  CLST         671          1.0000000000
      2012       671  TIP3  H1            3.5456357932       -9.1452500651      -10.0395362595  CLST         671          1.0000000000
      2013       671  TIP3  H2            4.8782449727       -9.1958426493      -10.8388125935  CLST         671          1.0000000000
      2014       672  TIP3  OH2          12.0592017370      -12.6099307210        9.0833381983  CLST         672          1.0000000000
      2015       672  TIP3  H1           11.2200800949      -12.7500663482        9.5094191257  CLST         672          1.0000000000
      2016       672  TIP3  H2           12.5917237371      -13.0633173131        9.7687171857  CLST         672          1.0000000000
      2017       673  TIP3  OH2           6.9271471171       -4.4679209118        6.7278593292  CLST         673          1.0000000000
      2018       673  TIP3  H1            7.4188828025       -3.6274190860        6.5961077752  CLST         673          1.0000000000
      2019       673  TIP3  H2            7.7226704889       -4.8711650566        7.0614308139  CLST         673          1.0000000000
      2020       674  TIP3  OH2          -4.2034983949       -0.8395923010        2.9293496036  CLST         674          1.0000000000
      2021       674  TIP3  H1           -3.3499067131       -1.5224033082        3.3124705393  CLST         674          1.0000000000
      2022       674  TIP3  H2           -4.1155497640       -1.5876847573        2.6516293039  CLST         674          1.0000000000
      2023       675  TIP3  OH2          -9.4398683534        2.3900984408       -3.4321739628  CLST         675          1.0000000000
      2024       675  TIP3  H1           -8.7437077233        1.7064208935       -3.2737331731  CLST         675          1.0000000000
      2025       675  TIP3  H2           -9.7075197989        2.0820599571       -2.4969987857  CLST         675          1.0000000000
      2026       676  TIP3  OH2         -13.6377494283        0.0056124000      -13.7141071104  CLST         676          1.0000000000
      2027       676  TIP3  H1          -13.7661150534       -0.7715936473      -13.5366910934  CLST         676          1.0000000000
      2028       676  TIP3  H2          -13.1181321176       -0.4159077466      -12.7677140751  CLST         676          1.0000000000
      2029       677  TIP3  OH2           1.6859250277      -12.0088079818        2.2670911634  CLST         677          1.0000000000
      2030       677  TIP3  H1            1.8646601032      -12.0675216148        1.3341257937  CLST         677          1.0000000000
      2031       677  TIP3  H2            1.3553332336      -12.9361906567        2.4284529805  CLST         677          1.0000000000
      2032       678  TIP3  OH2          11.4135910061       -7.0725430936       -8.3303520920  CLST         678          1.0000000000
      2033       678  TIP3  H1           12.3070107891       -7.3750201440       -8.4944181900  CLST         678          1.0000000000
      2034       678  TIP3  H2           11.6439949085       -6.3026659391       -8.8841107266  CLST         678          1.0000000000
      2035       679  TIP3  OH2           7.4800432067       -9.9153932027      -14.2068936528  CLST         679          1.0000000000
      2036       679  TIP3  H1            7.2299612623       -9.1246938264      -14.6903560436  CLST         679          1.0000000000
      2037       679  TIP3  H2            6.5627623519      -10.2128441716      -14.2492597747  CLST         679          1.0000000000
      2038       680  TIP3  OH2           9.8976630675       -8.2475170404       -1.6521750859  CLST         680          1.0000000000
      2039       680  TIP3  H1            9.9845926213       -9.2781917033       -1.6407898535  CLST         680          1.0000000000
      2040       680  TIP3  H2            9.4191706664       -8.2895261529       -2.4796608727  CLST         680          1.0000000000
      2041       681  TIP3  OH2           7.4410699094        9.2915846766       11.1703858820  CLST         681          1.0000000000
      2042       681  TIP3  H1            7.4194380259        8.3488395793       10.9797876482  CLST         681          1.0000000000
      2043       681  TIP3  H2            8.4028315414        9.3146149020       10.9988083421  CLST         681          1.0000000000
      2044       682  TIP3  OH2           8.1099505142       14.1262067124        1.7896356806  CLST         682          1.0000000000
      2045       682  TIP3  H1            7.2822428211       13.9087336004        1.3698498683  CLST         682          1.0000000000
      2046       682  TIP3  H2            7.6094776579       14.7904935308        2.1863587620  CLST         682          1.0000000000
      2047       683  TIP3  OH2           3.3933094803       11.6138070088      -15.0828567514  CLST         683          1.0000000000
      2048       683  TIP3  H1            3.0459354899       11.9973196808      -14.3110483357  CLST         683          1.0000000000
      2049       683  TIP3  H2            3.3482890586       10.7052293755      -14.7548302068  CLST         683          1.0000000000
      2050       684  TIP3  OH2          12.6478757262        2.8450252421      -12.4576290886  CLST         684          1.0000000000
      2051       684  TIP3  H1           12.0790014060        2.4710166236      -11.8257755410  CLST         684          1.0000000000
      2052       684  TIP3  H2           13.2293995665        3.0430111947      -11.6979282773  CLST         684          1.0000000000
      2053       685  TIP3  OH2           3.8829640349       13.3682179888        2.1955886683  CLST         685          1.0000000000
      2054       685  TIP3  H1            3.9953247344       12.4037783630        2.2584018434  CLST         685          1.0000000000
      2055       685  TIP3  H2            3.0434983913       13.0940158997        1.7839840445  CLST         685          1.0000000000
      2056       686  TIP3  OH2          -1.8690865700      -11.8083937826       -5.5390321531  CLST         686          1.0000000000
      2057       686  TIP3  H1           -1.7729456741      -12.2913716369       -4.5990929322  CLST         686          1.0000000000
      2058       686  TIP3  H2           -2.4910334683      -12.4978725581       -5.7840592097  CLST         686          1.0000000000
      2059       687  TIP3  OH2           2.1803090065       11.0629732955       -5.5089822974  CLST         687          1.0000000000
      2060       687  TIP3  H1            2.2217998120       10.7342195697       -4.6066018668  CLST         687          1.0000000000
      2061       687  TIP3  H2            2.8836852717       11.6939541953       -5.3528534715  CLST         687          1.0000000000
      2062       688  TIP3  OH2          -4.7346818065       -1.0923344077      -10.3417310344  CLST         688          1.0000000000
      2063       688  TIP3  H1           -4.4901010993       -0.8693767566       -9.4115570749  CLST         688          1.0000000000
      2064       688  TIP3  H2           -3.9711193684       -0.6523858160      -10.6923695689  CLST         688          1.0000000000
      2065       689  TIP3  OH2         -11.6559048995       -2.5181009429       -7.5277006708  CLST         689          1.0000000000
      2066       689  TIP3  H1          -12.2590080514       -2.3407009108       -6.7601509237  CLST         689          1.0000000000
      2067       689  TIP3  H2          -12.2323925769       -2.0804520102       -8.1854516777  CLST         689          1.0000000000
      2068       690  TIP3  OH2           9.1748641844      -12.5608008050        3.9903558801  CLST         690          1.0000000000
      2069       690  TIP3  H1            9.5497872217      -12.3394538466        4.8657572332  CLST         690          1.0000000000
      2070       690  TIP3  H2            9.6563200161      -11.7657760441        3.6302665655  CLST         690          1.0000000000
      2071       691  TIP3  OH2          -0.7499115180       10.1085239915       13.6223516755  CLST         691          1.0000000000
      2072       691  TIP3  H1           -0.4335319875       11.0288204259       13.4372103859  CLST         691          1.0000000000
      2073       691  TIP3  H2           -0.1388775774       10.1364727035       14.3682763092  CLST         691          1.0000000000
      2074       692  TIP3  OH2           1.5249684734       -6.7067898824        8.7777734667  CLST         692          1.0000000000
      2075       692  TIP3  H1            0.5654358334       -6.6788655635        8.8527281862  CLST         692          1.0000000000
      2076       692  TIP3  H2            1.4458250298       -5.6991333801        8.9784977589  CLST         692          1.0000000000
      2077       693  TIP3  OH2          -9.3841831111       -4.2235322323       -2.9481828772  CLST         693          1.0000000000
      2078       693  TIP3  H1           -8.5251559373       -4.1450850402       -2.3803796070  CLST         693          1.0000000000
      2079       693  TIP3  H2           -9.0594073463       -3.5030533316       -3.4886549276  CLST         693          1.0000000000
      2080       694  TIP3  OH2          -1.6302696595       11.5924378986        5.6620173656  CLST         694          1.0000000000
      2081       694  TIP3  H1           -2.3080540031       12.1669458336        5.3083643181  CLST         694          1.0000000000
      2082       694  TIP3  H2           -0.9920861538       12.2734970989        5.7304277003  CLST         694          1.0000000000
      2083       695  TIP3  OH2           1.7412739639       10.5633975276        7.8055002603  CLST         695          1.0000000000
      2084       695  TIP3  H1            1.3834811581       10.2509560572        7.0022638687  CLST         695          1.0000000000
      2085       695  TIP3  H2            0.9896560769       10.2847269408        8.3093680905  CLST         695          1.0000000000
      2086       696  TIP3  OH2          -4.2332804340        3.0815924056       -6.0882894514  CLST         696          1.0000000000
      2087       696  TIP3  H1           -3.7832462156        3.9568499723       -6.0993054370  CLST         696          1.0000000000
      2088       696  TIP3  H2           -4.5247886763        3.4625418882       -5.2333103624  CLST         696          1.0000000000
      2089       697  TIP3  OH2           2.7871155095        5.5827707525       11.8627031133  CLST         697          1.0000000000
      2090       697  TIP3  H1            2.2123237011        5.6082230890       11.0642968201  CLST         697          1.0000000000
      2091       697  TIP3  H2            3.5359710585        5.6581640384       11.3222770402  CLST         697          1.0000000000
      2092       698  TIP3  OH2          -3.4412809420        5.0541955118       -1.0733941316  CLST         698          1.0000000000
      2093       698  TIP3  H1           -4.0437256743        4.1067658931       -1.5056269378  CLST         698          1.0000000000
      2094       698  TIP3  H2           -4.2724408124        5.0993939715       -1.2907299613  CLST         698          1.0000000000
      2095       699  TIP3  OH2          -1.2735551527       -4.5556058124        3.5738929095  CLST         699          1.0000000000
      2096       699  TIP3  H1           -2.1734714104       -4.2898532045        3.5899767564  CLST         699          1.0000000000
      2097       699  TIP3  H2           -0.9669688536       -4.4255030538        2.6810301746  CLST         699          1.0000000000
      2098       700  TIP3  OH2          -5.1694117533       -8.2938460830        8.9236595397  CLST         700          1.0000000000
      2099       700  TIP3  H1           -5.2460466591       -7.7307238759        8.1017954893  CLST         700          1.0000000000
      2100       700  TIP3  H2           -4.3665169729       -8.6977646908        8.6272113443  CLST         700          1.0000000000
      2101       701  TIP3  OH2         -14.1844188362       10.2882786858        0.2071464623  CLST         701          1.0000000000
      2102       701  TIP3  H1          -13.8942970257        9.4736067605       -0.2920887253  CLST         701          1.0000000000
      2103       701  TIP3  H2          -15.0761021008       10.3030158888       -0.0937113457  CLST         701          1.0000000000
      2104       702  TIP3  OH2          -5.5254430695       -9.5365639501      -12.5548429685  CLST         702          1.0000000000
      2105       702  TIP3  H1           -5.5527493415       -9.8769966825      -11.6045131298  CLST         702          1.0000000000
      2106       702  TIP3  H2           -6.4822140688       -9.5309560837      -12.6446823740  CLST         702          1.0000000000
      2107       703  TIP3  OH2           3.7390155330        6.2058061242       -4.4706546967  CLST         703          1.0000000000
      2108       703  TIP3  H1            2.7677472305        5.9712658123       -4.2220497006  CLST         703          1.0000000000
      2109       703  TIP3  H2            3.3136840463        6.9892858892       -4.1116771226  CLST         703          1.0000000000
      2110       704  TIP3  OH2         -10.0001372301        5.0869856023       11.7548990014  CLST         704          1.0000000000
      2111       704  TIP3  H1          -10.3076441473        5.7910772310       12.3533001951  CLST         704          1.0000000000
      2112       704  TIP3  H2           -9.6792341870        5.7609168464       11.1830080991  CLST         704          1.0000000000
      2113       705  TIP3  OH2          -0.7636672519       -8.9207253576       -7.0750080153  CLST         705          1.0000000000
      2114       705  TIP3  H1           -0.9266781906       -9.7467777986       -7.4133765999  CLST         705          1.0000000000
      2115       705  TIP3  H2           -0.4827278939       -8.5933540390       -7.9496468864  CLST         705          1.0000000000
      2116       706  TIP3  OH2          -2.0166492599       -1.5897297478        4.5097069917  CLST         706          1.0000000000
      2117       706  TIP3  H1           -1.5298027679       -0.7781681811        4.6722518262  CLST         706          1.0000000000
      2118       706  TIP3  H2           -1.2051573064       -1.9793614902        4.1897156808  CLST         706          1.0000000000
      2119       707  TIP3  OH2           8.6671937661       10.9523544158        7.3859721717  CLST         707          1.0000000000
      2120       707  TIP3  H1            8.1157708967       11.3541331252        6.5102019751  CLST         707          1.0000000000
      2121       707  TIP3  H2            7.8974722695       10.6023095131        7.0982619642  CLST         707          1.0000000000
      2122       708  TIP3  OH2          -0.8732235481       -7.7678717030      -12.4378001158  CLST         708          1.0000000000
      2123       708  TIP3  H1           -1.7216232633       -7.8302878023      -12.8990796265  CLST         708          1.0000000000
      2124       708  TIP3  H2           -0.5677767370       -7.1377911808      -13.0686404348  CLST         708          1.0000000000
      2125       709  TIP3  OH2          -6.3367706030       14.4862920119        0.5784876002  CLST         709          1.0000000000
      2126       709  TIP3  H1           -5.3903224805       14.3855141729        0.8226937962  CLST         709          1.0000000000
      2127       709  TIP3  H2           -6.4308266892       14.6164788857        1.5361117534  CLST         709          1.0000000000
      2128       710  TIP3  OH2          -0.8003720255       14.2289859369      -10.8391171273  CLST         710          1.0000000000
      2129       710  TIP3  H1           -0.0751751032       14.0829584695      -11.4037091649  CLST         710          1.0000000000
      2130       710  TIP3  H2           -1.1956904866       13.4137962880      -11.0634859457  CLST         710          1.0000000000
      2131       711  TIP3  OH2          11.7415082207      -11.6787256610      -11.0619687264  CLST         711          1.0000000000
      2132       711  TIP3  H1           11.8883457400      -12.6640725199      -11.0218523714  CLST         711          1.0000000000
      2133       711  TIP3  H2           12.0028200860      -11.7397898786      -11.9429209180  CLST         711          1.0000000000
      2134       712  TIP3  OH2          -3.6058080489      -10.6963977008       11.5534433769  CLST         712          1.0000000000
      2135       712  TIP3  H1           -4.2488404519      -10.2909612356       11.0069262465  CLST         712          1.0000000000
      2136       712  TIP3  H2           -2.8179223348      -10.5632284581       11.1193886369  CLST         712          1.0000000000
      2137       713  TIP3  OH2           7.0663467524        0.0760224722        6.4201535855  CLST         713          1.0000000000
      2138       713  TIP3  H1            7.6047480272        0.1812561161        7.1957172235  CLST         713          1.0000000000
      2139       713  TIP3  H2            7.6588559190       -0.5848385153        6.1334140794  CLST         713          1.0000000000
      2140       714  TIP3  OH2           4.8618054383       12.3833554788        4.4056336916  CLST         714          1.0000000000
      2141       714  TIP3  H1            4.4556577304       13.0540420919        3.8734346433  CLST         714          1.0000000000
      2142       714  TIP3  H2            4.1878513895       12.6861089210        5.0780409898  CLST         714          1.0000000000
      2143       715  TIP3  OH2          -9.0455013118       -9.5897161476        1.6781647998  CLST         715          1.0000000000
      2144       715  TIP3  H1           -9.6916123634       -8.8905888038        1.6204943104  CLST         715          1.0000000000
      2145       715  TIP3  H2           -9.7249152328      -10.1173710862        2.2562909668  CLST         715          1.0000000000
      2146       716  TIP3  OH2         -13.7194598528      -13.4858015895        0.1222449043  CLST         716          1.0000000000
      2147       716  TIP3  H1          -13.6207755767      -14.0688856862       -0.6654432310  CLST         716          1.0000000000
      2148       716  TIP3  H2          -13.7743918338      -12.8572399800       -0.5967273008  CLST         716          1.0000000000
      2149       717  TIP3  OH2          -6.2195026271      -12.0269854925        2.3899294050  CLST         717          1.0000000000
      2150       717  TIP3  H1           -6.4000906426      -11.3474413038        1.7040910243  CLST         717          1.0000000000
      2151       717  TIP3  H2           -6.9570757623      -12.5112977435        1.9928256423  CLST         717          1.0000000000
      2152       718  TIP3  OH2         -10.9954247208        7.4833391777       13.3478227258  CLST         718          1.0000000000
      2153       718  TIP3  H1          -11.5270249866        8.0741701970       13.9184842219  CLST         718          1.0000000000
      2154       718  TIP3  H2          -10.2346199659        8.1249869956       13.2370185391  CLST         718          1.0000000000
      2155       719  TIP3  OH2          10.4166902040       -7.2482227829        2.8931810507  CLST         719          1.0000000000
      2156       719  TIP3  H1           11.3856225387       -7.2036001589        3.1557013434  CLST         719          1.0000000000
      2157       719  TIP3  H2           10.5467901912       -6.8242090688        2.0254448821  CLST         719          1.0000000000
      2158       720  TIP3  OH2          -5.0067520106       13.0523459588       -8.5258697491  CLST         720          1.0000000000
      2159       720  TIP3  H1           -4.0476254637       12.9891581014       -8.4453705685  CLST         720          1.0000000000
      2160       720  TIP3  H2           -5.0130827959       13.5904291195       -7.6340271710  CLST         720          1.0000000000
      2161       721  TIP3  OH2           4.0157678022       -5.9822270705      -10.0927199861  CLST         721          1.0000000000
      2162       721  TIP3  H1            4.0471179524       -5.7182304240       -9.1962824219  CLST         721          1.0000000000
      2163       721  TIP3  H2            4.8970514998       -6.3671794971       -9.9069660416  CLST         721          1.0000000000
      2164       722  TIP3  OH2          10.2794875024       -2.6374328842        2.1464166938  CLST         722          1.0000000000
      2165       722  TIP3  H1            9.7844351060       -3.1515788486        1.4853347243  CLST         722          1.0000000000
      2166       722  TIP3  H2           11.1343200321       -2.5335458092        1.6957210386  CLST         722          1.0000000000
      2167       723  TIP3  OH2           0.3911706473       13.3783745685        5.9827610864  CLST         723          1.0000000000
      2168       723  TIP3  H1            0.8158890750       14.2129274619        5.6919465680  CLST         723          1.0000000000
      2169       723  TIP3  H2            1.3044234231       13.0595028456        6.0421766708  CLST         723          1.0000000000
      2170       724  TIP3  OH2           8.4035253940       -8.3736960979       -3.9847457774  CLST         724          1.0000000000
      2171       724  TIP3  H1            8.4884311576       -9.0882134321       -4.6479591860  CLST         724          1.0000000000
      2172       724  TIP3  H2            8.3003585589       -7.7748572246       -4.7156383038  CLST         724          1.0000000000
      2173       725  TIP3  OH2          -0.9193676857       -0.1198873257        2.2485772084  CLST         725          1.0000000000
      2174       725  TIP3  H1           -1.7374773908       -0.4353207049        2.6356206243  CLST         725          1.0000000000
      2175       725  TIP3  H2           -1.3712156320        0.5542358291        1.7434390086  CLST         725          1.0000000000
      2176       726  TIP3  OH2         -14.1936173377       10.6621336311        6.1031848658  CLST         726          1.0000000000
      2177       726  TIP3  H1          -15.0828567514       10.9192171141        5.9023423739  CLST         726          1.0000000000
      2178       726  TIP3  H2          -13.7758990597       11.5212506841        5.8909209060  CLST         726          1.0000000000
      2179       727  TIP3  OH2          -4.2912822686      -13.5318405961       -0.3900546566  CLST         727          1.0000000000
      2180       727  TIP3  H1           -3.7517914681      -13.6703215414        0.3566520357  CLST         727          1.0000000000
      2181       727  TIP3  H2           -3.8793338809      -12.6753227003       -0.4422230157  CLST         727          1.0000000000
      2182       728  TIP3  OH2          -8.0974042326        3.1927572100       -0.7159568469  CLST         728          1.0000000000
      2183       728  TIP3  H1           -7.5007185319        2.4574175254       -0.5165441167  CLST         728          1.0000000000
      2184       728  TIP3  H2           -8.8837355955        2.5818995061       -0.6255139138  CLST         728          1.0000000000
      2185       729  TIP3  OH2          10.4552874097      -10.3120038231        2.8629845373  CLST         729          1.0000000000
      2186       729  TIP3  H1           10.7504883107       -9.3721003951        2.9140009189  CLST         729          1.0000000000
      2187       729  TIP3  H2           11.3185194948      -10.5896427726        3.2017583376  CLST         729          1.0000000000
      2188       730  TIP3  OH2          -4.2713263321       10.9826977321       -5.3539936600  CLST         730          1.0000000000
      2189       730  TIP3  H1           -4.1916298677       10.1570847318       -5.7938178735  CLST         730          1.0000000000
      2190       730  TIP3  H2           -5.2167558142       10.9994227461       -5.6266879155  CLST         730          1.0000000000
      2191       731  TIP3  OH2          13.1938456376       12.5756172661       -4.5388393309  CLST         731          1.0000000000
      2192       731  TIP3  H1           13.6081320495       13.0740909222       -5.1808099957  CLST         731          1.0000000000
      2193       731  TIP3  H2           12.6859199369       11.9126237959       -5.0264329013  CLST         731          1.0000000000
      2194       732  TIP3  OH2          -2.7572123574       -1.2829295459       -1.9393047126  CLST         732          1.0000000000
      2195       732  TIP3  H1           -3.4144290907       -0.8417235470       -1.1940700571  CLST         732          1.0000000000
      2196       732  TIP3  H2           -3.4919445784       -0.9816247348       -2.1138374339  CLST         732          1.0000000000
      2197       733  TIP3  OH2           5.4270843189        2.4486018474       12.9092841788  CLST         733          1.0000000000
      2198       733  TIP3  H1            5.2732250709        1.6181932996       12.4772718689  CLST         733          1.0000000000
      2199       733  TIP3  H2            4.5370205804        2.5034951466       13.2341708916  CLST         733          1.0000000000
      2200       734  TIP3  OH2           8.5178512999       -2.2849547403        5.8787272590  CLST         734          1.0000000000
      2201       734  TIP3  H1            8.4933952485       -3.0325152979        5.2438654797  CLST         734          1.0000000000
      2202       734  TIP3  H2            9.5169803116       -2.2440794215        5.8008195677  CLST         734          1.0000000000
      2203       735  TIP3  OH2         -10.8199930267      -12.6488964668        0.8998048897  CLST         735          1.0000000000
      2204       735  TIP3  H1          -10.9596913724      -12.0450421466        1.6412836269  CLST         735          1.0000000000
      2205       735  TIP3  H2          -11.7894401807      -12.8035256077        0.8106648990  CLST         735          1.0000000000
      2206       736  TIP3  OH2          13.3955055468        2.5884901604        2.7194891656  CLST         736          1.0000000000
      2207       736  TIP3  H1           13.9308064954        2.1793536012        2.0662755678  CLST         736          1.0000000000
      2208       736  TIP3  H2           12.6665371325        2.0874484761        2.3398586514  CLST         736          1.0000000000
      2209       737  TIP3  OH2          11.4962475931       -1.9199407136        8.0237572352  CLST         737          1.0000000000
      2210       737  TIP3  H1           11.1868285400       -2.0182411452        7.1129992140  CLST         737          1.0000000000
      2211       737  TIP3  H2           11.5129395477       -0.9291299051        7.7320323814  CLST         737          1.0000000000
      2212       738  TIP3  OH2          10.4531642109        0.9875790508       14.1751774237  CLST         738          1.0000000000
      2213       738  TIP3  H1            9.6272086223        0.7190851531       14.5682882354  CLST         738          1.0000000000
      2214       738  TIP3  H2           10.7042780234        0.0496493684       14.2575771557  CLST         738          1.0000000000
      2215       739  TIP3  OH2         -13.4154288935        1.4953262786       10.3784459091  CLST         739          1.0000000000
      2216       739  TIP3  H1          -14.1399900980        1.7181829268       10.9560271235  CLST         739          1.0000000000
      2217       739  TIP3  H2          -14.0173660467        0.8779844590        9.8551623128  CLST         739          1.0000000000
      2218       740  TIP3  OH2           6.1579040460      -13.9971962649       -5.0236712182  CLST         740          1.0000000000
      2219       740  TIP3  H1            5.7112778426      -14.7693896322       -5.7114385930  CLST         740          1.0000000000
      2220       740  TIP3  H2            6.6400661366      -14.4863118470       -5.4415065447  CLST         740          1.0000000000
      2221       741  TIP3  OH2          11.5636670524        4.9731253411        9.4792779451  CLST         741          1.0000000000
      2222       741  TIP3  H1           12.4495232246        4.9317243994        9.8177848945  CLST         741          1.0000000000
      2223       741  TIP3  H2           11.6095791790        4.0690437707        9.2244563996  CLST         741          1.0000000000
      2224       742  TIP3  OH2           8.3594420220       -9.6788347345       -6.2856431965  CLST         742          1.0000000000
      2225       742  TIP3  H1            8.6115445430      -10.5653396200       -6.4357281966  CLST         742          1.0000000000
      2226       742  TIP3  H2            7.6829245946       -9.8900589237       -6.9592184442  CLST         742          1.0000000000
      2227       743  TIP3  OH2          -7.3317570546       -0.2262910509      -10.9180190242  CLST         743          1.0000000000
      2228       743  TIP3  H1           -6.9788502538        0.6887173596      -10.9343199092  CLST         743          1.0000000000
      2229       743  TIP3  H2           -6.4366484555       -0.4221345048      -10.5874522019  CLST         743          1.0000000000
      2230       744  TIP3  OH2          -6.2838089598        3.6697701368        5.2832917799  CLST         744          1.0000000000
      2231       744  TIP3  H1           -5.3523129069        3.4022199324        5.4352425635  CLST         744          1.0000000000
      2232       744  TIP3  H2           -6.1840849191        4.5151724200        5.7733124972  CLST         744          1.0000000000
      2233       745  TIP3  OH2           0.3028448185       -8.3771503514        6.8885722169  CLST         745          1.0000000000
      2234       745  TIP3  H1            0.7834134921       -9.2378690224        6.8079272972  CLST         745          1.0000000000
      2235       745  TIP3  H2            0.7850312204       -8.1181516357        7.6576954826  CLST         745          1.0000000000
      2236       746  TIP3  OH2          -7.7397361762       -4.4165292719       -5.9601931255  CLST         746          1.0000000000
      2237       746  TIP3  H1           -7.9434344246       -5.2225617009       -6.4385889092  CLST         746          1.0000000000
      2238       746  TIP3  H2           -8.2876890128       -3.8508627785       -6.4886093540  CLST         746          1.0000000000
      2239       747  TIP3  OH2          11.1859890041       11.8796212553        2.0619695148  CLST         747          1.0000000000
      2240       747  TIP3  H1           10.7358551071       12.3803931779        2.7127366851  CLST         747          1.0000000000
      2241       747  TIP3  H2           11.5312780929       11.4104229105        2.8705720900  CLST         747          1.0000000000
      2242       748  TIP3  OH2           3.5243372493        4.9583379048        8.5514596433  CLST         748          1.0000000000
      2243       748  TIP3  H1            4.0515072092        5.0212289479        9.3420502960  CLST         748          1.0000000000
      2244       748  TIP3  H2            3.6966581387        5.8612371127        8.3374632065  CLST         748          1.0000000000
      2245       749  TIP3  OH2          10.9123044509        9.6545215369        6.4542077424  CLST         749          1.0000000000
      2246       749  TIP3  H1           10.7684063194        9.0023526291        7.1093401104  CLST         749          1.0000000000
      2247       749  TIP3  H2           10.3023150695       10.2284068849        6.8758298008  CLST         749          1.0000000000
      2248       750  TIP3  OH2         -14.1821003857       12.2765263159       -7.5940556593  CLST         750          1.0000000000
      2249       750  TIP3  H1          -15.0828567514       12.1287441516       -7.7742204353  CLST         750          1.0000000000
      2250       750  TIP3  H2          -13.8468295490       11.8234427035       -8.3005425519  CLST         750          1.0000000000
      2251       751  TIP3  OH2           8.7331110448        4.4113879616       -4.2591529126  CLST         751          1.0000000000
      2252       751  TIP3  H1            7.9305529288        3.8064022264       -4.4004545727  CLST         751          1.0000000000
      2253       751  TIP3  H2            9.1583227421        3.6749374238       -3.7812975900  CLST         751          1.0000000000
      2254       752  TIP3  OH2         -12.1688211308       13.2072687112        2.3778439414  CLST         752          1.0000000000
      2255       752  TIP3  H1          -12.6833022341       13.1186145055        1.5827987450  CLST         752          1.0000000000
      2256       752  TIP3  H2          -11.9722838784       12.2889364317        2.3942783054  CLST         752          1.0000000000
      2257       753  TIP3  OH2           8.7716294120        2.5421212221       -7.0184163562  CLST         753          1.0000000000
      2258       753  TIP3  H1            8.3715477371        3.3924105452       -7.4682060468  CLST         753          1.0000000000
      2259       753  TIP3  H2            8.0802075181        2.5639550917       -6.3446327586  CLST         753          1.0000000000
      2260       754  TIP3  OH2          11.3476479532        2.3240947156       -6.1162496237  CLST         754          1.0000000000
      2261       754  TIP3  H1           10.8079728783        2.1595548343       -5.3203605927  CLST         754          1.0000000000
      2262       754  TIP3  H2           10.5027411991        2.5117474315       -6.5990918589  CLST         754          1.0000000000
      2263       755  TIP3  OH2           7.5556505479       -1.6783549187       -0.2814600769  CLST         755          1.0000000000
      2264       755  TIP3  H1            6.6503256797       -1.8883324193       -0.1368848715  CLST         755          1.0000000000
      2265       755  TIP3  H2            7.3257385598       -0.7591332617       -0.1777542345  CLST         755          1.0000000000
      2266       756  TIP3  OH2         -12.9033475772        6.3770707278        5.7670312394  CLST         756          1.0000000000
      2267       756  TIP3  H1          -13.5519568296        5.9858176152        6.4065567071  CLST         756          1.0000000000
      2268       756  TIP3  H2          -12.2921342511        6.1639486114        6.5785969241  CLST         756          1.0000000000
      2269       757  TIP3  OH2          -4.6964120877       -4.9051046108       -2.2223638976  CLST         757          1.0000000000
      2270       757  TIP3  H1           -4.0287508963       -5.1678673231       -2.8623737414  CLST         757          1.0000000000
      2271       757  TIP3  H2           -5.1471974234       -4.4248955290       -2.9674468913  CLST         757          1.0000000000
      2272       758  TIP3  OH2          12.0707543061        4.3466816298       -0.8119342397  CLST         758          1.0000000000
      2273       758  TIP3  H1           12.3183084871        4.4864640474        0.1238777881  CLST         758          1.0000000000
      2274       758  TIP3  H2           12.9821204152        3.6907368967       -0.4215464323  CLST         758          1.0000000000
      2275       759  TIP3  OH2          -7.5517704538       11.8775483958      -11.1847351435  CLST         759          1.0000000000
      2276       759  TIP3  H1           -6.8260809589       12.0578172780      -11.8141975166  CLST         759          1.0000000000
      2277       759  TIP3  H2           -6.8423738366       11.4524961005      -10.6979810085  CLST         759          1.0000000000
      2278       760  TIP3  OH2           7.9143104177       14.3524672544       -6.2486285771  CLST         760          1.0000000000
      2279       760  TIP3  H1            8.3591923897       14.3532635499       -7.1082773432  CLST         760          1.0000000000
      2280       760  TIP3  H2            7.4533956778       13.4946088519       -6.3558242778  CLST         760          1.0000000000
      2281       761  TIP3  OH2          -7.0400446465        8.0641996334      -11.5108568222  CLST         761          1.0000000000
      2282       761  TIP3  H1           -7.9538151469        7.8523206791      -11.8278986491  CLST         761          1.0000000000
      2283       761  TIP3  H2           -7.3716649874        8.0453661220      -10.6540939360  CLST         761          1.0000000000
      2284       762  TIP3  OH2           7.8004522286       -6.1840885106      -12.9313576698  CLST         762          1.0000000000
      2285       762  TIP3  H1            7.2325715414       -6.8417465312      -12.4737052001  CLST         762          1.0000000000
      2286       762  TIP3  H2            7.6602166498       -5.4829969026      -12.3072449668  CLST         762          1.0000000000
      2287       763  TIP3  OH2          -1.1366140474       -6.0977362748        9.0083438939  CLST         763          1.0000000000
      2288       763  TIP3  H1           -1.1201326585       -5.1525402690        8.8517472068  CLST         763          1.0000000000
      2289       763  TIP3  H2           -1.7933629034       -6.1108832017        9.7189570303  CLST         763          1.0000000000
      2290       764  TIP3  OH2           8.8449581417      -11.4164643557        0.8168344189  CLST         764          1.0000000000
      2291       764  TIP3  H1            8.1936994116      -10.7742152187        0.9437500440  CLST         764          1.0000000000
      2292       764  TIP3  H2            9.5364406341      -11.0779637181        1.4584554803  CLST         764          1.0000000000
      2293       765  TIP3  OH2         -14.5509951022      -12.2534961490       13.0805227086  CLST         765          1.0000000000
      2294       765  TIP3  H1          -14.1264551523      -11.6830025344       13.5806749896  CLST         765          1.0000000000
      2295       765  TIP3  H2          -14.8056843242      -11.1073877327       12.9488729726  CLST         765          1.0000000000
      2296       766  TIP3  OH2          11.7135398884       -8.3799069965      -12.0607683547  CLST         766          1.0000000000
      2297       766  TIP3  H1           10.9605494088       -7.9814204001      -12.4883071228  CLST         766          1.0000000000
      2298       766  TIP3  H2           11.0826796121       -9.0784230451      -11.8890049027  CLST         766          1.0000000000
      2299       767  TIP3  OH2           2.3126354175       12.3482332423      -12.7559697646  CLST         767          1.0000000000
      2300       767  TIP3  H1            2.5454971576       12.0084511365      -11.8942132080  CLST         767          1.0000000000
      2301       767  TIP3  H2            2.2622702260       13.2082849885      -12.3980903028  CLST         767          1.0000000000
      2302       768  TIP3  OH2           7.8460352000        7.1267369429        8.4206281079  CLST         768          1.0000000000
      2303       768  TIP3  H1            8.7843105765        7.2307389511        8.3867005690  CLST         768          1.0000000000
      2304       768  TIP3  H2            7.9276485012        6.1944126180        8.3173819530  CLST         768          1.0000000000
      2305       769  TIP3  OH2         -11.8656715325        3.2963252289        0.9399296669  CLST         769          1.0000000000
      2306       769  TIP3  H1          -11.4406826896        2.9769651963        1.9528650025  CLST         769          1.0000000000
      2307       769  TIP3  H2          -12.4163675999        3.2545614145        1.9143661916  CLST         769          1.0000000000
      2308       770  TIP3  OH2          10.2758918884       -4.7173767240       11.3037714423  CLST         770          1.0000000000
      2309       770  TIP3  H1           10.2197729283       -3.9384853750       10.8496442419  CLST         770          1.0000000000
      2310       770  TIP3  H2           11.0931418899       -4.9791811529       10.9459526283  CLST         770          1.0000000000
      2311       771  TIP3  OH2         -10.3380191656        1.2825273111       -5.7658853979  CLST         771          1.0000000000
      2312       771  TIP3  H1           -9.4700474264        0.8991187552       -5.8783706326  CLST         771          1.0000000000
      2313       771  TIP3  H2          -10.1238380663        1.4680470554       -4.8259128761  CLST         771          1.0000000000
      2314       772  TIP3  OH2          13.0467585264      -12.4639811553       -6.6827180969  CLST         772          1.0000000000
      2315       772  TIP3  H1           13.1423844304      -11.4931666412       -6.4302438860  CLST         772          1.0000000000
      2316       772  TIP3  H2           12.2973807427      -12.4424094701       -6.0845764058  CLST         772          1.0000000000
      2317       773  TIP3  OH2          12.1153709134       -4.8333947705        3.4339515919  CLST         773          1.0000000000
      2318       773  TIP3  H1           12.1467092181       -4.2582777949        4.2186312590  CLST         773          1.0000000000
      2319       773  TIP3  H2           12.5227859844       -4.2920891191        2.7666604155  CLST         773          1.0000000000
      2320       774  TIP3  OH2          -7.8372722037       -0.1935127335       -5.9726559436  CLST         774          1.0000000000
      2321       774  TIP3  H1           -6.7963215898       -0.4364722416       -6.3007464155  CLST         774          1.0000000000
      2322       774  TIP3  H2           -7.1873665004        0.4673591944       -6.0017227167  CLST         774          1.0000000000
      2323       775  TIP3  OH2           2.5654657246        1.6335884139        5.3970804224  CLST         775          1.0000000000
      2324       775  TIP3  H1            2.5350938949        1.4153984350        6.3236250987  CLST         775          1.0000000000
      2325       775  TIP3  H2            2.8314077099        2.5164303391        5.6550520787  CLST         775          1.0000000000
      2326       776  TIP3  OH2           0.1173387077        9.6070822314        5.7829436490  CLST         776          1.0000000000
      2327       776  TIP3  H1           -0.5807885376       10.1808756246        5.4690375004  CLST         776          1.0000000000
      2328       776  TIP3  H2           -0.4460226912        8.8297107908        5.8590376848  CLST         776          1.0000000000
      2329       777  TIP3  OH2         -13.1787773471      -10.2275889901        0.0682194810  CLST         777          1.0000000000
      2330       777  TIP3  H1          -12.9066193567       -9.2918330995        0.2198077224  CLST         777          1.0000000000
      2331       777  TIP3  H2          -13.2003688298      -10.2797462420        1.0276686373  CLST         777          1.0000000000
      2332       778  TIP3  OH2         -11.6606804373        5.6977307574       -0.5282582730  CLST         778          1.0000000000
      2333       778  TIP3  H1          -11.6126300265        4.9761235582        0.0725441984  CLST         778          1.0000000000
      2334       778  TIP3  H2          -11.5036048300        5.1414213829       -1.2672144457  CLST         778          1.0000000000
      2335       779  TIP3  OH2          -6.1303243702        5.2861646097       -1.7591495085  CLST         779          1.0000000000
      2336       779  TIP3  H1           -6.8691553119        4.8621335724       -1.4299884881  CLST         779          1.0000000000
      2337       779  TIP3  H2           -6.3371254615        6.0938272632       -1.2851992015  CLST         779          1.0000000000
      2338       780  TIP3  OH2           2.4145372003       13.9697354847       -8.5591227504  CLST         780          1.0000000000
      2339       780  TIP3  H1            2.1640297346       14.6943094859       -8.8903476928  CLST         780          1.0000000000
      2340       780  TIP3  H2            2.7835735312       14.2656554293       -9.6377813380  CLST         780          1.0000000000
      2341       781  TIP3  OH2           9.1156359337       -8.8444772464       -9.7282421756  CLST         781          1.0000000000
      2342       781  TIP3  H1            9.8739445519       -8.4205907330       -9.4387348127  CLST         781          1.0000000000
      2343       781  TIP3  H2            9.4977349259       -9.6608080359       -9.5190455249  CLST         781          1.0000000000
      2344       782  TIP3  OH2           0.1463323816        2.5521069272        4.4060688573  CLST         782          1.0000000000
      2345       782  TIP3  H1           -0.4613626378        1.8624615690        4.6745463289  CLST         782          1.0000000000
      2346       782  TIP3  H2            0.9163387265        2.1640085824        4.8303367062  CLST         782          1.0000000000
      2347       783  TIP3  OH2          -7.1624766762      -12.5878921219      -13.5287321478  CLST         783          1.0000000000
      2348       783  TIP3  H1           -7.9083820899      -12.1895951847      -12.9754720167  CLST         783          1.0000000000
      2349       783  TIP3  H2           -7.7321610337      -12.6585296941      -14.2712168094  CLST         783          1.0000000000
      2350       784  TIP3  OH2          14.5335564486        5.2456881923       -4.0433677558  CLST         784          1.0000000000
      2351       784  TIP3  H1           15.0828567514        5.9174186753       -4.4603018636  CLST         784          1.0000000000
      2352       784  TIP3  H2           13.6951305956        5.7170903013       -4.0823323424  CLST         784          1.0000000000
      2353       785  TIP3  OH2          10.5779720498        8.1429567802        0.8951741473  CLST         785          1.0000000000
      2354       785  TIP3  H1           10.7107190866        8.9705072091        1.3001513936  CLST         785          1.0000000000
      2355       785  TIP3  H2           11.4357734327        8.3182593306        0.5133625321  CLST         785          1.0000000000
      2356       786  TIP3  OH2          12.5925530152        3.4884612260       12.3090972643  CLST         786          1.0000000000
      2357       786  TIP3  H1           12.9929177946        4.4160413157       12.7480139264  CLST         786          1.0000000000
      2358       786  TIP3  H2           12.0117172160        4.2113087877       12.8722449017  CLST         786          1.0000000000
      2359       787  TIP3  OH2          -8.0430606536        0.0898156646       11.5032466157  CLST         787          1.0000000000
      2360       787  TIP3  H1           -8.7133327451        0.2915263376       10.8885150373  CLST         787          1.0000000000
      2361       787  TIP3  H2           -8.5989846096       -0.5972445158       11.8987066889  CLST         787          1.0000000000
      2362       788  TIP3  OH2           2.4733381230      -13.2734436857       11.0166434889  CLST         788          1.0000000000
      2363       788  TIP3  H1            2.5677257624      -13.0824673686       11.9922581641  CLST         788          1.0000000000
      2364       788  TIP3  H2            2.9810068778      -14.0661930722       11.1129039304  CLST         788          1.0000000000
      2365       789  TIP3  OH2          -7.1004465855        1.0220242878       -3.2282261467  CLST         789          1.0000000000
      2366       789  TIP3  H1           -6.8682015224        0.1178725487       -2.9565389921  CLST         789          1.0000000000
      2367       789  TIP3  H2           -6.2129148711        0.9856332181       -3.7017939029  CLST         789          1.0000000000
      2368       790  TIP3  OH2         -11.3035913340       -9.3197906991        5.5381220577  CLST         790          1.0000000000
      2369       790  TIP3  H1          -11.3890361489       -9.5529119705        6.4733251453  CLST         790          1.0000000000
      2370       790  TIP3  H2          -11.5959024924       -8.3447882388        5.5831692369  CLST         790          1.0000000000
      2371       791  TIP3  OH2          -5.0486625551       -5.7152391426      -10.6414616495  CLST         791          1.0000000000
      2372       791  TIP3  H1           -4.2456273422       -6.2255345396      -10.8000215669  CLST         791          1.0000000000
      2373       791  TIP3  H2           -4.7902693575       -5.0615780971      -11.2825706277  CLST         791          1.0000000000
      2374       792  TIP3  OH2           7.0349804144       -3.9158406546        9.9720374858  CLST         792          1.0000000000
      2375       792  TIP3  H1            7.3965233389       -4.6977026160        9.5009304684  CLST         792          1.0000000000
      2376       792  TIP3  H2            7.9026238352       -3.4991351176        9.8748945825  CLST         792          1.0000000000
      2377       793  TIP3  OH2          -3.2487577722       12.8923642293       -3.8213378817  CLST         793          1.0000000000
      2378       793  TIP3  H1           -3.5296288287       12.5965027564       -2.8988307597  CLST         793          1.0000000000
      2379       793  TIP3  H2           -3.3921608764       12.0051355857       -4.1717883879  CLST         793          1.0000000000
      2380       794  TIP3  OH2          -0.7696852035        2.7711045948       -6.6457009588  CLST         794          1.0000000000
      2381       794  TIP3  H1           -1.1951059993        2.2572212008       -7.3129792169  CLST         794          1.0000000000
      2382       794  TIP3  H2           -1.0340138844        3.5193449461       -7.1967015809  CLST         794          1.0000000000
      2383       795  TIP3  OH2          -2.0105923035       -9.4378930194        1.2493690640  CLST         795          1.0000000000
      2384       795  TIP3  H1           -2.6399687065      -10.0964127986        0.9787452192  CLST         795          1.0000000000
      2385       795  TIP3  H2           -1.6114458762       -9.9457438965        1.9574440872  CLST         795          1.0000000000
      2386       796  TIP3  OH2           2.7180160562        4.7781069395        4.8600400130  CLST         796          1.0000000000
      2387       796  TIP3  H1            3.3003787240        4.5036432842        3.8585880025  CLST         796          1.0000000000
      2388       796  TIP3  H2            3.5906635703        5.1421833247        4.7152243610  CLST         796          1.0000000000
      2389       797  TIP3  OH2         -11.5269085235        5.5813686526       -3.1420982698  CLST         797          1.0000000000
      2390       797  TIP3  H1          -12.0249206703        6.3346109849       -3.3964849485  CLST         797          1.0000000000
      2391       797  TIP3  H2          -11.2337975632        5.4311831934       -4.0399288432  CLST         797          1.0000000000
      2392       798  TIP3  OH2         -11.3292285510        9.6428059747       10.5606229090  CLST         798          1.0000000000
      2393       798  TIP3  H1          -11.4210958176       10.4378541493       10.0302533624  CLST         798          1.0000000000
      2394       798  TIP3  H2          -11.7069141363       10.2476012070       11.2378792067  CLST         798          1.0000000000
      2395       799  TIP3  OH2           4.0205043533       -1.7122209917      -12.5446300624  CLST         799          1.0000000000
      2396       799  TIP3  H1            4.7549571783       -1.0930077592      -12.4703138684  CLST         799          1.0000000000
      2397       799  TIP3  H2            4.2351904488       -2.0595691997      -13.3912748044  CLST         799          1.0000000000
      2398       800  TIP3  OH2         -10.3174442985        7.1553887895       10.2320009015  CLST         800          1.0000000000
      2399       800  TIP3  H1          -10.9702697429        7.8647729048       10.5600022347  CLST         800          1.0000000000
      2400       800  TIP3  H2           -9.7870805359        7.9974088821       10.1188092046  CLST         800          1.0000000000
      2401       801  TIP3  OH2           8.1827384176      -11.2505049715      -10.6696942197  CLST         801          1.0000000000
      2402       801  TIP3  H1            8.2587669479      -12.1861834588      -10.4641684680  CLST         801          1.0000000000
      2403       801  TIP3  H2            8.8062933602      -11.2417454697      -11.3785448164  CLST         801          1.0000000000
      2404       802  TIP3  OH2           5.5631664630       -0.2699023204       11.7659855473  CLST         802          1.0000000000
      2405       802  TIP3  H1            4.9695695382       -0.2049419339       10.9818824114  CLST         802          1.0000000000
      2406       802  TIP3  H2            6.1748306197       -0.7958316262       11.2736917995  CLST         802          1.0000000000
      2407       803  TIP3  OH2           6.5376338256       -9.5663330262        0.1196077197  CLST         803          1.0000000000
      2408       803  TIP3  H1            6.1725756061      -10.5324461118        0.1173523480  CLST         803          1.0000000000
      2409       803  TIP3  H2            5.9074810062       -9.2964949174        0.7525631079  CLST         803          1.0000000000
      2410       804  TIP3  OH2           5.4126074788        6.2821804306        1.9476868351  CLST         804          1.0000000000
      2411       804  TIP3  H1            4.9603872006        5.7198958630        1.1272710370  CLST         804          1.0000000000
      2412       804  TIP3  H2            5.8337507447        5.3446405029        1.5458625893  CLST         804          1.0000000000
      2413       805  TIP3  OH2           7.5940858871       -4.3962571046       14.2398825878  CLST         805          1.0000000000
      2414       805  TIP3  H1            8.3613001161       -4.5030938804       13.6370146279  CLST         805          1.0000000000
      2415       805  TIP3  H2            8.1011832732       -4.9060366456       14.8439057079  CLST         805          1.0000000000
      2416       806  TIP3  OH2           8.4287695930       10.0608727661       13.7924938740  CLST         806          1.0000000000
      2417       806  TIP3  H1            7.9101295108        9.2400860851       13.7958666292  CLST         806          1.0000000000
      2418       806  TIP3  H2            8.0471162663       10.3131379182       12.9177246438  CLST         806          1.0000000000
      2419       807  TIP3  OH2          -3.7186431182        8.0334255375        1.4231048346  CLST         807          1.0000000000
      2420       807  TIP3  H1           -3.7694553611        8.9955387663        1.5734839511  CLST         807          1.0000000000
      2421       807  TIP3  H2           -3.8069691566        7.7911152125        2.3171985408  CLST         807          1.0000000000
      2422       808  TIP3  OH2          -3.7266433193       13.8525898968        1.2333074045  CLST         808          1.0000000000
      2423       808  TIP3  H1           -3.0304833746       14.0729735001        1.8525988403  CLST         808          1.0000000000
      2424       808  TIP3  H2           -3.0550129273       13.7331211188        0.5782842381  CLST         808          1.0000000000
      2425       809  TIP3  OH2           1.9860669470       12.7531309749        9.5510700541  CLST         809          1.0000000000
      2426       809  TIP3  H1            1.9038313721       11.9381619437        9.0746411577  CLST         809          1.0000000000
      2427       809  TIP3  H2            1.1402854545       13.0574849219        9.2112558395  CLST         809          1.0000000000
      2428       810  TIP3  OH2          -1.9943219849        8.6190250625        8.6993726798  CLST         810          1.0000000000
      2429       810  TIP3  H1           -1.0413596307        8.7107904623        8.4865134872  CLST         810          1.0000000000
      2430       810  TIP3  H2           -1.7291823041        8.0614109329        9.4016683070  CLST         810          1.0000000000
      2431       811  TIP3  OH2          -3.8370442298      -12.4571132201       -9.2012766276  CLST         811          1.0000000000
      2432       811  TIP3  H1           -4.0475480577      -13.0529710290       -9.9534531465  CLST         811          1.0000000000
      2433       811  TIP3  H2           -4.5105028493      -11.7334521190       -9.3948264202  CLST         811          1.0000000000
      2434       812  TIP3  OH2          10.8917514496        4.3364868742      -13.6357093755  CLST         812          1.0000000000
      2435       812  TIP3  H1           11.3025834692        3.5324281073      -13.5058570173  CLST         812          1.0000000000
      2436       812  TIP3  H2           11.6023344600        4.7187021333      -14.1333198402  CLST         812          1.0000000000
      2437       813  TIP3  OH2          -2.2759384646        0.6492025396      -14.0458807015  CLST         813          1.0000000000
      2438       813  TIP3  H1           -2.0880783616        1.4715838629      -14.5444728484  CLST         813          1.0000000000
      2439       813  TIP3  H2           -3.2320898130        0.8940729647      -14.1527014540  CLST         813          1.0000000000
      2440       814  TIP3  OH2          -7.4621188886        8.0411794803       -8.6702550213  CLST         814          1.0000000000
      2441       814  TIP3  H1           -7.1059225099        8.9196820702       -8.4835943257  CLST         814          1.0000000000
      2442       814  TIP3  H2           -6.6988961315        7.5510453695       -8.3771345920  CLST         814          1.0000000000
      2443       815  TIP3  OH2          -5.2324271738        1.2823382592       -8.4203717793  CLST         815          1.0000000000
      2444       815  TIP3  H1           -4.6400197581        1.9993307640       -8.3001423512  CLST         815          1.0000000000
      2445       815  TIP3  H2           -5.8971491764        1.8417891825       -8.7432547759  CLST         815          1.0000000000
      2446       816  TIP3  OH2          -8.3002276208      -13.6013240059        1.6150768672  CLST         816          1.0000000000
      2447       816  TIP3  H1           -8.7001005002      -14.4863116852        1.5597087221  CLST         816          1.0000000000
      2448       816  TIP3  H2           -9.1991319501      -13.3024235925        1.3380136074  CLST         816          1.0000000000
      2449       817  TIP3  OH2           3.6770625274       14.4070766245       10.9207103054  CLST         817          1.0000000000
      2450       817  TIP3  H1            2.9792677814       13.8890427966       10.5219820434  CLST         817          1.0000000000
      2451       817  TIP3  H2            3.4204679665       14.1425256299       11.8093240205  CLST         817          1.0000000000
      2452       818  TIP3  OH2          11.5319737459       -3.2533662817       -5.8297744621  CLST         818          1.0000000000
      2453       818  TIP3  H1           11.4723652468       -2.4180812722       -5.2901741624  CLST         818          1.0000000000
      2454       818  TIP3  H2           10.5759937926       -3.1756254069       -5.8303850552  CLST         818          1.0000000000
      2455       819  TIP3  OH2           0.0449304479        0.0897669067      -10.5355032807  CLST         819          1.0000000000
      2456       819  TIP3  H1            0.8107593615       -0.5861144020      -11.0192157163  CLST         819          1.0000000000
      2457       819  TIP3  H2            1.0114854064        0.3292306440      -10.8512775070  CLST         819          1.0000000000
      2458       820  TIP3  OH2         -11.2286694047       -7.8337102371       14.5347724709  CLST         820          1.0000000000
      2459       820  TIP3  H1          -11.9198269351       -8.5653432018       14.6856451289  CLST         820          1.0000000000
      2460       820  TIP3  H2          -10.6853027338       -8.7217141373       14.3056036021  CLST         820          1.0000000000
      2461       821  TIP3  OH2          12.0523973821       -0.9736090863       14.7537910186  CLST         821          1.0000000000
      2462       821  TIP3  H1           12.6302211160       -0.3044541033       14.4404531231  CLST         821          1.0000000000
      2463       821  TIP3  H2           12.2317962830       -1.6468450832       14.1160074732  CLST         821          1.0000000000
      2464       822  TIP3  OH2          -7.1713792710       14.2698826716        9.4476266172  CLST         822          1.0000000000
      2465       822  TIP3  H1           -7.1557313354       13.9098675786        8.5500203427  CLST         822          1.0000000000
      2466       822  TIP3  H2           -6.9954713922       13.2984666946        9.6548730180  CLST         822          1.0000000000
      2467       823  TIP3  OH2          -9.1751864029       -1.7081264016        7.7703013602  CLST         823          1.0000000000
      2468       823  TIP3  H1           -9.4816876700       -2.4221443566        8.3350965597  CLST         823          1.0000000000
      2469       823  TIP3  H2           -8.2488226019       -1.9846236151        7.7950358927  CLST         823          1.0000000000
      2470       824  TIP3  OH2          10.8822594382        0.6246948534        6.9598551852  CLST         824          1.0000000000
      2471       824  TIP3  H1           11.0641034994        0.6989839459        5.9818639525  CLST         824          1.0000000000
      2472       824  TIP3  H2           10.5343996864        1.5269798128        6.7864192274  CLST         824          1.0000000000
      2473       825  TIP3  OH2          -4.6349053511      -11.6926466437      -13.9900176360  CLST         825          1.0000000000
      2474       825  TIP3  H1           -5.4525552053      -12.2345512450      -13.9743160347  CLST         825          1.0000000000
      2475       825  TIP3  H2           -5.0062877116      -11.0509495658      -13.3976578952  CLST         825          1.0000000000
      2476       826  TIP3  OH2           4.3735920223      -14.0833755246        2.3459989174  CLST         826          1.0000000000
      2477       826  TIP3  H1            4.2953689558      -15.0132816198        2.2365128445  CLST         826          1.0000000000
      2478       826  TIP3  H2            5.2720544108      -14.2387291833        2.6406259558  CLST         826          1.0000000000
      2479       827  TIP3  OH2         -10.0445409119        8.4179602315       -6.6270007216  CLST         827          1.0000000000
      2480       827  TIP3  H1           -9.2984333405        8.4333366515       -5.9935919584  CLST         827          1.0000000000
      2481       827  TIP3  H2           -9.9434815576        7.4646290649       -6.4303586975  CLST         827          1.0000000000
      2482       828  TIP3  OH2         -10.1533784793       -7.8093927055       11.5320413400  CLST         828          1.0000000000
      2483       828  TIP3  H1           -9.3131188107       -7.9026733598       11.9509869781  CLST         828          1.0000000000
      2484       828  TIP3  H2           -9.8701362540       -7.0352043475       11.1285078074  CLST         828          1.0000000000
      2485       829  TIP3  OH2           3.0829324396       13.2425052991        6.3368023932  CLST         829          1.0000000000
      2486       829  TIP3  H1            3.2557639055       13.8423692117        7.2934869976  CLST         829          1.0000000000
      2487       829  TIP3  H2            3.1737128122       14.1634588204        6.2855481312  CLST         829          1.0000000000
      2488       830  TIP3  OH2          13.9767908704        2.8891942427        9.1055447988  CLST         830          1.0000000000
      2489       830  TIP3  H1           14.3995374357        3.3903857197        9.8357392513  CLST         830          1.0000000000
      2490       830  TIP3  H2           14.6941509843        3.2119104038        8.5632013143  CLST         830          1.0000000000
      2491       831  TIP3  OH2           2.9279267434        2.2190275614        8.0735248876  CLST         831          1.0000000000
      2492       831  TIP3  H1            3.2896092448        3.0846093602        8.2922808026  CLST         831          1.0000000000
      2493       831  TIP3  H2            2.0521528301        2.6031519629        8.0457491555  CLST         831          1.0000000000
      2494       832  TIP3  OH2         -12.8394874051       -2.6285882913        1.0880970046  CLST         832          1.0000000000
      2495       832  TIP3  H1          -12.9127333763       -1.8066854922        0.6062405373  CLST         832          1.0000000000
      2496       832  TIP3  H2          -13.1765032283       -2.6362318580        1.9656656613  CLST         832          1.0000000000
      2497       833  TIP3  OH2           1.4162729727      -11.6592800371        5.3472524820  CLST         833          1.0000000000
      2498       833  TIP3  H1            1.9150580523      -11.4027875381        6.1181014291  CLST         833          1.0000000000
      2499       833  TIP3  H2            2.2217483962      -11.5581537490        4.8380183815  CLST         833          1.0000000000
      2500       834  TIP3  OH2           3.4141685163       -3.2813285577        4.1699478035  CLST         834          1.0000000000
      2501       834  TIP3  H1            3.1404033043       -2.5213398098        4.2162151090  CLST         834          1.0000000000
      2502       834  TIP3  H2            3.9509537708       -2.6609204731        4.8974398724  CLST         834          1.0000000000
      2503       835  TIP3  OH2           4.4131083891        2.5132246137        0.0842874193  CLST         835          1.0000000000
      2504       835  TIP3  H1            4.1799934206        2.8510188628       -0.7904409800  CLST         835          1.0000000000
      2505       835  TIP3  H2            4.2512397020        1.6024934992       -0.1049165838  CLST         835          1.0000000000
      2506       836  TIP3  OH2           7.5489796376       -5.6650210110       -9.5560898174  CLST         836          1.0000000000
      2507       836  TIP3  H1            7.0247434165       -6.4403195007       -9.2559893927  CLST         836          1.0000000000
      2508       836  TIP3  H2            8.2998532532       -6.1200034835       -9.2222700790  CLST         836          1.0000000000
      2509       837  TIP3  OH2           3.3396886068        5.9809779452       -0.4712318083  CLST         837          1.0000000000
      2510       837  TIP3  H1            2.5813080638        5.5457711739       -0.8838977431  CLST         837          1.0000000000
      2511       837  TIP3  H2            2.7082436421        6.7120252239       -0.2473767849  CLST         837          1.0000000000
      2512       838  TIP3  OH2          -1.7068405656      -13.6042102770      -11.2846708967  CLST         838          1.0000000000
      2513       838  TIP3  H1           -1.2601634121      -14.3690270882      -10.9394185717  CLST         838          1.0000000000
      2514       838  TIP3  H2           -2.4303833146      -14.1636745574      -11.5222626501  CLST         838          1.0000000000
      2515       839  TIP3  OH2           1.5219328954       -7.2104194342       -1.4313628168  CLST         839          1.0000000000
      2516       839  TIP3  H1            1.1668486140       -7.6047430544       -0.5934364070  CLST         839          1.0000000000
      2517       839  TIP3  H2            0.5932373826       -7.0925897725       -1.8631392847  CLST         839          1.0000000000
      2518       840  TIP3  OH2          -7.4590873602       11.7683774280       10.6611827883  CLST         840          1.0000000000
      2519       840  TIP3  H1           -7.7002900867       11.2661650388       11.4463952890  CLST         840          1.0000000000
      2520       840  TIP3  H2           -6.7322473495       11.1863947256       10.5304418376  CLST         840          1.0000000000
      2521       841  TIP3  OH2          -8.5269143063       -7.7066000342       -4.2194315390  CLST         841          1.0000000000
      2522       841  TIP3  H1           -8.2056514107       -7.7314703244       -3.3139497168  CLST         841          1.0000000000
      2523       841  TIP3  H2           -7.5974287052       -7.7199412481       -4.4713808681  CLST         841          1.0000000000
      2524       842  TIP3  OH2          11.4760852969      -14.2268765788        0.1418126535  CLST         842          1.0000000000
      2525       842  TIP3  H1           11.1000611853      -14.5357241796        0.9772679243  CLST         842          1.0000000000
      2526       842  TIP3  H2           10.7797437126      -14.8280480371       -0.1817658980  CLST         842          1.0000000000
      2527       843  TIP3  OH2           9.5135979850       13.0913091799        3.7843054928  CLST         843          1.0000000000
      2528       843  TIP3  H1            8.9549483794       12.6073666953        4.3983715479  CLST         843          1.0000000000
      2529       843  TIP3  H2            8.7864063489       13.3124633792        3.2453960248  CLST         843          1.0000000000
      2530       844  TIP3  OH2           1.5355891519      -12.5348212947       -1.8018167217  CLST         844          1.0000000000
      2531       844  TIP3  H1            1.7492183697      -12.8169178434       -0.9200313299  CLST         844          1.0000000000
      2532       844  TIP3  H2            0.6055387472      -12.5944085923       -1.5353400988  CLST         844          1.0000000000
      2533       845  TIP3  OH2         -14.7597501782        4.5620122997       10.8412629352  CLST         845          1.0000000000
      2534       845  TIP3  H1          -14.6305379254        3.7628530115       11.3783864489  CLST         845          1.0000000000
      2535       845  TIP3  H2          -13.9573124175        5.1004834706       11.0062177300  CLST         845          1.0000000000
      2536       846  TIP3  OH2         -11.1291894837       -7.7530812499        2.5032193288  CLST         846          1.0000000000
      2537       846  TIP3  H1          -11.9199747522       -8.1898637771        2.8477670313  CLST         846          1.0000000000
      2538       846  TIP3  H2          -11.7339801925       -7.0228931528        2.2138981218  CLST         846          1.0000000000
      2539       847  TIP3  OH2           4.9636672406        9.7564352137        5.2520903741  CLST         847          1.0000000000
      2540       847  TIP3  H1            4.8741407824       10.6917552365        5.3555599026  CLST         847          1.0000000000
      2541       847  TIP3  H2            5.6823036346        9.7774613764        5.8881378153  CLST         847          1.0000000000
      2542       848  TIP3  OH2          -9.2566403607        5.6980891597       -9.7625539730  CLST         848          1.0000000000
      2543       848  TIP3  H1          -10.0309517833        5.3488927473      -10.1285882415  CLST         848          1.0000000000
      2544       848  TIP3  H2           -9.6768293695        6.5430356294       -9.5438785721  CLST         848          1.0000000000
      2545       849  TIP3  OH2          -1.5786166237        1.8792429583        0.2629937232  CLST         849          1.0000000000
      2546       849  TIP3  H1           -0.7121886273        2.3056987381        0.3481856365  CLST         849          1.0000000000
      2547       849  TIP3  H2           -1.3470998424        1.7889115027       -0.6764967805  CLST         849          1.0000000000
      2548       850  TIP3  OH2           5.2663572391       -6.3610195313        5.7874512957  CLST         850          1.0000000000
      2549       850  TIP3  H1            4.5004487274       -6.2097025104        6.2949534609  CLST         850          1.0000000000
      2550       850  TIP3  H2            5.7198523498       -5.5836563255        6.0076692804  CLST         850          1.0000000000
      2551       851  TIP3  OH2           8.2475134677        6.3660928983        5.3637204066  CLST         851          1.0000000000
      2552       851  TIP3  H1            8.4915665225        6.6888597650        6.2095465177  CLST         851          1.0000000000
      2553       851  TIP3  H2            8.6097547074        7.1718496384        4.9407717799  CLST         851          1.0000000000
      2554       852  TIP3  OH2           9.5000745068        3.9664744128        1.5457794374  CLST         852          1.0000000000
      2555       852  TIP3  H1            9.6306741693        3.8134815831        2.4689275975  CLST         852          1.0000000000
      2556       852  TIP3  H2            8.6437853019        4.2567752336        1.6819285185  CLST         852          1.0000000000
      2557       853  TIP3  OH2           8.7924610831       -5.1506917170       -3.1822001119  CLST         853          1.0000000000
      2558       853  TIP3  H1            8.3616971099       -5.0020948994       -4.0337017568  CLST         853          1.0000000000
      2559       853  TIP3  H2            8.0574719094       -4.6864202007       -2.7786022790  CLST         853          1.0000000000
      2560       854  TIP3  OH2         -10.6878498402       -9.2002133613       -5.8949349924  CLST         854          1.0000000000
      2561       854  TIP3  H1           -9.9826450724       -8.5965536025       -5.9696791485  CLST         854          1.0000000000
      2562       854  TIP3  H2          -10.6661717317       -9.1344239666       -4.9513986750  CLST         854          1.0000000000
      2563       855  TIP3  OH2           2.5360246191       -3.1948727078       -6.7767085970  CLST         855          1.0000000000
      2564       855  TIP3  H1            2.0421292547       -2.7728808391       -6.0778032950  CLST         855          1.0000000000
      2565       855  TIP3  H2            2.8132085595       -2.4187974542       -7.2454833312  CLST         855          1.0000000000
      2566       856  TIP3  OH2           3.0574258668      -12.8809168497        0.2652035028  CLST         856          1.0000000000
      2567       856  TIP3  H1            3.8577768504      -12.3284025605        0.1019784150  CLST         856          1.0000000000
      2568       856  TIP3  H2            3.6773994294      -13.4700830184        0.7546006192  CLST         856          1.0000000000
      2569       857  TIP3  OH2          -3.0597883290       -5.7932338639       11.0536893535  CLST         857          1.0000000000
      2570       857  TIP3  H1           -3.3921237024       -5.9073770270       11.9222005434  CLST         857          1.0000000000
      2571       857  TIP3  H2           -3.0345676766       -4.8338406687       11.1718901882  CLST         857          1.0000000000
      2572       858  TIP3  OH2           6.2040620611      -14.4036015417       12.8945324594  CLST         858          1.0000000000
      2573       858  TIP3  H1            6.7546056681      -15.0082484697       13.3651105069  CLST         858          1.0000000000
      2574       858  TIP3  H2            5.3619954508      -14.4394359486       13.1988677224  CLST         858          1.0000000000
      2575       859  TIP3  OH2          -8.7372381667       -1.6021735926      -12.9240421504  CLST         859          1.0000000000
      2576       859  TIP3  H1           -7.9613951657       -2.1012218653      -13.1379516375  CLST         859          1.0000000000
      2577       859  TIP3  H2           -8.2079242324       -1.1288854890      -12.2608436529  CLST         859          1.0000000000
      2578       860  TIP3  OH2          -9.9221063065       -6.2469473625       -1.0696344751  CLST         860          1.0000000000
      2579       860  TIP3  H1           -9.9839190116       -5.5767656081       -1.7663877939  CLST         860          1.0000000000
      2580       860  TIP3  H2           -9.0946408640       -6.6216297143       -1.3150237771  CLST         860          1.0000000000
      2581       861  TIP3  OH2           5.0451805483      -10.1950747261       -4.4984637691  CLST         861          1.0000000000
      2582       861  TIP3  H1            4.5978172317      -10.3511094826       -3.6346661972  CLST         861          1.0000000000
      2583       861  TIP3  H2            4.8039278660      -11.1153695638       -4.6921743619  CLST         861          1.0000000000
      2584       862  TIP3  OH2         -11.0655451524       -2.8673264578      -12.6319530154  CLST         862          1.0000000000
      2585       862  TIP3  H1          -10.3479269061       -2.2467553979      -12.7666415978  CLST         862          1.0000000000
      2586       862  TIP3  H2          -10.6501386138       -3.0743404726      -11.8117626375  CLST         862          1.0000000000
      2587       863  TIP3  OH2          10.9396180684      -10.5357636423       -8.6173296543  CLST         863          1.0000000000
      2588       863  TIP3  H1           11.8299917081      -10.4400152325       -8.2471251721  CLST         863          1.0000000000
      2589       863  TIP3  H2           11.4146667596      -10.8729810816       -9.4066732025  CLST         863          1.0000000000
      2590       864  TIP3  OH2         -13.5891430211        3.5197638693        3.1992918691  CLST         864          1.0000000000
      2591       864  TIP3  H1          -14.4227506643        3.5621852067        3.6524781507  CLST         864          1.0000000000
      2592       864  TIP3  H2          -13.7815147170        4.5015969585        3.0036044033  CLST         864          1.0000000000
      2593       865  TIP3  OH2          12.7717835367        8.6593703705      -11.3822583177  CLST         865          1.0000000000
      2594       865  TIP3  H1           13.3913883113        8.0181940532      -11.6323026708  CLST         865          1.0000000000
      2595       865  TIP3  H2           12.9649470083        8.6011778809      -10.4274581999  CLST         865          1.0000000000
      2596       866  TIP3  OH2           6.6157693666      -10.3386594306       -8.4156410074  CLST         866          1.0000000000
      2597       866  TIP3  H1            6.2269741012      -11.1867523023       -8.0656168822  CLST         866          1.0000000000
      2598       866  TIP3  H2            7.0362043625      -10.8248740007       -9.1027133842  CLST         866          1.0000000000
      2599       867  TIP3  OH2          -8.3449540935       12.2322430835       -3.2108670535  CLST         867          1.0000000000
      2600       867  TIP3  H1           -9.2103840996       12.1803518454       -2.7548382753  CLST         867          1.0000000000
      2601       867  TIP3  H2           -7.9878010379       12.8064535437       -2.5005592902  CLST         867          1.0000000000
      2602       868  TIP3  OH2          -9.6220192730       13.1277789786       10.1884617319  CLST         868          1.0000000000
      2603       868  TIP3  H1           -8.9265512178       12.6617757004       10.6143611472  CLST         868          1.0000000000
      2604       868  TIP3  H2           -8.9495033131       13.7218339387        9.8730272604  CLST         868          1.0000000000
      2605       869  TIP3  OH2           3.3951367807       -1.6829906207        1.1686032884  CLST         869          1.0000000000
      2606       869  TIP3  H1            2.5071901790       -2.1161928512        1.0641373006  CLST         869          1.0000000000
      2607       869  TIP3  H2            3.0032663375       -1.2697407349        1.9600602951  CLST         869          1.0000000000
      2608       870  TIP3  OH2          -6.9513082579       -3.6768054571      -13.0874414157  CLST         870          1.0000000000
      2609       870  TIP3  H1           -6.0950340927       -3.5867535254      -12.7130251422  CLST         870          1.0000000000
      2610       870  TIP3  H2           -6.5483514737       -3.9819939159      -13.9200508135  CLST         870          1.0000000000
      2611       871  TIP3  OH2          -7.1557615279        2.2051471971       -9.8858961056  CLST         871          1.0000000000
      2612       871  TIP3  H1           -7.3946165186        2.7942228002      -10.5394565030  CLST         871          1.0000000000
      2613       871  TIP3  H2           -8.0594110285        2.2122252816       -9.6080949724  CLST         871          1.0000000000
      2614       872  TIP3  OH2         -13.1473460151       11.4411218307       -9.8691888785  CLST         872          1.0000000000
      2615       872  TIP3  H1          -13.1455522259       11.5448372580      -11.0386077214  CLST         872          1.0000000000
      2616       872  TIP3  H2          -13.1601612302       10.7178064510      -10.3832074904  CLST         872          1.0000000000
      2617       873  TIP3  OH2          12.1147277276       -4.1646612554       -9.9768919397  CLST         873          1.0000000000
      2618       873  TIP3  H1           11.7908284818       -3.3003009706      -10.1171986908  CLST         873          1.0000000000
      2619       873  TIP3  H2           12.1973049792       -4.3402721735      -10.9570258709  CLST         873          1.0000000000
      2620       874  TIP3  OH2          12.8898951450        8.4700796485       -8.5945307225  CLST         874          1.0000000000
      2621       874  TIP3  H1           13.1046004930        7.7609921968       -7.8740979957  CLST         874          1.0000000000
      2622       874  TIP3  H2           11.9023793717        8.3400640053       -8.5722087229  CLST         874          1.0000000000
      2623       875  TIP3  OH2           1.2609319391       -1.5475294259      -12.4694838636  CLST         875          1.0000000000
      2624       875  TIP3  H1            2.1691608455       -1.7043494005      -12.6880918108  CLST         875          1.0000000000
      2625       875  TIP3  H2            0.9515169719       -1.4811775564      -13.3259060985  CLST         875          1.0000000000
      2626       876  TIP3  OH2           9.0215316011        7.1887552016      -11.8914681102  CLST         876          1.0000000000
      2627       876  TIP3  H1            8.8297104816        6.8430762605      -12.8233650629  CLST         876          1.0000000000
      2628       876  TIP3  H2            8.1447329020        6.8854730961      -11.7357823283  CLST         876          1.0000000000
      2629       877  TIP3  OH2          -7.0863365991      -13.2233705090       -5.0819795894  CLST         877          1.0000000000
      2630       877  TIP3  H1           -7.7015016053      -12.8093540603       -4.5157801248  CLST         877          1.0000000000
      2631       877  TIP3  H2           -6.4222842125      -12.5461343805       -4.9052837704  CLST         877          1.0000000000
      2632       878  TIP3  OH2           5.7075346673      -11.1546162961        6.8758664661  CLST         878          1.0000000000
      2633       878  TIP3  H1            5.2816504607      -11.4348340803        6.0373233225  CLST         878          1.0000000000
      2634       878  TIP3  H2            5.1298962958      -10.4061643937        6.8089463162  CLST         878          1.0000000000
      2635       879  TIP3  OH2           2.8277978780        5.2246164241       -7.2847781983  CLST         879          1.0000000000
      2636       879  TIP3  H1            3.2715864953        6.0550591095       -7.5686462478  CLST         879          1.0000000000
      2637       879  TIP3  H2            3.4524549695        5.1649628861       -6.6050425157  CLST         879          1.0000000000
      2638       880  TIP3  OH2          -5.4898600607       -1.7637825475       14.8893008024  CLST         880          1.0000000000
      2639       880  TIP3  H1           -6.1109053561       -2.4197024208       14.5373844584  CLST         880          1.0000000000
      2640       880  TIP3  H2           -5.8065459875       -1.0905814346       14.2204534081  CLST         880          1.0000000000
      2641       881  TIP3  OH2          -0.5444540720       13.5588356569        8.5116563761  CLST         881          1.0000000000
      2642       881  TIP3  H1           -0.1247128755       13.4961287443        7.6778255416  CLST         881          1.0000000000
      2643       881  TIP3  H2           -1.3763555114       13.1954693499        8.2569387342  CLST         881          1.0000000000
      2644       882  TIP3  OH2          12.1998999436       -1.9652703286       -1.4537003509  CLST         882          1.0000000000
      2645       882  TIP3  H1           11.3282846582       -2.1266219609       -1.7846158730  CLST         882          1.0000000000
      2646       882  TIP3  H2           11.9640022470       -2.1589950527       -0.5212824797  CLST         882          1.0000000000
      2647       883  TIP3  OH2           1.6792372576       -9.6075619139       -4.4868649567  CLST         883          1.0000000000
      2648       883  TIP3  H1            2.3854998095       -9.5231333640       -3.8772009730  CLST         883          1.0000000000
      2649       883  TIP3  H2            2.2939620803       -9.4144005310       -5.1853444251  CLST         883          1.0000000000
      2650       884  TIP3  OH2         -14.0908233283       -5.7775743989      -12.9947051380  CLST         884          1.0000000000
      2651       884  TIP3  H1          -13.4819210048       -6.7617787169      -12.9764616902  CLST         884          1.0000000000
      2652       884  TIP3  H2          -14.5530233814       -6.6355554746      -12.7276999329  CLST         884          1.0000000000
      2653       885  TIP3  OH2           0.8040322714       14.6828064981       -0.5328202971  CLST         885          1.0000000000
      2654       885  TIP3  H1           -0.1336080114       14.5217734226       -0.4052216083  CLST         885          1.0000000000
      2655       885  TIP3  H2            1.0806745665       13.9528201555        0.0064983101  CLST         885          1.0000000000
      2656       886  TIP3  OH2          12.0129538289       10.0018063881        3.9636055656  CLST         886          1.0000000000
      2657       886  TIP3  H1           12.1034467817        9.1678935403        4.8013617393  CLST         886          1.0000000000
      2658       886  TIP3  H2           11.7841582678       10.2212764985        4.9100487519  CLST         886          1.0000000000
      2659       887  TIP3  OH2          -7.3083397125       -7.9885961218       -1.8265314142  CLST         887          1.0000000000
      2660       887  TIP3  H1           -6.9788193956       -8.8929387629       -2.0462850180  CLST         887          1.0000000000
      2661       887  TIP3  H2           -6.3768172389       -7.7262077631       -1.6154159051  CLST         887          1.0000000000
      2662       888  TIP3  OH2         -13.1107053893       -2.9598802276       10.4612332303  CLST         888          1.0000000000
      2663       888  TIP3  H1          -13.6192829749       -2.7414512804       11.2488011826  CLST         888          1.0000000000
      2664       888  TIP3  H2          -12.4642935592       -2.2548703815       10.6845737409  CLST         888          1.0000000000
      2665       889  TIP3  OH2           4.8118975294      -12.9058875552        8.7632259241  CLST         889          1.0000000000
      2666       889  TIP3  H1            5.3088524796      -12.4998536950        8.0225572026  CLST         889          1.0000000000
      2667       889  TIP3  H2            4.9073912414      -12.0657632379        9.2442515646  CLST         889          1.0000000000
      2668       890  TIP3  OH2         -13.5002558941        5.7821237169       -9.5334710365  CLST         890          1.0000000000
      2669       890  TIP3  H1          -13.5005648161        6.5503388636      -10.0312062421  CLST         890          1.0000000000
      2670       890  TIP3  H2          -14.3765071526        6.0541132768       -9.1984687086  CLST         890          1.0000000000
      2671       891  TIP3  OH2         -12.7071286022       -5.8197969059       10.8133253477  CLST         891          1.0000000000
      2672       891  TIP3  H1          -12.9361744980       -4.9165604449       10.6670562507  CLST         891          1.0000000000
      2673       891  TIP3  H2          -12.6964043042       -5.9271298713        9.8782939940  CLST         891          1.0000000000
      2674       892  TIP3  OH2           3.1310033562       13.6624302824       13.4914797813  CLST         892          1.0000000000
      2675       892  TIP3  H1            2.7347235274       14.2549653782       14.1290476586  CLST         892          1.0000000000
      2676       892  TIP3  H2            3.4097903867       13.0629094897       14.1592715901  CLST         892          1.0000000000
      2677       893  TIP3  OH2          -0.2929558397        7.3046057772        3.0242734290  CLST         893          1.0000000000
      2678       893  TIP3  H1           -0.8945623741        6.5929060779        3.0110493363  CLST         893          1.0000000000
      2679       893  TIP3  H2           -0.8576579121        7.7812424325        2.4510213624  CLST         893          1.0000000000
      2680       894  TIP3  OH2           9.3434060823       11.2619911092        0.4326175704  CLST         894          1.0000000000
      2681       894  TIP3  H1            9.8438454890       11.8713347609        0.8992905640  CLST         894          1.0000000000
      2682       894  TIP3  H2            8.5427773034       11.5807873536        0.0531756672  CLST         894          1.0000000000
      2683       895  TIP3  OH2          -9.9329420836       10.5236053673      -10.7189824199  CLST         895          1.0000000000
      2684       895  TIP3  H1          -10.1728586596       11.2284417549      -10.1399610901  CLST         895          1.0000000000
      2685       895  TIP3  H2           -9.1398406747       11.1109046243      -10.9113643002  CLST         895          1.0000000000
      2686       896  TIP3  OH2           7.9842069399       -6.9003797594       -0.3201143981  CLST         896          1.0000000000
      2687       896  TIP3  H1            7.4112661424       -6.7085911383       -1.0229794129  CLST         896          1.0000000000
      2688       896  TIP3  H2            8.6840355247       -7.2504482528       -0.8512868920  CLST         896          1.0000000000
      2689       897  TIP3  OH2           9.5825931048       -2.3180753658       -9.0975381311  CLST         897          1.0000000000
      2690       897  TIP3  H1            9.6361413667       -2.7352887185       -8.2562094186  CLST         897          1.0000000000
      2691       897  TIP3  H2            9.4786783192       -1.4870757400       -8.6563149523  CLST         897          1.0000000000
      2692       898  TIP3  OH2          13.7861367088        6.0169163631      -11.9140663861  CLST         898          1.0000000000
      2693       898  TIP3  H1           14.2600809963        5.3717436862      -11.3496852968  CLST         898          1.0000000000
      2694       898  TIP3  H2           12.9545416951        5.7777304702      -11.4417864622  CLST         898          1.0000000000
      2695       899  TIP3  OH2          14.2632525499       -6.5426407078        1.7755614853  CLST         899          1.0000000000
      2696       899  TIP3  H1           14.2757619740       -7.5070719486        1.7447088705  CLST         899          1.0000000000
      2697       899  TIP3  H2           13.6506994414       -6.4265075896        2.5328768140  CLST         899          1.0000000000
      2698       900  TIP3  OH2          -9.7457296199      -10.0918783841        9.9819282480  CLST         900          1.0000000000
      2699       900  TIP3  H1           -9.7335298668       -9.1724197997       10.3310730325  CLST         900          1.0000000000
      2700       900  TIP3  H2           -8.9514203487      -10.1011279459        9.3930191450  CLST         900          1.0000000000
      2701       901  TIP3  OH2          10.1040402347        8.6182094198       -8.5666222666  CLST         901          1.0000000000
      2702       901  TIP3  H1           10.2423589830        9.4370935899       -9.1015759813  CLST         901          1.0000000000
      2703       901  TIP3  H2            9.2351455248        8.5106676216       -8.9052691339  CLST         901          1.0000000000
      2704       902  TIP3  OH2           3.7233463040        0.3715470818        9.8912664461  CLST         902          1.0000000000
      2705       902  TIP3  H1            4.1536870059       -0.0586283563        9.1485329355  CLST         902          1.0000000000
      2706       902  TIP3  H2            3.2701721096        1.0201782606        9.3342040293  CLST         902          1.0000000000
      2707       903  TIP3  OH2          -0.9488292805        0.7089399688       -8.3180445018  CLST         903          1.0000000000
      2708       903  TIP3  H1           -0.7398951006        0.5227985814       -9.2768197318  CLST         903          1.0000000000
      2709       903  TIP3  H2           -0.3636223652        0.0659210419       -7.9683555125  CLST         903          1.0000000000
