* Geometry rescue: EQUI at step 2000
*
        2709  EXT
         1         1  TIP3  OH2           5.3884640856        0.9681538910       -3.5648482878  CLST           1          1.0000000000
         2         1  TIP3  H1            5.2808068162        0.5141329335       -2.6894547127  CLST           1          1.0000000000
         3         1  TIP3  H2            4.4149670681        0.9966970025       -3.8595300171  CLST           1          1.0000000000
         4         2  TIP3  OH2          14.7442935300       -2.0548565442       -1.3617837611  CLST           2          1.0000000000
         5         2  TIP3  H1           13.7649301670       -1.9221421038       -1.2859365541  CLST           2          1.0000000000
         6         2  TIP3  H2           14.7530923951       -3.0680522765       -1.3539469154  CLST           2          1.0000000000
         7         3  TIP3  OH2          -8.3334501405       -6.5809687232       -7.5729601801  CLST           3          1.0000000000
         8         3  TIP3  H1           -9.3099638490       -6.3176968152       -7.5190360568  CLST           3          1.0000000000
         9         3  TIP3  H2           -8.2800313699       -6.6876002461       -8.5812891709  CLST           3          1.0000000000
        10         4  TIP3  OH2          -9.3241148134       -3.9195302936       12.8790274042  CLST           4          1.0000000000
        11         4  TIP3  H1          -10.1696690619       -4.3540298280       13.0199259745  CLST           4          1.0000000000
        12         4  TIP3  H2           -9.1614195095       -4.1244539027       11.9436515494  CLST           4          1.0000000000
        13         5  TIP3  OH2          -3.3490812309      -10.1292893942       14.4029277632  CLST           5          1.0000000000
        14         5  TIP3  H1           -3.8253762930      -10.8337086695       14.8745355003  CLST           5          1.0000000000
        15         5  TIP3  H2           -3.4185488337      -10.4481391646       13.4562175907  CLST           5          1.0000000000
        16         6  TIP3  OH2          -3.4376590082        9.6152229941       14.1026931208  CLST           6          1.0000000000
        17         6  TIP3  H1           -2.5256923629        9.8922275264       13.8278161485  CLST           6          1.0000000000
        18         6  TIP3  H2           -3.3380255426        9.6226057855       15.0710695723  CLST           6          1.0000000000
        19         7  TIP3  OH2          -5.0566091535       -1.4456912529        8.7370317186  CLST           7          1.0000000000
        20         7  TIP3  H1           -4.4369883131       -1.1741434652        8.0027154552  CLST           7          1.0000000000
        21         7  TIP3  H2           -5.3708900412       -2.2778145950        8.2485153782  CLST           7          1.0000000000
        22         8  TIP3  OH2          -7.2871873166       -4.5855822150       -1.1570649677  CLST           8          1.0000000000
        23         8  TIP3  H1           -7.3564242688       -4.8208180445       -0.1973546658  CLST           8          1.0000000000
        24         8  TIP3  H2           -6.3078147023       -4.7183495748       -1.2883972433  CLST           8          1.0000000000
        25         9  TIP3  OH2         -13.0337419927       -5.2878194941        0.2776370886  CLST           9          1.0000000000
        26         9  TIP3  H1          -13.9652242961       -5.1244844014       -0.0511728205  CLST           9          1.0000000000
        27         9  TIP3  H2          -12.7601131105       -4.3205129609        0.3036004732  CLST           9          1.0000000000
        28        10  TIP3  OH2          -4.4605868021        8.0558988120       -8.6292865848  CLST          10          1.0000000000
        29        10  TIP3  H1           -4.5320180552        9.0514667433       -8.6694161158  CLST          10          1.0000000000
        30        10  TIP3  H2           -3.4951416008        7.9294812091       -8.8408770524  CLST          10          1.0000000000
        31        11  TIP3  OH2           6.0161586560       12.6589876641       10.7245133300  CLST          11          1.0000000000
        32        11  TIP3  H1            5.4270842785       13.4021979915       10.8326302188  CLST          11          1.0000000000
        33        11  TIP3  H2            5.5163982257       11.8535484864       11.0934075597  CLST          11          1.0000000000
        34        12  TIP3  OH2         -11.9122260215      -13.1903340574       -3.2626478052  CLST          12          1.0000000000
        35        12  TIP3  H1          -12.5239082555      -12.5342812964       -2.8044551582  CLST          12          1.0000000000
        36        12  TIP3  H2          -12.3816067506      -13.3452074392       -4.0928133489  CLST          12          1.0000000000
        37        13  TIP3  OH2          -0.6447416148      -11.1523072071        2.9312162007  CLST          13          1.0000000000
        38        13  TIP3  H1            0.2815815528      -11.3593654773        2.5829697479  CLST          13          1.0000000000
        39        13  TIP3  H2           -0.3053937353      -10.7150966188        3.7277007833  CLST          13          1.0000000000
        40        14  TIP3  OH2          -1.5719544322        5.2267383292        7.8571154310  CLST          14          1.0000000000
        41        14  TIP3  H1           -1.7144580230        5.0752140845        8.8460918823  CLST          14          1.0000000000
        42        14  TIP3  H2           -0.6584271395        4.8331767803        7.7886369651  CLST          14          1.0000000000
        43        15  TIP3  OH2           1.0484141223       -1.1303665231       -4.6961786327  CLST          15          1.0000000000
        44        15  TIP3  H1            0.3540578618       -0.6888845226       -4.1099538750  CLST          15          1.0000000000
        45        15  TIP3  H2            1.3337664786       -1.8006331486       -3.9973206098  CLST          15          1.0000000000
        46        16  TIP3  OH2          -4.7215996699       -6.0597902182       13.6017618705  CLST          16          1.0000000000
        47        16  TIP3  H1           -4.0449018772       -6.7759802072       13.6831411726  CLST          16          1.0000000000
        48        16  TIP3  H2           -5.1088808495       -6.1215906590       14.5217659133  CLST          16          1.0000000000
        49        17  TIP3  OH2           8.3824259605       -0.5384264253        2.7213842581  CLST          17          1.0000000000
        50        17  TIP3  H1            7.7476602722       -1.2556527049        2.9741228162  CLST          17          1.0000000000
        51        17  TIP3  H2            9.0404577721       -1.0504081632        2.2023806222  CLST          17          1.0000000000
        52        18  TIP3  OH2           2.8100704979       -8.5417896885       -8.5665255578  CLST          18          1.0000000000
        53        18  TIP3  H1            2.9962010652       -7.7062176995       -8.0724569757  CLST          18          1.0000000000
        54        18  TIP3  H2            2.8858261895       -9.2149899356       -7.8735459772  CLST          18          1.0000000000
        55        19  TIP3  OH2           6.7316846615        7.7425779556       14.3099788942  CLST          19          1.0000000000
        56        19  TIP3  H1            7.2916338969        7.1413008587       14.8275152323  CLST          19          1.0000000000
        57        19  TIP3  H2            6.6074947478        8.4935968812       14.9610676151  CLST          19          1.0000000000
        58        20  TIP3  OH2           4.0664202457        9.4479500392        8.9865400255  CLST          20          1.0000000000
        59        20  TIP3  H1            3.4298993288       10.0835159990        8.5512717340  CLST          20          1.0000000000
        60        20  TIP3  H2            3.5617302933        8.6688004740        8.6775305951  CLST          20          1.0000000000
        61        21  TIP3  OH2           0.6892453646       -8.3666178178        1.0363861601  CLST          21          1.0000000000
        62        21  TIP3  H1            0.7682373209       -8.1822985631        2.0036610132  CLST          21          1.0000000000
        63        21  TIP3  H2           -0.2519570886       -8.6678594935        1.0222404260  CLST          21          1.0000000000
        64        22  TIP3  OH2          11.4553583566       -9.3128268069       10.2025162294  CLST          22          1.0000000000
        65        22  TIP3  H1           11.1731506682       -8.9315188824        9.3327017795  CLST          22          1.0000000000
        66        22  TIP3  H2           10.6973351040       -9.9320184675       10.2952798652  CLST          22          1.0000000000
        67        23  TIP3  OH2          12.1682996032      -14.2711881267      -10.6767881232  CLST          23          1.0000000000
        68        23  TIP3  H1           11.7544020108      -15.0710695723      -10.3250236153  CLST          23          1.0000000000
        69        23  TIP3  H2           12.7384146041      -14.1877994692       -9.8387220406  CLST          23          1.0000000000
        70        24  TIP3  OH2          12.7466974416       -7.3202815888       14.3090139936  CLST          24          1.0000000000
        71        24  TIP3  H1           12.2225302864       -7.3600575672       13.5178886173  CLST          24          1.0000000000
        72        24  TIP3  H2           12.1082994050       -7.1997479430       15.0290350397  CLST          24          1.0000000000
        73        25  TIP3  OH2           0.2517850966       -5.7033735010        5.6878526097  CLST          25          1.0000000000
        74        25  TIP3  H1           -0.3936708081       -5.4671743252        4.9782472874  CLST          25          1.0000000000
        75        25  TIP3  H2           -0.1046859713       -6.5080037600        6.0849936167  CLST          25          1.0000000000
        76        26  TIP3  OH2          -5.5724303031       -5.5876620486       -7.9638464146  CLST          26          1.0000000000
        77        26  TIP3  H1           -6.4263776728       -6.0473057403       -7.9297025541  CLST          26          1.0000000000
        78        26  TIP3  H2           -5.3477315140       -5.7666558781       -8.9073772261  CLST          26          1.0000000000
        79        27  TIP3  OH2           3.9455167482       12.4071229181       -0.8444809981  CLST          27          1.0000000000
        80        27  TIP3  H1            4.8693276478       12.1501177745       -0.6728810861  CLST          27          1.0000000000
        81        27  TIP3  H2            3.9925085755       13.3988863766       -0.8828238676  CLST          27          1.0000000000
        82        28  TIP3  OH2          -5.0049870889       -6.3077841596        6.8391590499  CLST          28          1.0000000000
        83        28  TIP3  H1           -4.0533693275       -6.4658220854        6.6269962207  CLST          28          1.0000000000
        84        28  TIP3  H2           -5.4421458971       -6.7492164405        6.0984956024  CLST          28          1.0000000000
        85        29  TIP3  OH2           3.8834320390      -10.1169606023       13.5663547608  CLST          29          1.0000000000
        86        29  TIP3  H1            4.7326786845       -9.7348101315       13.2576413036  CLST          29          1.0000000000
        87        29  TIP3  H2            3.3596474066       -9.3242046193       13.2180803386  CLST          29          1.0000000000
        88        30  TIP3  OH2          -0.7481586713       -3.5701514040       11.7727905781  CLST          30          1.0000000000
        89        30  TIP3  H1           -1.2964661674       -4.0301038755       12.4107786052  CLST          30          1.0000000000
        90        30  TIP3  H2           -0.1925341004       -3.0175100125       12.3760388307  CLST          30          1.0000000000
        91        31  TIP3  OH2          -5.3916013517      -10.1241595326       -9.8943284844  CLST          31          1.0000000000
        92        31  TIP3  H1           -6.3587106635      -10.0006019305       -9.6739847867  CLST          31          1.0000000000
        93        31  TIP3  H2           -5.1172492433       -9.3713588347       -9.3220070659  CLST          31          1.0000000000
        94        32  TIP3  OH2           4.5471349202        6.2651740978       15.0700653228  CLST          32          1.0000000000
        95        32  TIP3  H1            5.2238817774        6.7826501979       14.5590677880  CLST          32          1.0000000000
        96        32  TIP3  H2            3.8203707660        6.4343280901       14.4590906153  CLST          32          1.0000000000
        97        33  TIP3  OH2           1.8843498633       -5.4294303048       11.9552268136  CLST          33          1.0000000000
        98        33  TIP3  H1            1.7229223622       -4.7337591928       12.6172026254  CLST          33          1.0000000000
        99        33  TIP3  H2            1.9546234803       -4.8994699299       11.1392137654  CLST          33          1.0000000000
       100        34  TIP3  OH2         -12.4723043059       -6.5417233374        5.5603934614  CLST          34          1.0000000000
       101        34  TIP3  H1          -12.3523188310       -6.0692980254        4.6666828906  CLST          34          1.0000000000
       102        34  TIP3  H2          -13.4409442306       -6.3059086916        5.5937852014  CLST          34          1.0000000000
       103        35  TIP3  OH2         -12.5732534837        9.1909339808       14.1512725153  CLST          35          1.0000000000
       104        35  TIP3  H1          -13.2241563714        9.6760260292       13.5388435532  CLST          35          1.0000000000
       105        35  TIP3  H2          -13.0732561285        9.1584080261       14.9965165520  CLST          35          1.0000000000
       106        36  TIP3  OH2           6.6684667366       -8.6141814617      -11.6676377392  CLST          36          1.0000000000
       107        36  TIP3  H1            7.3081100728       -9.0600016794      -11.0590383715  CLST          36          1.0000000000
       108        36  TIP3  H2            6.9580370698       -9.0414078873      -12.5259031388  CLST          36          1.0000000000
       109        37  TIP3  OH2          10.5620079048      -11.9474243151        6.6437850719  CLST          37          1.0000000000
       110        37  TIP3  H1            9.7491388163      -11.6031195200        7.0244274167  CLST          37          1.0000000000
       111        37  TIP3  H2           10.9875465480      -12.3709687378        7.3869110119  CLST          37          1.0000000000
       112        38  TIP3  OH2           5.8129705648      -12.1638252420       -0.7691021507  CLST          38          1.0000000000
       113        38  TIP3  H1            6.5595482614      -12.6277975056       -0.4082806323  CLST          38          1.0000000000
       114        38  TIP3  H2            5.7123895077      -12.5187048620       -1.6553141267  CLST          38          1.0000000000
       115        39  TIP3  OH2          13.1898820302        6.4693685671       -6.7362487705  CLST          39          1.0000000000
       116        39  TIP3  H1           13.3807151677        5.5795014360       -7.1173947228  CLST          39          1.0000000000
       117        39  TIP3  H2           12.3003900993        6.3181485604       -6.3971352849  CLST          39          1.0000000000
       118        40  TIP3  OH2          -4.7221080788       14.2078768004       -5.9017038800  CLST          40          1.0000000000
       119        40  TIP3  H1           -5.4132848174       14.2727473194       -5.2594189904  CLST          40          1.0000000000
       120        40  TIP3  H2           -4.1623712801       13.5482534118       -5.4351289255  CLST          40          1.0000000000
       121        41  TIP3  OH2          11.1283679165        5.6249400710      -11.0975216651  CLST          41          1.0000000000
       122        41  TIP3  H1           11.0418323435        5.0243418602      -11.8741590790  CLST          41          1.0000000000
       123        41  TIP3  H2           10.4548986232        6.3074970064      -11.3345418473  CLST          41          1.0000000000
       124        42  TIP3  OH2          -1.0794093471       -6.8269218696       -2.4334629261  CLST          42          1.0000000000
       125        42  TIP3  H1           -1.4536321305       -6.0979512254       -2.9638754383  CLST          42          1.0000000000
       126        42  TIP3  H2           -1.0636619437       -7.4914739705       -3.2091480147  CLST          42          1.0000000000
       127        43  TIP3  OH2           9.8213865109      -10.9682001223       -1.8891950006  CLST          43          1.0000000000
       128        43  TIP3  H1            9.6275875066      -11.0545085074       -0.9245560487  CLST          43          1.0000000000
       129        43  TIP3  H2            9.3661013605      -11.8091398772       -2.1524165094  CLST          43          1.0000000000
       130        44  TIP3  OH2           0.3083216996       -3.0286255388        6.3179384963  CLST          44          1.0000000000
       131        44  TIP3  H1           -0.3636554430       -3.0739084591        7.0478917862  CLST          44          1.0000000000
       132        44  TIP3  H2            0.4065317600       -3.9861738498        6.1166896608  CLST          44          1.0000000000
       133        45  TIP3  OH2           4.6911199068       -6.3549852706        9.1924468147  CLST          45          1.0000000000
       134        45  TIP3  H1            4.4819698160       -5.3759602750        9.2052360062  CLST          45          1.0000000000
       135        45  TIP3  H2            4.9536671386       -6.3884315735       10.1597157299  CLST          45          1.0000000000
       136        46  TIP3  OH2           7.8075871138        4.8480633328       -8.0190442490  CLST          46          1.0000000000
       137        46  TIP3  H1            7.1653425406        5.1602497955       -7.3311804167  CLST          46          1.0000000000
       138        46  TIP3  H2            7.1957877865        4.9244586745       -8.8023289021  CLST          46          1.0000000000
       139        47  TIP3  OH2         -10.8222482319      -11.0297947208        3.3096615008  CLST          47          1.0000000000
       140        47  TIP3  H1          -11.4370790835      -10.4822418247        3.8627566731  CLST          47          1.0000000000
       141        47  TIP3  H2          -10.5547303867      -11.5626176453        4.1152594435  CLST          47          1.0000000000
       142        48  TIP3  OH2         -14.5357418440        9.4249834614        8.6395225398  CLST          48          1.0000000000
       143        48  TIP3  H1          -14.6115349533        9.8190814154        7.7744146848  CLST          48          1.0000000000
       144        48  TIP3  H2          -13.6313202768        9.7318650750        8.8259828398  CLST          48          1.0000000000
       145        49  TIP3  OH2           8.5756093461       -4.4549517730        4.0647165184  CLST          49          1.0000000000
       146        49  TIP3  H1            7.5946787603       -4.7084185630        3.9497972687  CLST          49          1.0000000000
       147        49  TIP3  H2            8.8266739649       -4.3730248854        3.1153024686  CLST          49          1.0000000000
       148        50  TIP3  OH2          11.1008878616        5.6709155210       -5.1664944622  CLST          50          1.0000000000
       149        50  TIP3  H1           11.4489145715        5.1839089092       -4.3696621232  CLST          50          1.0000000000
       150        50  TIP3  H2           10.2075782087        5.2284082576       -5.0823406423  CLST          50          1.0000000000
       151        51  TIP3  OH2          12.7836873386       -1.3146329989      -10.5957758386  CLST          51          1.0000000000
       152        51  TIP3  H1           13.1425474361       -2.0492229627      -11.1863072076  CLST          51          1.0000000000
       153        51  TIP3  H2           12.5105142172       -0.6326974639      -11.2766889576  CLST          51          1.0000000000
       154        52  TIP3  OH2          -1.7168923152       -1.5722054245       10.0997607729  CLST          52          1.0000000000
       155        52  TIP3  H1           -2.5236322779       -1.1433813128       10.3966257227  CLST          52          1.0000000000
       156        52  TIP3  H2           -1.5421828528       -2.2562144459       10.8247367331  CLST          52          1.0000000000
       157        53  TIP3  OH2         -11.0946148656       14.2074485565       -6.9863886464  CLST          53          1.0000000000
       158        53  TIP3  H1          -11.7350639956       14.9449649937       -6.8391554221  CLST          53          1.0000000000
       159        53  TIP3  H2          -10.2861231093       14.7580869794       -6.9122141872  CLST          53          1.0000000000
       160        54  TIP3  OH2         -13.7447223062       -5.2758249993       -8.0653451953  CLST          54          1.0000000000
       161        54  TIP3  H1          -12.7453802443       -5.2799396546       -8.0735741397  CLST          54          1.0000000000
       162        54  TIP3  H2          -13.9703807158       -5.0364953273       -8.9926339685  CLST          54          1.0000000000
       163        55  TIP3  OH2           0.3307968765        9.5452773036      -10.4275884412  CLST          55          1.0000000000
       164        55  TIP3  H1           -0.4409694749        9.8572300114      -10.9402346531  CLST          55          1.0000000000
       165        55  TIP3  H2            0.6376056800       10.3725126192       -9.9824348085  CLST          55          1.0000000000
       166        56  TIP3  OH2          -1.5530651369       -5.0860358619       14.0055562715  CLST          56          1.0000000000
       167        56  TIP3  H1           -2.1361947357       -4.6349512281       14.6207692948  CLST          56          1.0000000000
       168        56  TIP3  H2           -1.8409139045       -6.0263600842       14.0034390916  CLST          56          1.0000000000
       169        57  TIP3  OH2         -10.5051956238       11.4096859245       -1.6067855283  CLST          57          1.0000000000
       170        57  TIP3  H1          -10.9269832794       11.8973528472       -0.8514196145  CLST          57          1.0000000000
       171        57  TIP3  H2          -11.3862399142       11.5035760264       -2.1803711547  CLST          57          1.0000000000
       172        58  TIP3  OH2           9.7550627971        1.4232417294        0.1493644830  CLST          58          1.0000000000
       173        58  TIP3  H1            8.8158378562        1.0773663537        0.2063143635  CLST          58          1.0000000000
       174        58  TIP3  H2            9.5485703387        2.2950347134        0.5525374719  CLST          58          1.0000000000
       175        59  TIP3  OH2         -13.2788060768       13.1027784780        5.1993807373  CLST          59          1.0000000000
       176        59  TIP3  H1          -13.1717371998       13.1833304872        4.2177398592  CLST          59          1.0000000000
       177        59  TIP3  H2          -12.3626166532       12.7608418041        5.2348540669  CLST          59          1.0000000000
       178        60  TIP3  OH2          -4.0308739150        3.1174271199        7.0520428329  CLST          60          1.0000000000
       179        60  TIP3  H1           -3.5616697557        2.3133557254        7.4006424346  CLST          60          1.0000000000
       180        60  TIP3  H2           -3.4161265235        3.8317259094        7.3055151415  CLST          60          1.0000000000
       181        61  TIP3  OH2           0.5499118048       -2.1444252974        0.4479650454  CLST          61          1.0000000000
       182        61  TIP3  H1           -0.0784448983       -1.8233392348        1.1714600999  CLST          61          1.0000000000
       183        61  TIP3  H2            0.2329642010       -3.1007909867        0.4831702939  CLST          61          1.0000000000
       184        62  TIP3  OH2          -3.8129274178        8.7861085443        4.3660030832  CLST          62          1.0000000000
       185        62  TIP3  H1           -3.3445142129        8.1595486053        4.9393253484  CLST          62          1.0000000000
       186        62  TIP3  H2           -3.0834512769        9.3939293548        4.1170260524  CLST          62          1.0000000000
       187        63  TIP3  OH2          -0.4160576253        7.7982138492       -3.1552331048  CLST          63          1.0000000000
       188        63  TIP3  H1           -0.8817767515        8.4697828309       -3.7641609818  CLST          63          1.0000000000
       189        63  TIP3  H2           -0.9978728072        7.9413988883       -2.3622505730  CLST          63          1.0000000000
       190        64  TIP3  OH2         -13.5955924962        3.4911797600       -3.4402061462  CLST          64          1.0000000000
       191        64  TIP3  H1          -12.9165276242        4.2446087247       -3.3491688128  CLST          64          1.0000000000
       192        64  TIP3  H2          -14.4466810068        3.9353412122       -3.2369934421  CLST          64          1.0000000000
       193        65  TIP3  OH2          -9.3223391658      -12.1912447968      -11.6429015060  CLST          65          1.0000000000
       194        65  TIP3  H1           -9.3596167054      -12.3237624397      -10.6612490273  CLST          65          1.0000000000
       195        65  TIP3  H2          -10.3212337083      -12.0341184103      -11.7206849057  CLST          65          1.0000000000
       196        66  TIP3  OH2          13.0262093331       -7.9109092745        3.8775908010  CLST          66          1.0000000000
       197        66  TIP3  H1           13.3983862253       -8.7264763504        3.3788457510  CLST          66          1.0000000000
       198        66  TIP3  H2           12.7940412530       -8.4155714046        4.6880848743  CLST          66          1.0000000000
       199        67  TIP3  OH2           7.4850060243       -0.7950460668       -6.3241356740  CLST          67          1.0000000000
       200        67  TIP3  H1            8.0512804570       -1.3497013583       -5.7423932527  CLST          67          1.0000000000
       201        67  TIP3  H2            8.1946403601       -0.3713525986       -6.8719770745  CLST          67          1.0000000000
       202        68  TIP3  OH2          -6.8541084772        1.2983197326        0.8189267196  CLST          68          1.0000000000
       203        68  TIP3  H1           -7.5134069625        0.6821886655        1.2963585538  CLST          68          1.0000000000
       204        68  TIP3  H2           -6.7206467295        1.8896362449        1.6469943718  CLST          68          1.0000000000
       205        69  TIP3  OH2         -11.9212278829       -0.6236457755        7.1039794627  CLST          69          1.0000000000
       206        69  TIP3  H1          -11.0241105575       -0.9550356335        7.3379673538  CLST          69          1.0000000000
       207        69  TIP3  H2          -11.8272696327        0.3599055492        7.1528950210  CLST          69          1.0000000000
       208        70  TIP3  OH2          -1.8298362334        7.5992988286       -8.2109463857  CLST          70          1.0000000000
       209        70  TIP3  H1           -0.8703014646        7.3648482240       -8.3472704055  CLST          70          1.0000000000
       210        70  TIP3  H2           -1.6342028184        8.5126718021       -7.8824961543  CLST          70          1.0000000000
       211        71  TIP3  OH2         -13.4124823061       -1.6794077563       -5.5226594226  CLST          71          1.0000000000
       212        71  TIP3  H1          -12.9425767526       -1.4540545867       -4.6828896997  CLST          71          1.0000000000
       213        71  TIP3  H2          -13.5095788945       -0.7373207509       -5.8570857278  CLST          71          1.0000000000
       214        72  TIP3  OH2          10.7992753090       -2.5227901288        4.8097734652  CLST          72          1.0000000000
       215        72  TIP3  H1           10.4391015535       -2.6397688333        3.8957448366  CLST          72          1.0000000000
       216        72  TIP3  H2           11.2401862652       -1.6657014881        4.6199952700  CLST          72          1.0000000000
       217        73  TIP3  OH2          -3.9575903819      -13.4573662108       -6.5836478790  CLST          73          1.0000000000
       218        73  TIP3  H1           -4.0087596622      -13.3542623264       -7.5439550050  CLST          73          1.0000000000
       219        73  TIP3  H2           -4.0852890468      -14.4250509820       -6.3602663832  CLST          73          1.0000000000
       220        74  TIP3  OH2          -4.5365788881       12.2547184395       -1.4268834219  CLST          74          1.0000000000
       221        74  TIP3  H1           -5.1436644377       11.6027128324       -1.8636654239  CLST          74          1.0000000000
       222        74  TIP3  H2           -5.1487692279       13.0242996415       -1.4348507888  CLST          74          1.0000000000
       223        75  TIP3  OH2          -9.7506426289        4.9590914195        5.3247276430  CLST          75          1.0000000000
       224        75  TIP3  H1           -9.0408316088        5.5577495961        5.6296924736  CLST          75          1.0000000000
       225        75  TIP3  H2          -10.3365920417        5.1436468262        6.1180241703  CLST          75          1.0000000000
       226        76  TIP3  OH2           8.5284804923       13.3774414460       -9.0978039999  CLST          76          1.0000000000
       227        76  TIP3  H1            8.6381998913       13.6657749951      -10.0402284519  CLST          76          1.0000000000
       228        76  TIP3  H2            9.4859002035       13.0861329769       -9.0417856341  CLST          76          1.0000000000
       229        77  TIP3  OH2           0.4289247061       -4.9828897161       -5.4587959979  CLST          77          1.0000000000
       230        77  TIP3  H1            0.8602947441       -4.9050149161       -6.3640270492  CLST          77          1.0000000000
       231        77  TIP3  H2           -0.3548456291       -5.5229211917       -5.7370326432  CLST          77          1.0000000000
       232        78  TIP3  OH2          -5.3372695747       -8.1363328263        1.6092916529  CLST          78          1.0000000000
       233        78  TIP3  H1           -5.1841040899       -7.6201012959        0.7682344184  CLST          78          1.0000000000
       234        78  TIP3  H2           -5.8771655987       -8.8242386119        1.1447428065  CLST          78          1.0000000000
       235        79  TIP3  OH2           7.0071527281      -14.2823389603       10.2863659440  CLST          79          1.0000000000
       236        79  TIP3  H1            6.6128919708      -14.3651982074       11.1790184253  CLST          79          1.0000000000
       237        79  TIP3  H2            6.2256780596      -13.9234736115        9.7681966894  CLST          79          1.0000000000
       238        80  TIP3  OH2           6.4506601073       -0.1435368410      -13.1032715587  CLST          80          1.0000000000
       239        80  TIP3  H1            6.6609548085        0.2383387605      -14.0054752551  CLST          80          1.0000000000
       240        80  TIP3  H2            7.3724309530       -0.0844531151      -12.7126760567  CLST          80          1.0000000000
       241        81  TIP3  OH2          -7.2797598303        1.0883545141        5.8771047143  CLST          81          1.0000000000
       242        81  TIP3  H1           -8.1927661713        1.4614782363        5.8894229598  CLST          81          1.0000000000
       243        81  TIP3  H2           -6.8639470639        1.9194947047        5.5490124853  CLST          81          1.0000000000
       244        82  TIP3  OH2           2.2019547385       -1.8833905160       10.6857952104  CLST          82          1.0000000000
       245        82  TIP3  H1            2.6839953535       -1.0812208660       10.3174994774  CLST          82          1.0000000000
       246        82  TIP3  H2            3.0154698249       -2.4767833332       10.5577328825  CLST          82          1.0000000000
       247        83  TIP3  OH2          10.2003040118        8.3417810665       -4.9360015161  CLST          83          1.0000000000
       248        83  TIP3  H1           10.6957730125        7.5061281601       -5.1895340046  CLST          83          1.0000000000
       249        83  TIP3  H2           10.5314029901        8.3352200162       -3.9963007243  CLST          83          1.0000000000
       250        84  TIP3  OH2         -13.5517501477        7.9730944439       -1.2908967887  CLST          84          1.0000000000
       251        84  TIP3  H1          -14.3034343655        7.4577064728       -0.8747490586  CLST          84          1.0000000000
       252        84  TIP3  H2          -12.8941117606        7.3252264839       -0.9420165714  CLST          84          1.0000000000
       253        85  TIP3  OH2           2.3691056629       -1.6755766086        7.5884389115  CLST          85          1.0000000000
       254        85  TIP3  H1            1.7589894711       -2.2970051868        7.1121994250  CLST          85          1.0000000000
       255        85  TIP3  H2            3.1072868827       -2.2651557150        7.7974491389  CLST          85          1.0000000000
       256        86  TIP3  OH2           8.1908753848       -9.3276596265        9.8306521348  CLST          86          1.0000000000
       257        86  TIP3  H1            8.4447631562       -8.5074310638       10.3429190651  CLST          86          1.0000000000
       258        86  TIP3  H2            7.6080330621       -9.7889840881       10.5329437799  CLST          86          1.0000000000
       259        87  TIP3  OH2           0.5714299808       -1.2781417434       12.9056270767  CLST          87          1.0000000000
       260        87  TIP3  H1            1.0686237547       -1.2756482686       12.0613604989  CLST          87          1.0000000000
       261        87  TIP3  H2            0.2894701625       -0.3081921128       12.9091452059  CLST          87          1.0000000000
       262        88  TIP3  OH2          14.3864082167      -11.3078072486        8.0343094301  CLST          88          1.0000000000
       263        88  TIP3  H1           13.4597603984      -11.5108357460        8.3924775357  CLST          88          1.0000000000
       264        88  TIP3  H2           14.7869318355      -12.1207172258        8.3519309613  CLST          88          1.0000000000
       265        89  TIP3  OH2           6.8857448739       11.6583870394       -4.0080859519  CLST          89          1.0000000000
       266        89  TIP3  H1            5.9414435287       11.6602642138       -3.7440512179  CLST          89          1.0000000000
       267        89  TIP3  H2            7.1362690893       10.8483225892       -3.4632375593  CLST          89          1.0000000000
       268        90  TIP3  OH2          14.5023659498       -4.6348094085       -0.4481933571  CLST          90          1.0000000000
       269        90  TIP3  H1           14.1226771411       -4.9875859843       -1.2915471666  CLST          90          1.0000000000
       270        90  TIP3  H2           14.2485680818       -5.4313355809        0.1397735620  CLST          90          1.0000000000
       271        91  TIP3  OH2          11.5679261114       10.7091663143       -5.8115809141  CLST          91          1.0000000000
       272        91  TIP3  H1           11.0933625486        9.9042983036       -5.4278980616  CLST          91          1.0000000000
       273        91  TIP3  H2           10.8383664380       11.3071177533       -5.9946988495  CLST          91          1.0000000000
       274        92  TIP3  OH2          -6.2471374319        3.4882997698        8.7606683827  CLST          92          1.0000000000
       275        92  TIP3  H1           -5.5880724788        3.2910397713        8.0171313112  CLST          92          1.0000000000
       276        92  TIP3  H2           -6.3556072251        2.5396040994        9.0262828304  CLST          92          1.0000000000
       277        93  TIP3  OH2           5.3361738627       -6.4910313196       11.9296622975  CLST          93          1.0000000000
       278        93  TIP3  H1            5.1716728026       -5.7177216109       12.5627433841  CLST          93          1.0000000000
       279        93  TIP3  H2            6.0581023221       -6.8832887261       12.4360027123  CLST          93          1.0000000000
       280        94  TIP3  OH2          -5.8482955721       12.0925186164        4.2728864210  CLST          94          1.0000000000
       281        94  TIP3  H1           -5.7737543076       11.8199728007        3.3123046589  CLST          94          1.0000000000
       282        94  TIP3  H2           -6.1635032240       11.1569530139        4.5101404310  CLST          94          1.0000000000
       283        95  TIP3  OH2           6.4873060953       11.3966267309       -0.3822085847  CLST          95          1.0000000000
       284        95  TIP3  H1            6.8779741186       10.8716754436       -1.1417669005  CLST          95          1.0000000000
       285        95  TIP3  H2            6.2629590737       10.6545318748        0.1857167451  CLST          95          1.0000000000
       286        96  TIP3  OH2          14.5274639914       -0.6288699967       12.1930065175  CLST          96          1.0000000000
       287        96  TIP3  H1           15.0626445176       -1.4378010190       12.3043004808  CLST          96          1.0000000000
       288        96  TIP3  H2           13.6934182555       -1.0552917404       11.8234049280  CLST          96          1.0000000000
       289        97  TIP3  OH2          -8.5497665982        9.5538428783       12.8555284529  CLST          97          1.0000000000
       290        97  TIP3  H1           -8.3830665105        8.9813689209       12.0335016431  CLST          97          1.0000000000
       291        97  TIP3  H2           -7.6225107709        9.4269075984       13.1921452280  CLST          97          1.0000000000
       292        98  TIP3  OH2           1.6098875462        4.2117212793       14.0456817405  CLST          98          1.0000000000
       293        98  TIP3  H1            2.1418000066        4.6071781966       13.3223173228  CLST          98          1.0000000000
       294        98  TIP3  H2            2.1309251344        3.3786405629       14.1122562398  CLST          98          1.0000000000
       295        99  TIP3  OH2         -12.5708475985       12.1726989698       -5.4178105393  CLST          99          1.0000000000
       296        99  TIP3  H1          -13.3523521674       12.1440264291       -6.0169220866  CLST          99          1.0000000000
       297        99  TIP3  H2          -12.0454195221       12.8411103108       -5.9299358448  CLST          99          1.0000000000
       298       100  TIP3  OH2           9.2058031354       -3.8860490867       -6.6786883529  CLST         100          1.0000000000
       299       100  TIP3  H1            8.3787157550       -4.0219411515       -6.2098780740  CLST         100          1.0000000000
       300       100  TIP3  H2            9.3338251513       -4.7953659459       -6.6214202374  CLST         100          1.0000000000
       301       101  TIP3  OH2          11.1870327097        2.0507129854      -10.1910886480  CLST         101          1.0000000000
       302       101  TIP3  H1           11.2944586840        2.7272898799       -9.5040053058  CLST         101          1.0000000000
       303       101  TIP3  H2           11.5789529948        1.3740415563       -9.6736211729  CLST         101          1.0000000000
       304       102  TIP3  OH2          -7.1131695933        2.4846872537      -13.0516980133  CLST         102          1.0000000000
       305       102  TIP3  H1           -7.9782367958        2.4715355444      -13.5152999986  CLST         102          1.0000000000
       306       102  TIP3  H2           -7.4281893835        3.3357551290      -12.7662174622  CLST         102          1.0000000000
       307       103  TIP3  OH2          -4.3826072103      -14.1073479482      -11.1850572296  CLST         103          1.0000000000
       308       103  TIP3  H1           -4.5217806519      -14.7698308391      -11.8858850786  CLST         103          1.0000000000
       309       103  TIP3  H2           -5.3344550540      -14.0227396684      -11.3402048106  CLST         103          1.0000000000
       310       104  TIP3  OH2         -10.8936749834      -11.6712445577        7.8885484835  CLST         104          1.0000000000
       311       104  TIP3  H1          -10.2103104663      -11.2317679142        7.9575169576  CLST         104          1.0000000000
       312       104  TIP3  H2          -10.8180254474      -11.1057980910        8.8236228807  CLST         104          1.0000000000
       313       105  TIP3  OH2           4.5035913011       -0.3033266181       14.0510474130  CLST         105          1.0000000000
       314       105  TIP3  H1            4.1643395327       -1.1943593417       14.2822549481  CLST         105          1.0000000000
       315       105  TIP3  H2            4.6188368263       -0.7321798729       13.2062833637  CLST         105          1.0000000000
       316       106  TIP3  OH2          14.2689223272       -1.5215232483        5.1167636992  CLST         106          1.0000000000
       317       106  TIP3  H1           14.7834477130       -0.8211318135        5.4200820321  CLST         106          1.0000000000
       318       106  TIP3  H2           13.6482186220       -0.8466634865        4.8130430501  CLST         106          1.0000000000
       319       107  TIP3  OH2           1.5632171507      -12.5431713011       -7.1382491852  CLST         107          1.0000000000
       320       107  TIP3  H1            0.8234198385      -12.0120645100       -6.8490117248  CLST         107          1.0000000000
       321       107  TIP3  H2            1.5394073067      -12.8216980335       -6.2115821191  CLST         107          1.0000000000
       322       108  TIP3  OH2          -6.9066287406       -3.8593066024       14.3965605499  CLST         108          1.0000000000
       323       108  TIP3  H1           -6.5223852989       -4.4996838936       13.7763894437  CLST         108          1.0000000000
       324       108  TIP3  H2           -7.7829981731       -4.0036607269       13.9292150335  CLST         108          1.0000000000
       325       109  TIP3  OH2          -4.1349057804       -1.0049003616       11.4439022285  CLST         109          1.0000000000
       326       109  TIP3  H1           -4.1254443301       -1.8598992859       11.8186800663  CLST         109          1.0000000000
       327       109  TIP3  H2           -4.6054144063       -1.1902549886       10.6125089615  CLST         109          1.0000000000
       328       110  TIP3  OH2           1.1761347325       -3.6153929384       -3.1988907869  CLST         110          1.0000000000
       329       110  TIP3  H1            0.8427328072       -4.0905299797       -3.9776915945  CLST         110          1.0000000000
       330       110  TIP3  H2            0.3781094089       -3.5753259138       -2.6735748677  CLST         110          1.0000000000
       331       111  TIP3  OH2          -5.0594924759       -0.8024201811       -6.1784136312  CLST         111          1.0000000000
       332       111  TIP3  H1           -4.6848472895       -0.8086623357       -7.2379103366  CLST         111          1.0000000000
       333       111  TIP3  H2           -4.1830300318       -1.3664759474       -6.5805677995  CLST         111          1.0000000000
       334       112  TIP3  OH2           2.1632456029      -12.3503433341       -4.5679357270  CLST         112          1.0000000000
       335       112  TIP3  H1            1.8719796517      -12.4283069671       -3.6380640615  CLST         112          1.0000000000
       336       112  TIP3  H2            1.7381142702      -11.5063867702       -4.3938520177  CLST         112          1.0000000000
       337       113  TIP3  OH2          14.0014674823        5.8837475651       12.3716478417  CLST         113          1.0000000000
       338       113  TIP3  H1           14.1284123637        6.8331203277       12.0809929854  CLST         113          1.0000000000
       339       113  TIP3  H2           14.5377963030        5.7490237830       11.5635017381  CLST         113          1.0000000000
       340       114  TIP3  OH2          -5.0668177296      -11.5462978264       -4.7620889426  CLST         114          1.0000000000
       341       114  TIP3  H1           -4.7315796556      -10.7383680483       -5.0779797963  CLST         114          1.0000000000
       342       114  TIP3  H2           -4.6436698612      -12.1988118234       -5.3322420763  CLST         114          1.0000000000
       343       115  TIP3  OH2           4.7433833860      -13.9601716818       -9.0559043247  CLST         115          1.0000000000
       344       115  TIP3  H1            4.2609951892      -14.4016930318       -9.9392954050  CLST         115          1.0000000000
       345       115  TIP3  H2            4.2726942906      -13.3779270969       -9.9227904855  CLST         115          1.0000000000
       346       116  TIP3  OH2           8.3081115052        5.9129190356      -14.1344545327  CLST         116          1.0000000000
       347       116  TIP3  H1            9.0676401740        5.3483977810      -14.0482977278  CLST         116          1.0000000000
       348       116  TIP3  H2            7.7190116335        5.2831515947      -13.7102001681  CLST         116          1.0000000000
       349       117  TIP3  OH2          -0.2010366488        1.4138138882       12.9871511989  CLST         117          1.0000000000
       350       117  TIP3  H1           -0.8060192653        1.7151081713       13.7107994976  CLST         117          1.0000000000
       351       117  TIP3  H2            0.4016839897        2.1415651659       13.2266738889  CLST         117          1.0000000000
       352       118  TIP3  OH2          12.5484391372       -9.7700268068       -6.8215115206  CLST         118          1.0000000000
       353       118  TIP3  H1           12.1163794534       -9.2673133248       -6.0964113195  CLST         118          1.0000000000
       354       118  TIP3  H2           13.1523327331       -9.0145701096       -6.8844814428  CLST         118          1.0000000000
       355       119  TIP3  OH2         -11.9728113533       -1.3846873077        4.3841664358  CLST         119          1.0000000000
       356       119  TIP3  H1          -11.0338267055       -1.2065050478        4.3997533947  CLST         119          1.0000000000
       357       119  TIP3  H2          -12.0651058473       -1.1790505085        5.3768390508  CLST         119          1.0000000000
       358       120  TIP3  OH2         -11.7049371561        4.1071125507       -7.8533211755  CLST         120          1.0000000000
       359       120  TIP3  H1          -12.2822550242        4.6557362312       -8.3798633840  CLST         120          1.0000000000
       360       120  TIP3  H2          -12.4890819987        3.8786639219       -7.3855215025  CLST         120          1.0000000000
       361       121  TIP3  OH2          -6.0482299427       -7.1119988911        4.1832939251  CLST         121          1.0000000000
       362       121  TIP3  H1           -5.7709663187       -7.2768167748        3.2179866593  CLST         121          1.0000000000
       363       121  TIP3  H2           -6.9180351639       -6.8383817949        3.9560709353  CLST         121          1.0000000000
       364       122  TIP3  OH2           9.4559467936       -7.1227497647       -6.2946293647  CLST         122          1.0000000000
       365       122  TIP3  H1            9.1101203808       -7.9228467990       -6.6829276360  CLST         122          1.0000000000
       366       122  TIP3  H2           10.0320932261       -7.1736398396       -7.0968252860  CLST         122          1.0000000000
       367       123  TIP3  OH2          -6.7539955302      -10.3044864450        0.4386487775  CLST         123          1.0000000000
       368       123  TIP3  H1           -6.9957463965      -10.6153941797       -0.4281073831  CLST         123          1.0000000000
       369       123  TIP3  H2           -7.7227983609      -10.1374815609        0.5993032648  CLST         123          1.0000000000
       370       124  TIP3  OH2         -12.9312128879       -2.1573100187       -9.6544795463  CLST         124          1.0000000000
       371       124  TIP3  H1          -13.8829566589       -2.3888972662       -9.5630129718  CLST         124          1.0000000000
       372       124  TIP3  H2          -12.9256002539       -2.9781549781      -10.1513700257  CLST         124          1.0000000000
       373       125  TIP3  OH2           6.4826467964        2.7381914793       -5.4922204868  CLST         125          1.0000000000
       374       125  TIP3  H1            6.1032290007        2.1467136255       -4.8327229604  CLST         125          1.0000000000
       375       125  TIP3  H2            5.9074595870        2.4278368381       -6.2150326830  CLST         125          1.0000000000
       376       126  TIP3  OH2          12.2677724483      -10.0026548272        5.4888389761  CLST         126          1.0000000000
       377       126  TIP3  H1           12.6407617644      -10.8105114165        5.1228908083  CLST         126          1.0000000000
       378       126  TIP3  H2           11.6048932922      -10.4836614370        6.0444290464  CLST         126          1.0000000000
       379       127  TIP3  OH2         -10.4322439871       -5.7437988556       -4.9536935859  CLST         127          1.0000000000
       380       127  TIP3  H1           -9.9501105020       -5.2813585722       -4.2170691282  CLST         127          1.0000000000
       381       127  TIP3  H2           -9.8171658508       -6.4311800692       -4.7410712858  CLST         127          1.0000000000
       382       128  TIP3  OH2          -6.1067924818       -3.5753433328        7.0976550295  CLST         128          1.0000000000
       383       128  TIP3  H1           -5.5690717018       -4.3921868235        7.0000478171  CLST         128          1.0000000000
       384       128  TIP3  H2           -5.9421768494       -3.3071881418        6.1527450475  CLST         128          1.0000000000
       385       129  TIP3  OH2         -11.8435557043      -14.0214356218      -10.6109635168  CLST         129          1.0000000000
       386       129  TIP3  H1          -11.1770972279      -13.7447089196       -9.9990363602  CLST         129          1.0000000000
       387       129  TIP3  H2          -11.8011049151      -14.9180962696      -10.1963203631  CLST         129          1.0000000000
       388       130  TIP3  OH2           8.9931265305       -0.7872670093       13.9518123484  CLST         130          1.0000000000
       389       130  TIP3  H1            8.8271963696       -1.3393181128       14.7008069698  CLST         130          1.0000000000
       390       130  TIP3  H2            8.1115816240       -0.4461581961       14.1409590593  CLST         130          1.0000000000
       391       131  TIP3  OH2          -9.7916383109      -11.1215202714       -1.2864851977  CLST         131          1.0000000000
       392       131  TIP3  H1           -9.6647819674      -11.4173469273       -0.3551835760  CLST         131          1.0000000000
       393       131  TIP3  H2          -10.5308756718      -11.8056739826       -1.2544163081  CLST         131          1.0000000000
       394       132  TIP3  OH2           9.4302267054       -2.7617023917        9.6749219210  CLST         132          1.0000000000
       395       132  TIP3  H1           10.1533152116       -2.5042589641        9.0760349784  CLST         132          1.0000000000
       396       132  TIP3  H2            9.5001252223       -1.8558331717        9.9276283830  CLST         132          1.0000000000
       397       133  TIP3  OH2          -9.5068607886       -7.7466797767        7.7696390981  CLST         133          1.0000000000
       398       133  TIP3  H1           -8.6907697909       -8.0961274619        8.0786839821  CLST         133          1.0000000000
       399       133  TIP3  H2           -8.9953243878       -7.2218537802        7.1315924570  CLST         133          1.0000000000
       400       134  TIP3  OH2          -9.1668185742      -12.1315239485       14.7703522120  CLST         134          1.0000000000
       401       134  TIP3  H1           -9.3859051130      -12.0261424316       13.6967547494  CLST         134          1.0000000000
       402       134  TIP3  H2           -8.9248345158      -11.4163265435       14.4518974141  CLST         134          1.0000000000
       403       135  TIP3  OH2          -9.1735781169       10.9701306421        3.3924202283  CLST         135          1.0000000000
       404       135  TIP3  H1           -9.1211591609       10.3914933598        2.5733687073  CLST         135          1.0000000000
       405       135  TIP3  H2           -8.2635133975       10.7609492236        3.5700303253  CLST         135          1.0000000000
       406       136  TIP3  OH2          -5.4801651826       13.1582378368      -11.4142666478  CLST         136          1.0000000000
       407       136  TIP3  H1           -5.2376545629       13.3853480405      -10.5077214204  CLST         136          1.0000000000
       408       136  TIP3  H2           -6.0043899504       13.9296680898      -11.2854524201  CLST         136          1.0000000000
       409       137  TIP3  OH2          -5.6681486328      -11.0810197362        7.6122832366  CLST         137          1.0000000000
       410       137  TIP3  H1           -4.8706824239      -11.2252133455        6.7653004705  CLST         137          1.0000000000
       411       137  TIP3  H2           -4.8667780578      -11.4226489327        7.8103775885  CLST         137          1.0000000000
       412       138  TIP3  OH2           9.7898926980        8.2090717297       11.0536126421  CLST         138          1.0000000000
       413       138  TIP3  H1            9.9247015550        7.7520722383       11.7534301292  CLST         138          1.0000000000
       414       138  TIP3  H2           10.2553741560        8.6320951072       12.0097925252  CLST         138          1.0000000000
       415       139  TIP3  OH2           2.2170475194        9.8332076754       12.2685702273  CLST         139          1.0000000000
       416       139  TIP3  H1            3.1258362987        9.7939156037       12.0212477365  CLST         139          1.0000000000
       417       139  TIP3  H2            2.3105369600        9.1828734424       12.9751627467  CLST         139          1.0000000000
       418       140  TIP3  OH2          -3.1069184117       -1.1751217176       -7.9984024974  CLST         140          1.0000000000
       419       140  TIP3  H1           -2.3141341073       -0.6349883342       -8.0682031314  CLST         140          1.0000000000
       420       140  TIP3  H2           -2.4441871738       -1.8721502280       -7.9812297206  CLST         140          1.0000000000
       421       141  TIP3  OH2         -13.0133293515        5.3746319892       12.5206410630  CLST         141          1.0000000000
       422       141  TIP3  H1          -12.6236100362        6.4119150708       12.6132648660  CLST         141          1.0000000000
       423       141  TIP3  H2          -12.3578866837        5.4974886838       12.9760848932  CLST         141          1.0000000000
       424       142  TIP3  OH2          14.9550326486       -6.5757702925        5.4414759001  CLST         142          1.0000000000
       425       142  TIP3  H1           14.3850456032       -6.8344215328        4.7210939415  CLST         142          1.0000000000
       426       142  TIP3  H2           14.9735598541       -7.3772012344        5.9671913233  CLST         142          1.0000000000
       427       143  TIP3  OH2           6.5700032838       -6.9646619212        1.9602022658  CLST         143          1.0000000000
       428       143  TIP3  H1            6.8656993926       -6.7706136926        1.0450727723  CLST         143          1.0000000000
       429       143  TIP3  H2            5.7610380566       -6.9796205229        1.4213956823  CLST         143          1.0000000000
       430       144  TIP3  OH2          -1.3714865595      -14.0193208896        7.9086283199  CLST         144          1.0000000000
       431       144  TIP3  H1           -1.3417410281      -14.1432427770        6.9566957582  CLST         144          1.0000000000
       432       144  TIP3  H2           -0.8560703834      -14.8295363898        7.8809052236  CLST         144          1.0000000000
       433       145  TIP3  OH2           2.2495302681        7.4724476959       13.6009818305  CLST         145          1.0000000000
       434       145  TIP3  H1            1.3243157023        7.1997001684       13.8008956387  CLST         145          1.0000000000
       435       145  TIP3  H2            2.1210687068        6.9970030742       12.7501423804  CLST         145          1.0000000000
       436       146  TIP3  OH2          -5.9906298182       10.5465295480       -8.2780456836  CLST         146          1.0000000000
       437       146  TIP3  H1           -5.5760921127       11.4095592652       -8.2666446796  CLST         146          1.0000000000
       438       146  TIP3  H2           -6.8080582734       11.0107335463       -8.0129642802  CLST         146          1.0000000000
       439       147  TIP3  OH2           0.8824996358        2.8964743053       -4.4424411447  CLST         147          1.0000000000
       440       147  TIP3  H1            0.0812713607        2.8723768449       -3.8956442806  CLST         147          1.0000000000
       441       147  TIP3  H2            0.2996608442        3.1561719108       -5.1775235937  CLST         147          1.0000000000
       442       148  TIP3  OH2           7.3431809982        6.5982547850       -3.5876613208  CLST         148          1.0000000000
       443       148  TIP3  H1            8.0216599957        5.9719586672       -3.4178650401  CLST         148          1.0000000000
       444       148  TIP3  H2            6.8410115421        6.3333613641       -2.8233925591  CLST         148          1.0000000000
       445       149  TIP3  OH2          -4.1293609965      -13.0727483802       10.9465787304  CLST         149          1.0000000000
       446       149  TIP3  H1           -4.5599636303      -12.2114378314       11.0000980472  CLST         149          1.0000000000
       447       149  TIP3  H2           -3.4766446557      -12.5055585086       11.4093679701  CLST         149          1.0000000000
       448       150  TIP3  OH2          10.8661721826        1.1286132164       -2.4192650308  CLST         150          1.0000000000
       449       150  TIP3  H1           10.4415895646        1.1800112018       -1.4976435673  CLST         150          1.0000000000
       450       150  TIP3  H2            9.9903850174        0.8797700891       -2.6838665981  CLST         150          1.0000000000
       451       151  TIP3  OH2           3.6106465753      -12.1720583822        4.1336956978  CLST         151          1.0000000000
       452       151  TIP3  H1            3.4257026668      -12.8665172433        3.4822270243  CLST         151          1.0000000000
       453       151  TIP3  H2            3.2608294746      -11.6113571770        3.3949765967  CLST         151          1.0000000000
       454       152  TIP3  OH2           0.5410017114        5.9428732734       -5.8580961128  CLST         152          1.0000000000
       455       152  TIP3  H1            0.5939454106        6.8992923240       -5.9573654943  CLST         152          1.0000000000
       456       152  TIP3  H2            1.2434627492        5.8438067655       -6.4888216558  CLST         152          1.0000000000
       457       153  TIP3  OH2          -1.3290426838       10.3301799661       -7.4908890406  CLST         153          1.0000000000
       458       153  TIP3  H1           -1.8111041436       11.1535706639       -7.5554594203  CLST         153          1.0000000000
       459       153  TIP3  H2           -0.5357049382       10.8929076432       -7.7327034952  CLST         153          1.0000000000
       460       154  TIP3  OH2         -11.8928596201       -7.6749158601       -0.6098044027  CLST         154          1.0000000000
       461       154  TIP3  H1          -12.3127608356       -6.7941187307       -0.4030844622  CLST         154          1.0000000000
       462       154  TIP3  H2          -11.0322504572       -7.2906865423       -0.4319450498  CLST         154          1.0000000000
       463       155  TIP3  OH2          10.2883928073       -5.1040397912       14.2917975204  CLST         155          1.0000000000
       464       155  TIP3  H1           11.1681730633       -4.4214204654       14.0018873833  CLST         155          1.0000000000
       465       155  TIP3  H2           10.5150972526       -4.7302324359       13.2593554890  CLST         155          1.0000000000
       466       156  TIP3  OH2          13.9700622042        1.7415648126        0.1537327233  CLST         156          1.0000000000
       467       156  TIP3  H1           14.7847571576        1.2210293815        0.1923391435  CLST         156          1.0000000000
       468       156  TIP3  H2           14.0370285054        1.4409486226       -0.8286289864  CLST         156          1.0000000000
       469       157  TIP3  OH2           0.2873196247       -4.9723781512       -8.2301074493  CLST         157          1.0000000000
       470       157  TIP3  H1            0.8830794159       -4.4350869535       -8.8374033066  CLST         157          1.0000000000
       471       157  TIP3  H2            0.1694059214       -5.8676676379       -8.5133043346  CLST         157          1.0000000000
       472       158  TIP3  OH2          -6.8352848179       -1.4072049817       -2.4734608071  CLST         158          1.0000000000
       473       158  TIP3  H1           -7.6863082238       -1.6879246735       -2.7998836542  CLST         158          1.0000000000
       474       158  TIP3  H2           -6.5593386936       -2.2913890819       -2.6795212648  CLST         158          1.0000000000
       475       159  TIP3  OH2           8.1773399950      -11.4191235920        8.1026258957  CLST         159          1.0000000000
       476       159  TIP3  H1            7.4222034101      -11.4207825556        7.5416248933  CLST         159          1.0000000000
       477       159  TIP3  H2            8.1423141611      -10.5083040938        8.4759722882  CLST         159          1.0000000000
       478       160  TIP3  OH2           4.6228000576       -9.3353192292        2.0132038269  CLST         160          1.0000000000
       479       160  TIP3  H1            4.3606398694       -8.8702535195        2.7878828095  CLST         160          1.0000000000
       480       160  TIP3  H2            5.0527329414       -9.9819753459        2.5968341849  CLST         160          1.0000000000
       481       161  TIP3  OH2           3.8973432916       -7.0244185901       -2.8538975325  CLST         161          1.0000000000
       482       161  TIP3  H1            4.5390357777       -7.5117275938       -2.3593574988  CLST         161          1.0000000000
       483       161  TIP3  H2            3.1723120836       -7.4142231318       -2.3838375647  CLST         161          1.0000000000
       484       162  TIP3  OH2           6.6739168053      -10.5480555885        3.0537149013  CLST         162          1.0000000000
       485       162  TIP3  H1            7.3265549346      -11.2189422756        3.2830712692  CLST         162          1.0000000000
       486       162  TIP3  H2            7.2258712458       -9.9451850817        3.4896865768  CLST         162          1.0000000000
       487       163  TIP3  OH2         -13.3620838515        0.0372886526        2.6162265205  CLST         163          1.0000000000
       488       163  TIP3  H1          -13.4567469075        0.4802314386        3.7036051192  CLST         163          1.0000000000
       489       163  TIP3  H2          -12.8559167557       -0.2808331957        3.2896302660  CLST         163          1.0000000000
       490       164  TIP3  OH2           8.4524220420        3.0015378783        9.9503970578  CLST         164          1.0000000000
       491       164  TIP3  H1            8.8216318617        3.7285980819        9.1351245321  CLST         164          1.0000000000
       492       164  TIP3  H2            9.4685391595        3.1536855120        9.5463149378  CLST         164          1.0000000000
       493       165  TIP3  OH2          14.2970732153        3.8940279911        5.0171724637  CLST         165          1.0000000000
       494       165  TIP3  H1           13.3593696303        4.2657502207        4.5901865515  CLST         165          1.0000000000
       495       165  TIP3  H2           13.6042912163        3.3266738394        4.3129606709  CLST         165          1.0000000000
       496       166  TIP3  OH2          -6.3767519226      -12.8023079252        5.1440240156  CLST         166          1.0000000000
       497       166  TIP3  H1           -6.4863199595      -12.6062174258        4.2045916322  CLST         166          1.0000000000
       498       166  TIP3  H2           -6.8844132187      -11.9712098481        5.2227899247  CLST         166          1.0000000000
       499       167  TIP3  OH2           0.2664465249       -7.6134871982       -9.2941921419  CLST         167          1.0000000000
       500       167  TIP3  H1            0.3419311708       -7.6080591993      -10.2699610423  CLST         167          1.0000000000
       501       167  TIP3  H2            1.1692082463       -8.1347364774       -9.1933141166  CLST         167          1.0000000000
       502       168  TIP3  OH2          -2.5915908775       -2.5047779206        1.6975723031  CLST         168          1.0000000000
       503       168  TIP3  H1           -2.9607857605       -3.3415080035        1.9423233386  CLST         168          1.0000000000
       504       168  TIP3  H2           -2.4785624934       -2.9115883736        0.7841984228  CLST         168          1.0000000000
       505       169  TIP3  OH2           0.8576470912       12.0438462236       12.6439742594  CLST         169          1.0000000000
       506       169  TIP3  H1            1.6204737667       11.4634255931       12.6476168772  CLST         169          1.0000000000
       507       169  TIP3  H2            1.3278613865       12.6247562264       13.1808778365  CLST         169          1.0000000000
       508       170  TIP3  OH2         -14.5686018697      -12.0351976010        4.6174258591  CLST         170          1.0000000000
       509       170  TIP3  H1          -13.9687739333      -12.5694247569        5.2416022134  CLST         170          1.0000000000
       510       170  TIP3  H2          -14.8138305276      -11.6393144619        5.4655040479  CLST         170          1.0000000000
       511       171  TIP3  OH2          -9.7632449374        2.5849301510        2.5837845707  CLST         171          1.0000000000
       512       171  TIP3  H1           -9.0121063311        3.2101038166        2.5300523484  CLST         171          1.0000000000
       513       171  TIP3  H2           -9.3852250460        2.2988632778        3.3944251330  CLST         171          1.0000000000
       514       172  TIP3  OH2          13.9803453226       -7.1046220837      -11.8233372901  CLST         172          1.0000000000
       515       172  TIP3  H1           13.9622073505       -7.1333078026      -10.8513982174  CLST         172          1.0000000000
       516       172  TIP3  H2           13.3007785223       -7.8264010637      -11.7147823643  CLST         172          1.0000000000
       517       173  TIP3  OH2         -12.7362704412       -5.3838184588        3.0270615762  CLST         173          1.0000000000
       518       173  TIP3  H1          -13.1857981221       -4.5553065545        3.1190375632  CLST         173          1.0000000000
       519       173  TIP3  H2          -12.8983616590       -5.5634200055        2.0795859397  CLST         173          1.0000000000
       520       174  TIP3  OH2           5.5648028960      -14.1180388956        5.7748927665  CLST         174          1.0000000000
       521       174  TIP3  H1            5.2012341272      -14.5523790270        6.5233921654  CLST         174          1.0000000000
       522       174  TIP3  H2            4.6396628914      -13.8634441954        5.5818313267  CLST         174          1.0000000000
       523       175  TIP3  OH2           4.4694999137       -3.6779052582        7.6707369241  CLST         175          1.0000000000
       524       175  TIP3  H1            4.0055161538       -4.3346898228        7.1578588972  CLST         175          1.0000000000
       525       175  TIP3  H2            5.2091859053       -3.8525481363        7.1378360014  CLST         175          1.0000000000
       526       176  TIP3  OH2           8.2722748914        2.5573281441      -10.8641095015  CLST         176          1.0000000000
       527       176  TIP3  H1            9.0900594338        2.3670567759      -10.3604907719  CLST         176          1.0000000000
       528       176  TIP3  H2            8.6495615350        1.9693412106      -11.5142015238  CLST         176          1.0000000000
       529       177  TIP3  OH2          -3.9948676769       10.8579320791        7.4317295239  CLST         177          1.0000000000
       530       177  TIP3  H1           -3.2936630201       11.0364500615        6.7917604481  CLST         177          1.0000000000
       531       177  TIP3  H2           -4.1509731626        9.9802671584        7.0323123763  CLST         177          1.0000000000
       532       178  TIP3  OH2           4.2917862000       -6.2920830377        0.6539250823  CLST         178          1.0000000000
       533       178  TIP3  H1            3.6343908393       -5.6392466989        0.4587153582  CLST         178          1.0000000000
       534       178  TIP3  H2            3.6299232838       -6.8726206787        0.3382251288  CLST         178          1.0000000000
       535       179  TIP3  OH2           2.7586116976       -9.9455823485        0.0254312756  CLST         179          1.0000000000
       536       179  TIP3  H1            2.0426288286       -9.3243325297        0.3765233545  CLST         179          1.0000000000
       537       179  TIP3  H2            3.2513218416       -9.8269875433        0.8538991409  CLST         179          1.0000000000
       538       180  TIP3  OH2          -2.0354605682       -3.5652305947        8.1648296588  CLST         180          1.0000000000
       539       180  TIP3  H1           -1.9451714948       -2.7060613374        8.6583261979  CLST         180          1.0000000000
       540       180  TIP3  H2           -2.7290093837       -3.4057813067        7.4951459757  CLST         180          1.0000000000
       541       181  TIP3  OH2         -12.0751466080        0.0725137033      -11.3170082702  CLST         181          1.0000000000
       542       181  TIP3  H1          -11.4940856533       -0.4829034907      -11.1110700838  CLST         181          1.0000000000
       543       181  TIP3  H2          -12.1344442478       -0.6387971725      -10.3143409122  CLST         181          1.0000000000
       544       182  TIP3  OH2         -10.2949149906      -12.6008238521        5.5536163886  CLST         182          1.0000000000
       545       182  TIP3  H1          -10.7716014409      -12.5991446941        6.3969528566  CLST         182          1.0000000000
       546       182  TIP3  H2           -9.6705457718      -12.1388647257        6.2226934765  CLST         182          1.0000000000
       547       183  TIP3  OH2          11.6767772616        5.0831266425        4.2807231888  CLST         183          1.0000000000
       548       183  TIP3  H1           11.8481359602        5.3352363809        3.3619930209  CLST         183          1.0000000000
       549       183  TIP3  H2           11.4152352099        5.9996109554        4.3602558201  CLST         183          1.0000000000
       550       184  TIP3  OH2          -0.2452773527       -0.5064833361        8.0439280514  CLST         184          1.0000000000
       551       184  TIP3  H1            0.7198065961       -0.7394522222        8.0669432983  CLST         184          1.0000000000
       552       184  TIP3  H2           -0.5521410897       -0.8949693856        8.9095784234  CLST         184          1.0000000000
       553       185  TIP3  OH2           9.3607933302       12.9340796557       -3.9278091480  CLST         185          1.0000000000
       554       185  TIP3  H1            8.4150952219       12.6005290662       -3.8076395842  CLST         185          1.0000000000
       555       185  TIP3  H2            8.9931067156       13.6346911001       -4.5434696267  CLST         185          1.0000000000
       556       186  TIP3  OH2          11.8856884200       -0.0357208383        4.3304904054  CLST         186          1.0000000000
       557       186  TIP3  H1           12.2817266839        0.2098450128        3.4390734060  CLST         186          1.0000000000
       558       186  TIP3  H2           11.2381937931        0.6350837988        4.0902645135  CLST         186          1.0000000000
       559       187  TIP3  OH2         -10.2422810900       -7.8398583233      -11.3903525633  CLST         187          1.0000000000
       560       187  TIP3  H1          -10.6381464144       -7.6774133363      -10.5207518590  CLST         187          1.0000000000
       561       187  TIP3  H2          -10.0728104626       -6.8746249931      -11.3318187880  CLST         187          1.0000000000
       562       188  TIP3  OH2         -14.7631910507       -0.2861414618        0.5085592333  CLST         188          1.0000000000
       563       188  TIP3  H1          -14.5016750558       -0.6643300679        1.3360080141  CLST         188          1.0000000000
       564       188  TIP3  H2          -14.8894451852       -0.9593878944       -0.1677362479  CLST         188          1.0000000000
       565       189  TIP3  OH2          14.1508445885        0.5287514854       14.6042473341  CLST         189          1.0000000000
       566       189  TIP3  H1           14.9901954012        0.4241161750       14.9716337357  CLST         189          1.0000000000
       567       189  TIP3  H2           14.3229317147        0.3324868159       13.7071496451  CLST         189          1.0000000000
       568       190  TIP3  OH2           0.5200036293       -7.9387086789        3.9180731963  CLST         190          1.0000000000
       569       190  TIP3  H1            0.8257221504       -8.2751140968        4.7524675925  CLST         190          1.0000000000
       570       190  TIP3  H2            0.9064922949       -7.0338389651        4.0651041138  CLST         190          1.0000000000
       571       191  TIP3  OH2          -1.0020477682       14.1921660594       -4.0104155225  CLST         191          1.0000000000
       572       191  TIP3  H1           -1.9557500299       13.9315666748       -3.9208681312  CLST         191          1.0000000000
       573       191  TIP3  H2           -1.3657837970       15.0710695723       -3.8419085055  CLST         191          1.0000000000
       574       192  TIP3  OH2          -5.1799195206       -0.3047945582       -0.7571383115  CLST         192          1.0000000000
       575       192  TIP3  H1           -5.8249937669       -0.3635931049       -1.4868820340  CLST         192          1.0000000000
       576       192  TIP3  H2           -5.7413310395        0.3768891639       -0.2497447891  CLST         192          1.0000000000
       577       193  TIP3  OH2         -12.9459393195      -12.8405093826        6.8811877960  CLST         193          1.0000000000
       578       193  TIP3  H1          -12.8570382832      -13.5238875223        7.4712848855  CLST         193          1.0000000000
       579       193  TIP3  H2          -12.4013219923      -12.2377291576        7.4385169095  CLST         193          1.0000000000
       580       194  TIP3  OH2          12.5870122127       12.4180820414      -11.2510651050  CLST         194          1.0000000000
       581       194  TIP3  H1           12.9220944389       13.3267291737      -11.3337627163  CLST         194          1.0000000000
       582       194  TIP3  H2           13.3031959903       12.2518843868      -11.8916513660  CLST         194          1.0000000000
       583       195  TIP3  OH2           4.8597805996        2.6389232606        3.7255943236  CLST         195          1.0000000000
       584       195  TIP3  H1            3.9249975163        2.5572829793        3.1262227000  CLST         195          1.0000000000
       585       195  TIP3  H2            4.5221364576        1.7515696853        3.1145533976  CLST         195          1.0000000000
       586       196  TIP3  OH2           7.2461890042        6.4577492858       11.8082235870  CLST         196          1.0000000000
       587       196  TIP3  H1            8.0181067922        6.2949438099       12.3587088380  CLST         196          1.0000000000
       588       196  TIP3  H2            6.9821768917        7.0532699913       12.5876470865  CLST         196          1.0000000000
       589       197  TIP3  OH2          -4.4127963256       -9.3779251456        3.8905977128  CLST         197          1.0000000000
       590       197  TIP3  H1           -4.6818571971       -9.0420278787        3.0258549411  CLST         197          1.0000000000
       591       197  TIP3  H2           -3.7843512172       -8.6472211242        4.0057987483  CLST         197          1.0000000000
       592       198  TIP3  OH2          -4.2520255110       -9.0096386902       -6.0623535285  CLST         198          1.0000000000
       593       198  TIP3  H1           -3.7745393409       -8.6704861982       -6.8199263019  CLST         198          1.0000000000
       594       198  TIP3  H2           -5.0203256250       -9.1755165436       -6.6010082615  CLST         198          1.0000000000
       595       199  TIP3  OH2          11.4120460570        7.7290508898       -2.4625286844  CLST         199          1.0000000000
       596       199  TIP3  H1           11.0083090897        8.3788414336       -1.8652661364  CLST         199          1.0000000000
       597       199  TIP3  H2           12.1217616279        7.7949815067       -1.8806819919  CLST         199          1.0000000000
       598       200  TIP3  OH2          -4.8537660725       -7.4265225584       -1.1852384940  CLST         200          1.0000000000
       599       200  TIP3  H1           -4.0833783772       -7.9553388808       -1.4748427506  CLST         200          1.0000000000
       600       200  TIP3  H2           -4.6363927972       -6.6431580718       -1.6514399784  CLST         200          1.0000000000
       601       201  TIP3  OH2          13.8942136554      -10.6129458722       11.7650684209  CLST         201          1.0000000000
       602       201  TIP3  H1           14.4959767999      -10.1371922982       11.2495075354  CLST         201          1.0000000000
       603       201  TIP3  H2           13.0460321714      -10.2607053357       11.3048299126  CLST         201          1.0000000000
       604       202  TIP3  OH2          -2.7227588634       -9.6942941202        8.1366214942  CLST         202          1.0000000000
       605       202  TIP3  H1           -2.1500301818      -10.2243872158        8.3802671820  CLST         202          1.0000000000
       606       202  TIP3  H2           -2.4047039608      -10.5890722666        7.5060762879  CLST         202          1.0000000000
       607       203  TIP3  OH2          10.4778977815        4.2478947487       13.7833478785  CLST         203          1.0000000000
       608       203  TIP3  H1            9.6726774702        3.7424246542       13.7284159632  CLST         203          1.0000000000
       609       203  TIP3  H2           10.4389993823        3.2017678205       14.2908040653  CLST         203          1.0000000000
       610       204  TIP3  OH2          -5.1391505142        6.1647102731        5.9477340256  CLST         204          1.0000000000
       611       204  TIP3  H1           -5.8852519895        6.7880107424        5.9790497724  CLST         204          1.0000000000
       612       204  TIP3  H2           -4.7083466186        6.7985112912        6.5431430488  CLST         204          1.0000000000
       613       205  TIP3  OH2          -2.4150958405        1.3590336461       -4.8752894581  CLST         205          1.0000000000
       614       205  TIP3  H1           -1.6599362429        1.8024066696       -5.3344816160  CLST         205          1.0000000000
       615       205  TIP3  H2           -2.8871297670        1.9243853171       -5.5178954709  CLST         205          1.0000000000
       616       206  TIP3  OH2          -8.5903348960       -1.0777494979        4.5991593829  CLST         206          1.0000000000
       617       206  TIP3  H1           -8.7331608916       -1.3229974790        5.5547274531  CLST         206          1.0000000000
       618       206  TIP3  H2           -7.9151127377       -0.3685628148        4.9486171316  CLST         206          1.0000000000
       619       207  TIP3  OH2          -7.6916024488        9.5151771015        0.5068758665  CLST         207          1.0000000000
       620       207  TIP3  H1           -7.2564372950        8.6345739978        0.4357756566  CLST         207          1.0000000000
       621       207  TIP3  H2           -8.2843265344        9.1313339560        1.1261673606  CLST         207          1.0000000000
       622       208  TIP3  OH2           9.2370830216       14.2597500594      -11.6224641495  CLST         208          1.0000000000
       623       208  TIP3  H1            9.4832290859       13.7838774012      -12.3743006854  CLST         208          1.0000000000
       624       208  TIP3  H2            9.7385400653       15.0551125792      -11.8494591140  CLST         208          1.0000000000
       625       209  TIP3  OH2          -6.3800139783       -6.2033932926      -14.2686093541  CLST         209          1.0000000000
       626       209  TIP3  H1           -7.2755028917       -6.1301938621      -14.6228605641  CLST         209          1.0000000000
       627       209  TIP3  H2           -6.7330726086       -6.8938694382      -13.7265370535  CLST         209          1.0000000000
       628       210  TIP3  OH2          -2.1578745489        1.3756517679        8.2199105793  CLST         210          1.0000000000
       629       210  TIP3  H1           -1.3459377923        0.9141012130        8.2075525044  CLST         210          1.0000000000
       630       210  TIP3  H2           -2.1168753764        1.4574096606        9.2109745162  CLST         210          1.0000000000
       631       211  TIP3  OH2          -0.5896828453        0.1334503325       -2.7864121606  CLST         211          1.0000000000
       632       211  TIP3  H1           -1.2414963657       -0.4782815551       -2.4521430396  CLST         211          1.0000000000
       633       211  TIP3  H2           -1.3703873085        0.4791405817       -3.3297072003  CLST         211          1.0000000000
       634       212  TIP3  OH2           6.7100146630        3.0808447345        5.7104395810  CLST         212          1.0000000000
       635       212  TIP3  H1            6.3746989581        2.2414733477        5.9696156484  CLST         212          1.0000000000
       636       212  TIP3  H2            6.1140129090        2.9917488488        4.9282659452  CLST         212          1.0000000000
       637       213  TIP3  OH2           2.0846205659       -4.9972906857       -0.3543634992  CLST         213          1.0000000000
       638       213  TIP3  H1            2.1313206303       -4.2576273500       -0.9461022133  CLST         213          1.0000000000
       639       213  TIP3  H2            1.7535298682       -5.5750863685       -1.0779694696  CLST         213          1.0000000000
       640       214  TIP3  OH2           2.2072473847       -7.0797625054      -11.5377477308  CLST         214          1.0000000000
       641       214  TIP3  H1            2.6168004572       -7.9355561533      -11.4136704892  CLST         214          1.0000000000
       642       214  TIP3  H2            2.7937726804       -6.7917151962      -10.8329144531  CLST         214          1.0000000000
       643       215  TIP3  OH2         -12.7171736436        2.5856479926      -10.9488385964  CLST         215          1.0000000000
       644       215  TIP3  H1          -12.1710298215        1.6577886950      -10.6481586929  CLST         215          1.0000000000
       645       215  TIP3  H2          -12.9252070351        1.6043346490      -11.3712954034  CLST         215          1.0000000000
       646       216  TIP3  OH2          11.5496137061       -6.6803923015       -4.5507652518  CLST         216          1.0000000000
       647       216  TIP3  H1           11.1923794620       -7.5441016909       -4.6617972216  CLST         216          1.0000000000
       648       216  TIP3  H2           10.7035796894       -6.3780275354       -4.9047337547  CLST         216          1.0000000000
       649       217  TIP3  OH2          -6.4883737256        9.3472278233        3.9515016076  CLST         217          1.0000000000
       650       217  TIP3  H1           -5.5383893996        9.0541187080        4.1471470119  CLST         217          1.0000000000
       651       217  TIP3  H2           -6.7736404758        8.5462719546        3.5894110927  CLST         217          1.0000000000
       652       218  TIP3  OH2           5.7927768873       -7.2483069346       -8.2152279427  CLST         218          1.0000000000
       653       218  TIP3  H1            5.9223657020       -8.1927836627       -7.9668179307  CLST         218          1.0000000000
       654       218  TIP3  H2            5.2679138015       -7.1675753340       -7.4092831800  CLST         218          1.0000000000
       655       219  TIP3  OH2           2.8417570079      -13.5144337963        7.3182258356  CLST         219          1.0000000000
       656       219  TIP3  H1            3.2139535711      -12.9037854130        8.2369507134  CLST         219          1.0000000000
       657       219  TIP3  H2            3.3268514237      -13.9851552073        7.9923427531  CLST         219          1.0000000000
       658       220  TIP3  OH2           2.3716051559        1.6566375252      -11.0683962818  CLST         220          1.0000000000
       659       220  TIP3  H1            2.6413270273        1.9546473272      -11.9294384423  CLST         220          1.0000000000
       660       220  TIP3  H2            3.1491981150        1.1067342520      -11.0454198359  CLST         220          1.0000000000
       661       221  TIP3  OH2           1.7647422906       -0.4021039700        3.0711333602  CLST         221          1.0000000000
       662       221  TIP3  H1            0.8261589185       -0.1393118256        2.8770939357  CLST         221          1.0000000000
       663       221  TIP3  H2            1.7236423045        0.1603994478        3.8371929064  CLST         221          1.0000000000
       664       222  TIP3  OH2          12.0416178632        0.5585128487        1.7020104525  CLST         222          1.0000000000
       665       222  TIP3  H1           12.4225205114        0.5709357915        0.7909819544  CLST         222          1.0000000000
       666       222  TIP3  H2           11.1668541923        0.6433482902        1.3953501648  CLST         222          1.0000000000
       667       223  TIP3  OH2           1.3820460636      -10.6025546299      -12.8800350477  CLST         223          1.0000000000
       668       223  TIP3  H1            0.9543238064      -10.8100364114      -12.0871308034  CLST         223          1.0000000000
       669       223  TIP3  H2            0.8850925998       -9.8114175699      -12.8156217666  CLST         223          1.0000000000
       670       224  TIP3  OH2          -9.4172145519        6.7581818015      -12.6242317149  CLST         224          1.0000000000
       671       224  TIP3  H1           -9.9174928000        5.8502040443      -12.2197945141  CLST         224          1.0000000000
       672       224  TIP3  H2           -8.8849109076        5.8406154233      -12.3176002474  CLST         224          1.0000000000
       673       225  TIP3  OH2          13.1440804676        3.7547556418       -7.7045673811  CLST         225          1.0000000000
       674       225  TIP3  H1           12.2133838451        3.8671593635       -7.8187637178  CLST         225          1.0000000000
       675       225  TIP3  H2           12.9088549856        3.1387471090       -6.9981814600  CLST         225          1.0000000000
       676       226  TIP3  OH2           5.2446327179        4.8880332756       10.7126295269  CLST         226          1.0000000000
       677       226  TIP3  H1            5.9962806503        5.4622851790       10.9156491511  CLST         226          1.0000000000
       678       226  TIP3  H2            5.9043798981        4.2549484494       10.8954301013  CLST         226          1.0000000000
       679       227  TIP3  OH2          -6.0561882671        0.9799664486        9.8300277916  CLST         227          1.0000000000
       680       227  TIP3  H1           -6.6559796469        0.5900754332       10.4230667311  CLST         227          1.0000000000
       681       227  TIP3  H2           -5.7944838979        0.1761450781        9.3209667644  CLST         227          1.0000000000
       682       228  TIP3  OH2          -8.7272724515       -5.4096698830       10.3647933529  CLST         228          1.0000000000
       683       228  TIP3  H1           -8.4918907701       -5.0514681167        9.5449461434  CLST         228          1.0000000000
       684       228  TIP3  H2           -7.7664582018       -5.6401734379       10.3927058291  CLST         228          1.0000000000
       685       229  TIP3  OH2          11.3455368819        7.7312060322      -15.0710695723  CLST         229          1.0000000000
       686       229  TIP3  H1           11.5786603583        7.9932840002      -14.2032473140  CLST         229          1.0000000000
       687       229  TIP3  H2           12.0173703931        7.1032934018      -15.0243428803  CLST         229          1.0000000000
       688       230  TIP3  OH2         -10.9087442418       -3.5863454351        8.7419133855  CLST         230          1.0000000000
       689       230  TIP3  H1          -10.9895550063       -4.5210251248        8.8862169337  CLST         230          1.0000000000
       690       230  TIP3  H2          -11.6777181713       -3.4760732352        9.3311973670  CLST         230          1.0000000000
       691       231  TIP3  OH2          -0.2501043716        3.1513381479      -11.8417548836  CLST         231          1.0000000000
       692       231  TIP3  H1            0.5283416735        2.9531064466      -11.3798637761  CLST         231          1.0000000000
       693       231  TIP3  H2            0.2451941275        3.1382747265      -12.6434074648  CLST         231          1.0000000000
       694       232  TIP3  OH2           1.8708989004      -15.0710695723      -11.9334739067  CLST         232          1.0000000000
       695       232  TIP3  H1            1.7914399065      -14.4136185739      -11.2671202584  CLST         232          1.0000000000
       696       232  TIP3  H2            2.2012100135      -14.3501064765      -12.4659260596  CLST         232          1.0000000000
       697       233  TIP3  OH2         -12.3471950321        9.6708529319        2.1196812013  CLST         233          1.0000000000
       698       233  TIP3  H1          -13.0204614541        9.4470284298        2.8066165378  CLST         233          1.0000000000
       699       233  TIP3  H2          -13.0918026989        9.9101406521        1.5586351213  CLST         233          1.0000000000
       700       234  TIP3  OH2          -2.2863282337        4.6025475326       -8.1601875547  CLST         234          1.0000000000
       701       234  TIP3  H1           -2.2259210500        5.5431340332       -8.0826690157  CLST         234          1.0000000000
       702       234  TIP3  H2           -2.4100864677        4.6779388945       -9.1258229788  CLST         234          1.0000000000
       703       235  TIP3  OH2         -10.2920469859        5.0244599645       -5.6093714214  CLST         235          1.0000000000
       704       235  TIP3  H1          -10.7691072191        4.8645239564       -6.4423734575  CLST         235          1.0000000000
       705       235  TIP3  H2           -9.4966876247        4.7431413188       -6.0185281308  CLST         235          1.0000000000
       706       236  TIP3  OH2         -12.2793292549      -10.5518334509       13.5985463422  CLST         236          1.0000000000
       707       236  TIP3  H1          -11.4996595498      -11.0154623295       12.9380108280  CLST         236          1.0000000000
       708       236  TIP3  H2          -12.0936007410      -10.3177675867       12.5299210064  CLST         236          1.0000000000
       709       237  TIP3  OH2          -6.1339045634       -6.3333755205       10.4511024627  CLST         237          1.0000000000
       710       237  TIP3  H1           -5.6376094427       -6.8391782932        9.8064851862  CLST         237          1.0000000000
       711       237  TIP3  H2           -5.2916185324       -6.2566622417       10.9855023518  CLST         237          1.0000000000
       712       238  TIP3  OH2          -0.9952691735        3.7063165420       -2.7698100536  CLST         238          1.0000000000
       713       238  TIP3  H1           -2.0006351548        4.0560504238       -3.2204223145  CLST         238          1.0000000000
       714       238  TIP3  H2           -1.7483272858        3.3919834840       -2.4104759886  CLST         238          1.0000000000
       715       239  TIP3  OH2           8.0914538100        7.4642693821       -0.1271648781  CLST         239          1.0000000000
       716       239  TIP3  H1            8.3083918779        6.5475770294       -0.3647940664  CLST         239          1.0000000000
       717       239  TIP3  H2            9.0554812810        7.4518614625       -0.0011506100  CLST         239          1.0000000000
       718       240  TIP3  OH2          -9.7469999576        8.7723557727        2.0757540775  CLST         240          1.0000000000
       719       240  TIP3  H1          -10.6439730886        9.2039359426        2.0466150566  CLST         240          1.0000000000
       720       240  TIP3  H2          -10.2618505163        7.9667583489        2.0596782710  CLST         240          1.0000000000
       721       241  TIP3  OH2          10.7131184250       -4.4158943478       -1.9471172403  CLST         241          1.0000000000
       722       241  TIP3  H1           10.2158788879       -4.1249676708       -2.5490464328  CLST         241          1.0000000000
       723       241  TIP3  H2           10.4703746322       -5.0187904860       -2.5031012006  CLST         241          1.0000000000
       724       242  TIP3  OH2           9.3553948983       -1.6182812027       -4.3666991605  CLST         242          1.0000000000
       725       242  TIP3  H1           10.0601988332       -1.4930402650       -3.7110007219  CLST         242          1.0000000000
       726       242  TIP3  H2            9.1705375193       -2.3363767253       -3.7244513086  CLST         242          1.0000000000
       727       243  TIP3  OH2           5.0562274651        9.5656920595      -12.0533883852  CLST         243          1.0000000000
       728       243  TIP3  H1            4.6448520129       10.3395605405      -11.5891302194  CLST         243          1.0000000000
       729       243  TIP3  H2            4.6721105412        9.0714829681      -11.3170408327  CLST         243          1.0000000000
       730       244  TIP3  OH2          -8.9848389057       -6.6090234437      -14.2937920383  CLST         244          1.0000000000
       731       244  TIP3  H1           -9.2052943393       -6.2147028076      -13.4402333248  CLST         244          1.0000000000
       732       244  TIP3  H2           -9.9163406939       -6.4327766579      -14.5218376038  CLST         244          1.0000000000
       733       245  TIP3  OH2         -13.0525232904        5.9740318963        2.2690029982  CLST         245          1.0000000000
       734       245  TIP3  H1          -12.6273780056        6.5379308038        2.9290884487  CLST         245          1.0000000000
       735       245  TIP3  H2          -12.0871435755        5.8479848013        2.0175328547  CLST         245          1.0000000000
       736       246  TIP3  OH2          -9.1760194815        6.2941151958       -1.5727396415  CLST         246          1.0000000000
       737       246  TIP3  H1           -9.9738395675        6.0245795739       -1.9916832447  CLST         246          1.0000000000
       738       246  TIP3  H2           -9.3854498648        7.1902424956       -1.7647721486  CLST         246          1.0000000000
       739       247  TIP3  OH2          -4.4493573088        8.1221116280        7.9262923698  CLST         247          1.0000000000
       740       247  TIP3  H1           -3.5387599202        8.2955169380        8.1409630507  CLST         247          1.0000000000
       741       247  TIP3  H2           -4.6351462327        7.7758081661        8.7763965853  CLST         247          1.0000000000
       742       248  TIP3  OH2           9.8170730891       -7.6866681151        7.8977979229  CLST         248          1.0000000000
       743       248  TIP3  H1            9.0540096095       -8.2594930681        7.7276945520  CLST         248          1.0000000000
       744       248  TIP3  H2           10.0193251545       -7.5727658870        6.9782408625  CLST         248          1.0000000000
       745       249  TIP3  OH2           9.8114177000        5.9953273211       -1.2479437106  CLST         249          1.0000000000
       746       249  TIP3  H1           10.4155388287        5.2273527997       -1.1842303502  CLST         249          1.0000000000
       747       249  TIP3  H2           10.5376327549        6.3366488874       -1.8100013149  CLST         249          1.0000000000
       748       250  TIP3  OH2           5.8581674947       -4.7880123184        3.3915172720  CLST         250          1.0000000000
       749       250  TIP3  H1            5.6503095902       -5.5291628651        2.8731513578  CLST         250          1.0000000000
       750       250  TIP3  H2            5.5179427770       -5.2309076654        4.1699955722  CLST         250          1.0000000000
       751       251  TIP3  OH2         -14.6365364920      -11.6702581040        1.9488921920  CLST         251          1.0000000000
       752       251  TIP3  H1          -14.0375947871      -12.3201172155        1.5278762315  CLST         251          1.0000000000
       753       251  TIP3  H2          -14.3810085989      -12.0154175139        2.8018207628  CLST         251          1.0000000000
       754       252  TIP3  OH2          -6.8791762844      -14.7597536780      -11.9502445805  CLST         252          1.0000000000
       755       252  TIP3  H1           -7.7410635189      -14.4228826355      -11.7052451514  CLST         252          1.0000000000
       756       252  TIP3  H2           -6.9457898412      -14.1243901579      -12.6964055617  CLST         252          1.0000000000
       757       253  TIP3  OH2           0.6458898644        7.7884746987        7.7872407576  CLST         253          1.0000000000
       758       253  TIP3  H1            0.5629849031        7.4008095101        6.8694778465  CLST         253          1.0000000000
       759       253  TIP3  H2            1.6109378891        7.7629036726        7.6000563230  CLST         253          1.0000000000
       760       254  TIP3  OH2         -11.1419205072        1.3185666411      -14.3305577920  CLST         254          1.0000000000
       761       254  TIP3  H1          -11.7897049239        1.0501721232      -13.7702327942  CLST         254          1.0000000000
       762       254  TIP3  H2          -11.8348404085        1.3945174595      -14.8771012674  CLST         254          1.0000000000
       763       255  TIP3  OH2           4.2047502227        0.0205438220       -0.9008184887  CLST         255          1.0000000000
       764       255  TIP3  H1            4.2253065526       -0.5500786966       -0.1165908654  CLST         255          1.0000000000
       765       255  TIP3  H2            3.2562806989       -0.2461116327       -0.9632344369  CLST         255          1.0000000000
       766       256  TIP3  OH2          14.0353358418       -3.3931173718      -12.0730361116  CLST         256          1.0000000000
       767       256  TIP3  H1           14.6774345603       -3.3646623757      -12.7525481657  CLST         256          1.0000000000
       768       256  TIP3  H2           13.4831384327       -3.9235677026      -12.5727998637  CLST         256          1.0000000000
       769       257  TIP3  OH2          -6.5515810872      -13.5814636608       10.2186491140  CLST         257          1.0000000000
       770       257  TIP3  H1           -6.7492529238      -14.5229679511       10.3598000989  CLST         257          1.0000000000
       771       257  TIP3  H2           -5.6817402569      -13.8558501193       10.5054996083  CLST         257          1.0000000000
       772       258  TIP3  OH2         -10.2755787281      -11.8239313266       -6.4756904459  CLST         258          1.0000000000
       773       258  TIP3  H1           -9.9482142001      -11.8736127138       -5.5891356354  CLST         258          1.0000000000
       774       258  TIP3  H2          -10.3498752729      -10.8865025084       -6.3274429666  CLST         258          1.0000000000
       775       259  TIP3  OH2           3.0988655457        1.7575140741       14.1661059697  CLST         259          1.0000000000
       776       259  TIP3  H1            3.1174901751        0.8220794994       13.9063653681  CLST         259          1.0000000000
       777       259  TIP3  H2            3.2401518258        1.5255045790       15.0710695723  CLST         259          1.0000000000
       778       260  TIP3  OH2         -10.6215922313      -10.2278890655       -9.6048371424  CLST         260          1.0000000000
       779       260  TIP3  H1          -11.3992278486      -10.6406521502      -10.0345355832  CLST         260          1.0000000000
       780       260  TIP3  H2          -11.1289314286       -9.4632876595       -9.3353982255  CLST         260          1.0000000000
       781       261  TIP3  OH2           6.9020748090        1.1191884509       -0.3011111658  CLST         261          1.0000000000
       782       261  TIP3  H1            7.0919604597        1.6853822628       -1.0396524246  CLST         261          1.0000000000
       783       261  TIP3  H2            6.0031478561        1.5263306977       -0.3154637600  CLST         261          1.0000000000
       784       262  TIP3  OH2          -1.7168006825       14.3421408405        3.0516487883  CLST         262          1.0000000000
       785       262  TIP3  H1           -2.1622968954       14.2029590805        3.8799693373  CLST         262          1.0000000000
       786       262  TIP3  H2           -1.3618358395       13.4949456089        3.1545727965  CLST         262          1.0000000000
       787       263  TIP3  OH2           6.5925436991        3.8522474136        1.8804340313  CLST         263          1.0000000000
       788       263  TIP3  H1            6.0988724636        3.2208780059        1.3209440999  CLST         263          1.0000000000
       789       263  TIP3  H2            6.1963369260        3.4148861744        2.6058912557  CLST         263          1.0000000000
       790       264  TIP3  OH2          -3.0074583732       10.2523126745       10.1614687004  CLST         264          1.0000000000
       791       264  TIP3  H1           -2.3702676780       10.9148748697       10.3505661535  CLST         264          1.0000000000
       792       264  TIP3  H2           -2.6010658199       10.2280707541        9.2902311562  CLST         264          1.0000000000
       793       265  TIP3  OH2         -12.5425923083       12.6065913355       -0.1501083411  CLST         265          1.0000000000
       794       265  TIP3  H1          -12.8800062192       12.9875623348       -1.0112783470  CLST         265          1.0000000000
       795       265  TIP3  H2          -13.2009264919       11.8783031836       -0.2434799208  CLST         265          1.0000000000
       796       266  TIP3  OH2          -3.9487419803        1.7245888970        3.9803797099  CLST         266          1.0000000000
       797       266  TIP3  H1           -3.9664630019        0.9045332468        3.5085312299  CLST         266          1.0000000000
       798       266  TIP3  H2           -4.1446824397        2.1875937643        3.1463287312  CLST         266          1.0000000000
       799       267  TIP3  OH2          -6.9456395193       11.3914457869       -5.2896131021  CLST         267          1.0000000000
       800       267  TIP3  H1           -7.7136937993       11.3891261950       -5.8701401373  CLST         267          1.0000000000
       801       267  TIP3  H2           -7.5454114323       12.0195729740       -4.7886071535  CLST         267          1.0000000000
       802       268  TIP3  OH2           4.9925367299        3.6794324376      -14.1937794144  CLST         268          1.0000000000
       803       268  TIP3  H1            5.7443943061        3.9293653009      -13.5680897935  CLST         268          1.0000000000
       804       268  TIP3  H2            4.8069093641        4.5920002714      -14.4029816580  CLST         268          1.0000000000
       805       269  TIP3  OH2           9.3981965958       -0.4367201057       11.1010049776  CLST         269          1.0000000000
       806       269  TIP3  H1           10.1357764152        0.1444980751       11.3655176526  CLST         269          1.0000000000
       807       269  TIP3  H2            9.4119524483       -0.6811482574       12.0252077918  CLST         269          1.0000000000
       808       270  TIP3  OH2          -8.1597167740       -5.9295186972        6.2793504069  CLST         270          1.0000000000
       809       270  TIP3  H1           -8.3491277977       -6.0015428249        5.3127136101  CLST         270          1.0000000000
       810       270  TIP3  H2           -7.4251450649       -5.3837238178        6.2040228296  CLST         270          1.0000000000
       811       271  TIP3  OH2         -11.7576970299       11.8635510700       11.4732224657  CLST         271          1.0000000000
       812       271  TIP3  H1          -11.4075584404       11.9832763156       12.3613953903  CLST         271          1.0000000000
       813       271  TIP3  H2          -11.0919303485       12.4467091969       11.1104688634  CLST         271          1.0000000000
       814       272  TIP3  OH2           6.8197223983      -14.2799769710        3.2766439525  CLST         272          1.0000000000
       815       272  TIP3  H1            7.4799644821      -13.7817762616        4.0235680938  CLST         272          1.0000000000
       816       272  TIP3  H2            6.5877486813      -14.0438483218        4.3541500927  CLST         272          1.0000000000
       817       273  TIP3  OH2          -8.5635707896       11.0059061636       -7.6063922645  CLST         273          1.0000000000
       818       273  TIP3  H1           -9.0632484012       11.6792822637       -8.0432012113  CLST         273          1.0000000000
       819       273  TIP3  H2           -9.3251208981       10.4376274757       -7.6445684119  CLST         273          1.0000000000
       820       274  TIP3  OH2          -6.6143176285        0.6106445116       13.9283250188  CLST         274          1.0000000000
       821       274  TIP3  H1           -7.4708020645        0.8612078760       14.1981176245  CLST         274          1.0000000000
       822       274  TIP3  H2           -7.0747087139        0.5118006940       13.0701452146  CLST         274          1.0000000000
       823       275  TIP3  OH2           3.9325127630      -15.0300065753       -0.8413550276  CLST         275          1.0000000000
       824       275  TIP3  H1            3.0830575088      -14.5956685549       -0.6114318763  CLST         275          1.0000000000
       825       275  TIP3  H2            4.2003078552      -14.3528788321       -1.4630799346  CLST         275          1.0000000000
       826       276  TIP3  OH2           2.5169820358       -9.9886954962        7.1657453127  CLST         276          1.0000000000
       827       276  TIP3  H1            2.5973199295      -10.5567116430        7.9498994258  CLST         276          1.0000000000
       828       276  TIP3  H2            3.2415835679       -9.4935935306        7.5638537712  CLST         276          1.0000000000
       829       277  TIP3  OH2          -7.3383472824        6.9781138892        2.6943515586  CLST         277          1.0000000000
       830       277  TIP3  H1           -7.9521335656        6.7110932165        1.9677640362  CLST         277          1.0000000000
       831       277  TIP3  H2           -6.9488884661        6.1230925453        2.4655625937  CLST         277          1.0000000000
       832       278  TIP3  OH2           4.9615520351      -10.5642883527        9.9825531742  CLST         278          1.0000000000
       833       278  TIP3  H1            5.2803366778       -9.9384050035        9.2679695135  CLST         278          1.0000000000
       834       278  TIP3  H2            4.1895960318      -10.0107708057       10.0816624167  CLST         278          1.0000000000
       835       279  TIP3  OH2          11.9635145216       -5.7177256196        7.3580314321  CLST         279          1.0000000000
       836       279  TIP3  H1           11.5149181031       -6.1245693805        6.5735405266  CLST         279          1.0000000000
       837       279  TIP3  H2           12.4773450846       -5.1871873471        6.7397559616  CLST         279          1.0000000000
       838       280  TIP3  OH2           6.7381932121       -8.9211375940       12.9860649905  CLST         280          1.0000000000
       839       280  TIP3  H1            6.9174670551       -9.8538473451       12.8531698359  CLST         280          1.0000000000
       840       280  TIP3  H2            7.5668193634       -8.5222748138       12.6362880476  CLST         280          1.0000000000
       841       281  TIP3  OH2          -1.5882279537        4.7486365535       10.6407646354  CLST         281          1.0000000000
       842       281  TIP3  H1           -2.2352945387        4.0234456351       10.7629269937  CLST         281          1.0000000000
       843       281  TIP3  H2           -1.4960404718        4.9034317340       11.6101166718  CLST         281          1.0000000000
       844       282  TIP3  OH2          10.7576815347       10.6324864916      -10.8429800332  CLST         282          1.0000000000
       845       282  TIP3  H1           11.1759345024        9.8377548822      -11.2141535625  CLST         282          1.0000000000
       846       282  TIP3  H2           11.4758215729       11.0189296835      -11.4331130822  CLST         282          1.0000000000
       847       283  TIP3  OH2          -2.9219299011       -4.3524088760       -0.0904267127  CLST         283          1.0000000000
       848       283  TIP3  H1           -3.6362335268       -4.5885970182       -0.6902804583  CLST         283          1.0000000000
       849       283  TIP3  H2           -3.0204219331       -5.2304918025        0.3044206473  CLST         283          1.0000000000
       850       284  TIP3  OH2           4.0661532093       10.7670644165        2.2362972369  CLST         284          1.0000000000
       851       284  TIP3  H1            4.0791726353        9.8225289732        2.0734197554  CLST         284          1.0000000000
       852       284  TIP3  H2            3.2212376736       10.6426114791        2.7128206526  CLST         284          1.0000000000
       853       285  TIP3  OH2         -11.5765233747       -6.1336038803        8.2810989349  CLST         285          1.0000000000
       854       285  TIP3  H1          -10.6990165141       -6.4734002345        8.1820756659  CLST         285          1.0000000000
       855       285  TIP3  H2          -11.8334771174       -6.2505336138        7.2949660419  CLST         285          1.0000000000
       856       286  TIP3  OH2          -2.6175021695       -9.7605791552      -10.4975048451  CLST         286          1.0000000000
       857       286  TIP3  H1           -2.3273365148      -10.0332716021      -11.3384905694  CLST         286          1.0000000000
       858       286  TIP3  H2           -3.5084341245      -10.1318024376      -10.5634726217  CLST         286          1.0000000000
       859       287  TIP3  OH2           2.6163839069       -0.7787259158       -7.7792979252  CLST         287          1.0000000000
       860       287  TIP3  H1            2.7056859605        0.1356242917       -8.1412811026  CLST         287          1.0000000000
       861       287  TIP3  H2            3.5824645569       -0.8102867093       -7.6723779545  CLST         287          1.0000000000
       862       288  TIP3  OH2          13.6244867882      -14.3812774809       -8.2482929226  CLST         288          1.0000000000
       863       288  TIP3  H1           13.5335007890      -13.5605098920       -7.8085797015  CLST         288          1.0000000000
       864       288  TIP3  H2           13.8445950055      -14.9147387888       -7.5178661190  CLST         288          1.0000000000
       865       289  TIP3  OH2          14.0607216536        3.6862030213      -10.2677609696  CLST         289          1.0000000000
       866       289  TIP3  H1           13.7326498548        3.5565432410       -9.3889642952  CLST         289          1.0000000000
       867       289  TIP3  H2           14.8538460890        3.2732637823      -10.0219764308  CLST         289          1.0000000000
       868       290  TIP3  OH2          11.6352889531        0.8902113092       11.9935456882  CLST         290          1.0000000000
       869       290  TIP3  H1           11.8344174103        1.1592753717       12.9547277831  CLST         290          1.0000000000
       870       290  TIP3  H2           11.9075966237        1.8257238654       11.8640539407  CLST         290          1.0000000000
       871       291  TIP3  OH2         -11.2844239854       -9.3885938438       -2.6103960220  CLST         291          1.0000000000
       872       291  TIP3  H1          -10.5212294334       -9.6670817136       -2.1215854531  CLST         291          1.0000000000
       873       291  TIP3  H2          -11.4281072545       -8.7856605617       -1.9048793516  CLST         291          1.0000000000
       874       292  TIP3  OH2           9.1071145791       -1.9067741529      -11.6881809909  CLST         292          1.0000000000
       875       292  TIP3  H1            8.4503229878       -2.5317577844      -11.8619120971  CLST         292          1.0000000000
       876       292  TIP3  H2            9.2272098928       -2.4230098145      -10.8600840884  CLST         292          1.0000000000
       877       293  TIP3  OH2           2.4935821107        2.7041694959      -13.4916523363  CLST         293          1.0000000000
       878       293  TIP3  H1            2.1280589284        3.5369711732      -13.7365444394  CLST         293          1.0000000000
       879       293  TIP3  H2            3.4085601704        3.0055083053      -13.7148412403  CLST         293          1.0000000000
       880       294  TIP3  OH2           1.7722782852        7.7096085957        0.9383629783  CLST         294          1.0000000000
       881       294  TIP3  H1            1.4604384300        7.5391213537        1.7683049487  CLST         294          1.0000000000
       882       294  TIP3  H2            2.5001238698        7.5943712884        1.8625416170  CLST         294          1.0000000000
       883       295  TIP3  OH2           3.6257502607       12.7833493525       -4.2859671237  CLST         295          1.0000000000
       884       295  TIP3  H1            3.0862961255       13.4072272239       -3.7861658400  CLST         295          1.0000000000
       885       295  TIP3  H2            3.6849041238       13.4778622598       -4.9968338715  CLST         295          1.0000000000
       886       296  TIP3  OH2           2.7008430989        5.5638030870      -11.2153424439  CLST         296          1.0000000000
       887       296  TIP3  H1            2.2089483127        5.5861367578      -12.0386431393  CLST         296          1.0000000000
       888       296  TIP3  H2            2.0011843762        5.1800558249      -10.7583962065  CLST         296          1.0000000000
       889       297  TIP3  OH2          13.4299332641        0.2229923037        9.0683589494  CLST         297          1.0000000000
       890       297  TIP3  H1           13.7467067797        1.1264618009        8.9505762524  CLST         297          1.0000000000
       891       297  TIP3  H2           14.3541025995       -0.0233971172        8.9821324931  CLST         297          1.0000000000
       892       298  TIP3  OH2          12.1544093337       -5.1460387911      -12.3158280300  CLST         298          1.0000000000
       893       298  TIP3  H1           11.5188918435       -5.6978444537      -12.6917573629  CLST         298          1.0000000000
       894       298  TIP3  H2           12.7914700293       -5.8521628485      -12.4342136258  CLST         298          1.0000000000
       895       299  TIP3  OH2           3.3107250226       -5.8754012595       -7.5067142028  CLST         299          1.0000000000
       896       299  TIP3  H1            2.7452284619       -5.1089360294       -7.6705744415  CLST         299          1.0000000000
       897       299  TIP3  H2            3.6286124682       -5.4059241836       -6.7034463255  CLST         299          1.0000000000
       898       300  TIP3  OH2          10.5003635492       -6.7872320989      -13.6814770717  CLST         300          1.0000000000
       899       300  TIP3  H1           10.0884583430       -5.8451364777      -14.2548913280  CLST         300          1.0000000000
       900       300  TIP3  H2            9.6455155872       -6.6077193373      -13.5466755240  CLST         300          1.0000000000
       901       301  TIP3  OH2          10.9465999443       -6.8696617449        0.3103399876  CLST         301          1.0000000000
       902       301  TIP3  H1           11.0267261044       -6.1978211132       -0.3509452454  CLST         301          1.0000000000
       903       301  TIP3  H2           10.8758612802       -7.4633448430       -0.4829907507  CLST         301          1.0000000000
       904       302  TIP3  OH2          11.5451264109       -7.1667028813       11.8775824684  CLST         302          1.0000000000
       905       302  TIP3  H1           12.0511653255       -6.4798607299       11.4340301778  CLST         302          1.0000000000
       906       302  TIP3  H2           11.7210190642       -7.8806741591       11.2383060167  CLST         302          1.0000000000
       907       303  TIP3  OH2          -8.9878909005       11.6751237100        6.7637891287  CLST         303          1.0000000000
       908       303  TIP3  H1           -9.6067627057       11.8800240426        6.0751541047  CLST         303          1.0000000000
       909       303  TIP3  H2           -8.4881748975       12.3750249461        6.2883658466  CLST         303          1.0000000000
       910       304  TIP3  OH2          -1.9154892792        8.2879843263       -0.7236766790  CLST         304          1.0000000000
       911       304  TIP3  H1           -2.5020366504        7.7260576689       -0.1838420720  CLST         304          1.0000000000
       912       304  TIP3  H2           -2.7258918128        8.7390041969       -0.9581802376  CLST         304          1.0000000000
       913       305  TIP3  OH2          -2.0640309372       -6.0480734729      -10.0891277024  CLST         305          1.0000000000
       914       305  TIP3  H1           -1.8696325200       -5.0869488349      -10.1922507160  CLST         305          1.0000000000
       915       305  TIP3  H2           -1.9380497452       -6.3992171426      -10.9960881944  CLST         305          1.0000000000
       916       306  TIP3  OH2          -8.5571975021      -14.5970859011       -7.0695111414  CLST         306          1.0000000000
       917       306  TIP3  H1           -7.6108111727      -14.7541332638       -7.1710100762  CLST         306          1.0000000000
       918       306  TIP3  H2           -8.2700674798      -14.0641416373       -6.2908867482  CLST         306          1.0000000000
       919       307  TIP3  OH2           0.7540747818       10.0507773336      -14.4004879855  CLST         307          1.0000000000
       920       307  TIP3  H1            1.2208118586       10.6757262957      -13.8543603260  CLST         307          1.0000000000
       921       307  TIP3  H2            1.4879417609        9.4689033686      -14.1481081427  CLST         307          1.0000000000
       922       308  TIP3  OH2          12.4519666576       -3.4886748712       13.2558631566  CLST         308          1.0000000000
       923       308  TIP3  H1           12.6656767730       -3.2137202712       12.3128462150  CLST         308          1.0000000000
       924       308  TIP3  H2           13.2596220557       -4.0137857367       13.1692239678  CLST         308          1.0000000000
       925       309  TIP3  OH2          12.7804811953       12.4830993369       14.8532989451  CLST         309          1.0000000000
       926       309  TIP3  H1           12.2634490757       11.8054003150       14.3183432216  CLST         309          1.0000000000
       927       309  TIP3  H2           13.0011136341       12.8260528456       13.9951414201  CLST         309          1.0000000000
       928       310  TIP3  OH2           4.1688151371       14.4412573344       -6.5337511560  CLST         310          1.0000000000
       929       310  TIP3  H1            3.9455213078       15.0496414586       -7.4402398565  CLST         310          1.0000000000
       930       310  TIP3  H2            3.4781923596       14.1648886801       -7.3481681504  CLST         310          1.0000000000
       931       311  TIP3  OH2          -5.9519943945        5.9669020383       -5.1272121101  CLST         311          1.0000000000
       932       311  TIP3  H1           -6.7072988528        5.3793497045       -5.3545767337  CLST         311          1.0000000000
       933       311  TIP3  H2           -5.9792710848        6.2140425190       -6.0408087934  CLST         311          1.0000000000
       934       312  TIP3  OH2           5.0043148976       -8.8242573798        7.8436649650  CLST         312          1.0000000000
       935       312  TIP3  H1            4.9008568130       -7.8956331746        8.2551864181  CLST         312          1.0000000000
       936       312  TIP3  H2            5.8707688866       -8.4637235550        7.4900566300  CLST         312          1.0000000000
       937       313  TIP3  OH2          -2.1327651682        7.8913413874       11.0234532154  CLST         313          1.0000000000
       938       313  TIP3  H1           -2.6745549081        8.6848968744       10.9643563134  CLST         313          1.0000000000
       939       313  TIP3  H2           -2.9191526228        7.3480986183       10.9121619820  CLST         313          1.0000000000
       940       314  TIP3  OH2           9.5180978365       -2.6749192978       -1.9596373146  CLST         314          1.0000000000
       941       314  TIP3  H1            9.3121120233       -3.3291984628       -0.9854269231  CLST         314          1.0000000000
       942       314  TIP3  H2            8.6500555041       -2.6836175069       -1.3399816097  CLST         314          1.0000000000
       943       315  TIP3  OH2           4.5381723264        9.7674638806       -2.8316696255  CLST         315          1.0000000000
       944       315  TIP3  H1            4.0155875178        9.0233483407       -2.5783509700  CLST         315          1.0000000000
       945       315  TIP3  H2            4.1597828904       10.3256336451       -2.1513440456  CLST         315          1.0000000000
       946       316  TIP3  OH2          13.8342469507       -6.6933350409       -6.0151460852  CLST         316          1.0000000000
       947       316  TIP3  H1           12.9950916316       -6.4000384951       -5.6553732080  CLST         316          1.0000000000
       948       316  TIP3  H2           13.9013756604       -5.8064592628       -6.3621232289  CLST         316          1.0000000000
       949       317  TIP3  OH2          -3.0986286687      -10.0677406267       -2.6832024498  CLST         317          1.0000000000
       950       317  TIP3  H1           -3.3819707043      -10.0450711731       -3.5877029405  CLST         317          1.0000000000
       951       317  TIP3  H2           -2.2610826361       -9.7216369510       -3.0807923048  CLST         317          1.0000000000
       952       318  TIP3  OH2          -1.3312844659        9.8000710384       -4.9933477854  CLST         318          1.0000000000
       953       318  TIP3  H1           -2.1525943769        9.4868606341       -5.3786930838  CLST         318          1.0000000000
       954       318  TIP3  H2           -1.3533017413       10.5544170390       -5.6264866090  CLST         318          1.0000000000
       955       319  TIP3  OH2           6.2969873440       -7.9044796070       -2.1676379688  CLST         319          1.0000000000
       956       319  TIP3  H1            6.7468431102       -8.4055146467       -2.8303301152  CLST         319          1.0000000000
       957       319  TIP3  H2            6.3420241352       -8.7275386277       -1.6422390710  CLST         319          1.0000000000
       958       320  TIP3  OH2           5.8233730945       12.8536081122      -12.3781301934  CLST         320          1.0000000000
       959       320  TIP3  H1            6.1285724120       12.5754704716      -13.2861381840  CLST         320          1.0000000000
       960       320  TIP3  H2            6.6364850860       12.4247687505      -12.0799378787  CLST         320          1.0000000000
       961       321  TIP3  OH2           1.3858711856      -11.2716451943        9.1691158064  CLST         321          1.0000000000
       962       321  TIP3  H1            1.4752807799      -12.0051998508        9.8565847765  CLST         321          1.0000000000
       963       321  TIP3  H2            1.7500734724      -10.7131774903        9.8751458455  CLST         321          1.0000000000
       964       322  TIP3  OH2           0.9538932008        5.7434586032        9.9703616566  CLST         322          1.0000000000
       965       322  TIP3  H1            0.3940094506        6.3742242933        9.5282804573  CLST         322          1.0000000000
       966       322  TIP3  H2            0.0787888617        5.4369660849       10.3814986999  CLST         322          1.0000000000
       967       323  TIP3  OH2           8.0952003142        3.2700620598       12.6155714500  CLST         323          1.0000000000
       968       323  TIP3  H1            7.2766103971        2.8144067777       12.5902473697  CLST         323          1.0000000000
       969       323  TIP3  H2            8.1787051906        3.2079787911       11.6880603081  CLST         323          1.0000000000
       970       324  TIP3  OH2           6.1994766043        3.1441941577       -1.5773812073  CLST         324          1.0000000000
       971       324  TIP3  H1            6.2580371974        4.0359475860       -1.8229244403  CLST         324          1.0000000000
       972       324  TIP3  H2            5.6187001858        2.8368836045       -2.3144796346  CLST         324          1.0000000000
       973       325  TIP3  OH2         -12.2941798606       -8.5553462529       11.7410149909  CLST         325          1.0000000000
       974       325  TIP3  H1          -12.3389975426       -7.5239015428       11.2682053957  CLST         325          1.0000000000
       975       325  TIP3  H2          -11.4958740504       -7.7954381072       11.7279358799  CLST         325          1.0000000000
       976       326  TIP3  OH2         -12.2939517891        9.4433370244       -5.1841103442  CLST         326          1.0000000000
       977       326  TIP3  H1          -12.3616695579       10.3722000040       -5.3840548727  CLST         326          1.0000000000
       978       326  TIP3  H2          -11.6674529328        9.2208470329       -5.8297154121  CLST         326          1.0000000000
       979       327  TIP3  OH2          12.3029190403       -5.5385268633        9.8914478329  CLST         327          1.0000000000
       980       327  TIP3  H1           11.9238269633       -5.9512226658        9.0898341390  CLST         327          1.0000000000
       981       327  TIP3  H2           12.8738258419       -5.1422391915        9.2144794592  CLST         327          1.0000000000
       982       328  TIP3  OH2         -12.4255427284       -8.1320871122      -12.9415154268  CLST         328          1.0000000000
       983       328  TIP3  H1          -11.6845574004       -8.1625871067      -12.3438123010  CLST         328          1.0000000000
       984       328  TIP3  H2          -12.2897789112       -9.1063532413      -13.0102524012  CLST         328          1.0000000000
       985       329  TIP3  OH2           6.8135574859       -4.2267400617       -1.7056321410  CLST         329          1.0000000000
       986       329  TIP3  H1            6.2787976373       -3.9205882331       -0.9484591029  CLST         329          1.0000000000
       987       329  TIP3  H2            5.9289344210       -4.2219166901       -2.1518840807  CLST         329          1.0000000000
       988       330  TIP3  OH2          12.9318129176        5.7439790083      -14.3297089702  CLST         330          1.0000000000
       989       330  TIP3  H1           13.7258352815        5.4049276616      -14.7568983439  CLST         330          1.0000000000
       990       330  TIP3  H2           13.4929965326        5.7203902954      -13.5626517168  CLST         330          1.0000000000
       991       331  TIP3  OH2          -4.5895358786        0.0681416318        6.1367177432  CLST         331          1.0000000000
       992       331  TIP3  H1           -4.4917115259        0.7241896078        5.4504012487  CLST         331          1.0000000000
       993       331  TIP3  H2           -5.5223750509        0.2843441080        6.4051743801  CLST         331          1.0000000000
       994       332  TIP3  OH2          -8.7196141633        9.1295776363       -2.0832931649  CLST         332          1.0000000000
       995       332  TIP3  H1           -9.5106903225        9.7726529770       -1.9546040302  CLST         332          1.0000000000
       996       332  TIP3  H2           -8.3692513271        9.2797444539       -1.1948010469  CLST         332          1.0000000000
       997       333  TIP3  OH2          -6.7616749085       -8.8000270230       -7.0281210182  CLST         333          1.0000000000
       998       333  TIP3  H1           -7.3679213301       -9.3746443064       -7.4950467652  CLST         333          1.0000000000
       999       333  TIP3  H2           -7.3493257719       -8.0039305423       -7.0735289430  CLST         333          1.0000000000
      1000       334  TIP3  OH2         -10.6373502015        8.0199083826       -9.3990710522  CLST         334          1.0000000000
      1001       334  TIP3  H1          -10.0172475383        8.7334739940       -9.5913694841  CLST         334          1.0000000000
      1002       334  TIP3  H2          -10.4767736311        8.2341234417       -8.4902861507  CLST         334          1.0000000000
      1003       335  TIP3  OH2           1.3804436965        0.1338457605       -0.9281506166  CLST         335          1.0000000000
      1004       335  TIP3  H1            1.0174954324       -0.7100410987       -0.4849683396  CLST         335          1.0000000000
      1005       335  TIP3  H2            0.6535570076        0.1265649812       -1.5755441054  CLST         335          1.0000000000
      1006       336  TIP3  OH2          11.5555906367        5.4967700015        1.6103397369  CLST         336          1.0000000000
      1007       336  TIP3  H1           10.7020559789        5.0273451187        1.5516547027  CLST         336          1.0000000000
      1008       336  TIP3  H2           11.0343260871        6.2334725943        1.3417033463  CLST         336          1.0000000000
      1009       337  TIP3  OH2           1.9440462490      -15.0710695723        5.3294176316  CLST         337          1.0000000000
      1010       337  TIP3  H1            2.0999780812      -14.3059089085        5.8924766373  CLST         337          1.0000000000
      1011       337  TIP3  H2            1.6435848903      -14.5485493977        4.5896724131  CLST         337          1.0000000000
      1012       338  TIP3  OH2          -4.7068502103        2.9687234164      -11.8176156293  CLST         338          1.0000000000
      1013       338  TIP3  H1           -5.3476862312        3.1176676183      -12.8029583323  CLST         338          1.0000000000
      1014       338  TIP3  H2           -4.9907332062        2.1159326126      -12.1997742059  CLST         338          1.0000000000
      1015       339  TIP3  OH2           5.0103683704        2.3157876347       -7.7754186746  CLST         339          1.0000000000
      1016       339  TIP3  H1            4.0707762681        2.2239170278       -7.6797576200  CLST         339          1.0000000000
      1017       339  TIP3  H2            4.8832075644        3.0959940366       -8.3015278736  CLST         339          1.0000000000
      1018       340  TIP3  OH2         -10.7053548518       12.1383757123       -8.8554771658  CLST         340          1.0000000000
      1019       340  TIP3  H1          -11.6081373397       11.9437678575       -8.9893563862  CLST         340          1.0000000000
      1020       340  TIP3  H2          -10.8906036205       12.7629399568       -8.1576708876  CLST         340          1.0000000000
      1021       341  TIP3  OH2          -1.6416918296       13.7655702697       -0.4893578685  CLST         341          1.0000000000
      1022       341  TIP3  H1           -1.3468975966       12.9031922444       -0.8293933523  CLST         341          1.0000000000
      1023       341  TIP3  H2           -2.3955390316       13.6501016418       -1.0145646351  CLST         341          1.0000000000
      1024       342  TIP3  OH2         -11.5436394197        3.5019361741        9.6746018999  CLST         342          1.0000000000
      1025       342  TIP3  H1          -12.1169964992        2.8929413576       10.1463888085  CLST         342          1.0000000000
      1026       342  TIP3  H2          -11.0522784242        3.6280158552       10.5133323208  CLST         342          1.0000000000
      1027       343  TIP3  OH2          -0.6342617050       -1.3251484289      -14.0183419080  CLST         343          1.0000000000
      1028       343  TIP3  H1           -1.1742998824       -0.6296996053      -13.7245868932  CLST         343          1.0000000000
      1029       343  TIP3  H2           -0.5731654959       -1.0249864724      -14.9166971737  CLST         343          1.0000000000
      1030       344  TIP3  OH2           8.7992411283        4.0581795057        4.3083335181  CLST         344          1.0000000000
      1031       344  TIP3  H1            8.7856021655        4.9887083357        4.6542723957  CLST         344          1.0000000000
      1032       344  TIP3  H2            8.0217322901        3.9420755684        4.8763774114  CLST         344          1.0000000000
      1033       345  TIP3  OH2           0.2532019537        9.7314240478       -0.2623462450  CLST         345          1.0000000000
      1034       345  TIP3  H1            0.8979010777        9.0233870441       -0.0410295607  CLST         345          1.0000000000
      1035       345  TIP3  H2           -0.3903869559        9.0897401232        0.0199525758  CLST         345          1.0000000000
      1036       346  TIP3  OH2          -4.7121386565      -14.7232751061        6.3307005253  CLST         346          1.0000000000
      1037       346  TIP3  H1           -5.2083233730      -13.7025391127        6.0714650481  CLST         346          1.0000000000
      1038       346  TIP3  H2           -4.3649324774      -13.7946515899        6.7496722019  CLST         346          1.0000000000
      1039       347  TIP3  OH2         -13.7959933091      -11.6560988834       -1.8897293779  CLST         347          1.0000000000
      1040       347  TIP3  H1          -14.3564900164      -11.1311144010       -2.4404889740  CLST         347          1.0000000000
      1041       347  TIP3  H2          -13.5272368164      -10.8538044238       -1.3780451895  CLST         347          1.0000000000
      1042       348  TIP3  OH2           4.4405240225        7.5854562807       -7.5515811934  CLST         348          1.0000000000
      1043       348  TIP3  H1            5.5781875739        7.5619535551       -7.4143225981  CLST         348          1.0000000000
      1044       348  TIP3  H2            4.6456918822        7.7939934979       -6.6117907074  CLST         348          1.0000000000
      1045       349  TIP3  OH2           8.2008554877       10.1106779364        2.5706134263  CLST         349          1.0000000000
      1046       349  TIP3  H1            8.7654090639        9.8264961425        1.5445751342  CLST         349          1.0000000000
      1047       349  TIP3  H2            7.6836084276        9.6460920593        1.8691964739  CLST         349          1.0000000000
      1048       350  TIP3  OH2          -8.5616928462        1.0768868151      -14.7387587016  CLST         350          1.0000000000
      1049       350  TIP3  H1           -8.7108767496        0.3648966199      -14.0897397541  CLST         350          1.0000000000
      1050       350  TIP3  H2           -9.4725944006        1.2176170165      -14.6089213112  CLST         350          1.0000000000
      1051       351  TIP3  OH2          10.0618253266        3.1391391021        6.0667417702  CLST         351          1.0000000000
      1052       351  TIP3  H1           10.3842742701        3.7812984990        5.2598419509  CLST         351          1.0000000000
      1053       351  TIP3  H2           10.0487459733        2.9195847163        4.9195652037  CLST         351          1.0000000000
      1054       352  TIP3  OH2           5.3492430338       -0.7499784590       -8.1691510099  CLST         352          1.0000000000
      1055       352  TIP3  H1            5.9912082252       -1.0247121774       -7.5014084477  CLST         352          1.0000000000
      1056       352  TIP3  H2            5.6359482456        0.1875176103       -7.9480193299  CLST         352          1.0000000000
      1057       353  TIP3  OH2          -1.5155700023        9.6735665326      -12.9397190455  CLST         353          1.0000000000
      1058       353  TIP3  H1           -0.7379331513        9.4609227295      -13.5324077126  CLST         353          1.0000000000
      1059       353  TIP3  H2           -1.7099631307        8.7430239546      -12.8945288165  CLST         353          1.0000000000
      1060       354  TIP3  OH2         -11.7117055362      -10.8990478975      -14.1098832630  CLST         354          1.0000000000
      1061       354  TIP3  H1          -12.0482436685      -11.0843694843      -15.0091433225  CLST         354          1.0000000000
      1062       354  TIP3  H2          -10.9004762412      -11.2583640578      -14.5108364631  CLST         354          1.0000000000
      1063       355  TIP3  OH2           1.8106069386      -13.5819601338       -9.6295265953  CLST         355          1.0000000000
      1064       355  TIP3  H1            1.5814179683      -13.2111584231       -8.7562589807  CLST         355          1.0000000000
      1065       355  TIP3  H2            1.4968229535      -12.7049492221       -9.8995795200  CLST         355          1.0000000000
      1066       356  TIP3  OH2         -12.9018769727       -5.1752252591       -3.1024001692  CLST         356          1.0000000000
      1067       356  TIP3  H1          -12.9471729424       -6.0284678142       -3.5969070759  CLST         356          1.0000000000
      1068       356  TIP3  H2          -13.3831735662       -4.7143296582       -3.8051170314  CLST         356          1.0000000000
      1069       357  TIP3  OH2          -6.6476764999       -9.6237754101        5.0145156783  CLST         357          1.0000000000
      1070       357  TIP3  H1           -5.7205515523       -9.8056247979        4.9939808778  CLST         357          1.0000000000
      1071       357  TIP3  H2           -6.3282892373       -8.8783392711        4.4197113500  CLST         357          1.0000000000
      1072       358  TIP3  OH2          -2.2629913559       -7.6274653062        4.1484713057  CLST         358          1.0000000000
      1073       358  TIP3  H1           -1.3472774137       -7.8167720534        4.0517106551  CLST         358          1.0000000000
      1074       358  TIP3  H2           -2.2246917143       -7.4021675773        5.0863386345  CLST         358          1.0000000000
      1075       359  TIP3  OH2          10.1556766855       10.0002251003       -1.7565839327  CLST         359          1.0000000000
      1076       359  TIP3  H1            9.7805456401       10.2639200811       -0.9049535623  CLST         359          1.0000000000
      1077       359  TIP3  H2           10.6712238480       10.8004008225       -1.7681812716  CLST         359          1.0000000000
      1078       360  TIP3  OH2           7.4925970820       13.1428178818       12.9871718594  CLST         360          1.0000000000
      1079       360  TIP3  H1            8.3595961629       13.4453627954       12.6336449342  CLST         360          1.0000000000
      1080       360  TIP3  H2            7.1699763382       12.8897431058       12.1197705693  CLST         360          1.0000000000
      1081       361  TIP3  OH2          -5.8246273706      -10.5413248551       10.5759704043  CLST         361          1.0000000000
      1082       361  TIP3  H1           -6.6401798642      -11.8575493960        9.2125779698  CLST         361          1.0000000000
      1083       361  TIP3  H2           -6.3497200516      -11.5276565500       10.1441857510  CLST         361          1.0000000000
      1084       362  TIP3  OH2           4.4938260408       -3.6775369599       10.1865823937  CLST         362          1.0000000000
      1085       362  TIP3  H1            4.8514000526       -3.2670875963        9.3720772689  CLST         362          1.0000000000
      1086       362  TIP3  H2            5.3753554936       -3.7619630088       10.5431863194  CLST         362          1.0000000000
      1087       363  TIP3  OH2           5.0569164642       -4.6509530497       14.0572723422  CLST         363          1.0000000000
      1088       363  TIP3  H1            5.6213298455       -4.8992529668       14.8023586450  CLST         363          1.0000000000
      1089       363  TIP3  H2            5.6916212635       -3.9811658838       13.8222039137  CLST         363          1.0000000000
      1090       364  TIP3  OH2          -1.0789458324        4.8960377876       13.3331671413  CLST         364          1.0000000000
      1091       364  TIP3  H1           -0.0895754689        4.8701274966       13.5567578806  CLST         364          1.0000000000
      1092       364  TIP3  H2           -1.0222290878        5.8591224068       13.3916760727  CLST         364          1.0000000000
      1093       365  TIP3  OH2          -7.6797885698        4.7278580418      -11.6843630563  CLST         365          1.0000000000
      1094       365  TIP3  H1           -7.7464458388        5.0632767907      -10.7747309030  CLST         365          1.0000000000
      1095       365  TIP3  H2           -6.7255076421        4.9375029464      -11.5103080161  CLST         365          1.0000000000
      1096       366  TIP3  OH2         -10.1066146262       -2.7674450390        0.7092066026  CLST         366          1.0000000000
      1097       366  TIP3  H1          -10.9814685980       -2.4883478559        0.8812027649  CLST         366          1.0000000000
      1098       366  TIP3  H2          -10.4845394099       -2.8203943416       -0.1728462816  CLST         366          1.0000000000
      1099       367  TIP3  OH2          13.7551386478       10.6329277663       11.7295025252  CLST         367          1.0000000000
      1100       367  TIP3  H1           13.4544256298       11.4149708435       11.2898550605  CLST         367          1.0000000000
      1101       367  TIP3  H2           12.7755887622       10.6380890432       11.9427633774  CLST         367          1.0000000000
      1102       368  TIP3  OH2          -9.9031974768       -1.2362292627       12.8843560011  CLST         368          1.0000000000
      1103       368  TIP3  H1          -10.7476150073       -1.2446230557       12.4945759284  CLST         368          1.0000000000
      1104       368  TIP3  H2           -9.7606436304       -2.1546055758       13.1646318769  CLST         368          1.0000000000
      1105       369  TIP3  OH2           7.6685155723        9.5372672691       -2.2754100858  CLST         369          1.0000000000
      1106       369  TIP3  H1            8.6096026043        9.4616993694       -2.4079277354  CLST         369          1.0000000000
      1107       369  TIP3  H2            7.7028386873        8.6972473033       -1.6663208509  CLST         369          1.0000000000
      1108       370  TIP3  OH2          -6.7138207920      -12.9102951272       -0.8687680842  CLST         370          1.0000000000
      1109       370  TIP3  H1           -5.8770779169      -13.1069591256       -0.5227775679  CLST         370          1.0000000000
      1110       370  TIP3  H2           -7.1622037152      -13.3138370600       -0.1904847361  CLST         370          1.0000000000
      1111       371  TIP3  OH2           8.6334378790       12.2643410596        9.8827679065  CLST         371          1.0000000000
      1112       371  TIP3  H1            8.8043495025       11.8505401153        9.0716988274  CLST         371          1.0000000000
      1113       371  TIP3  H2            7.6821193783       12.2894222666       10.0603180306  CLST         371          1.0000000000
      1114       372  TIP3  OH2          -0.9596360498       11.5473833470       -1.9190754179  CLST         372          1.0000000000
      1115       372  TIP3  H1           -1.6922531528       11.0066152564       -2.2313863591  CLST         372          1.0000000000
      1116       372  TIP3  H2           -0.5889321286       10.7827913168       -1.4691186183  CLST         372          1.0000000000
      1117       373  TIP3  OH2           8.8367841916       -5.5128892597        8.3582535250  CLST         373          1.0000000000
      1118       373  TIP3  H1            8.7475877277       -6.4646301727        8.5879248031  CLST         373          1.0000000000
      1119       373  TIP3  H2            9.7140983949       -5.8303725014        8.1272708505  CLST         373          1.0000000000
      1120       374  TIP3  OH2          11.2212299064       -9.9077902667       -4.6339550323  CLST         374          1.0000000000
      1121       374  TIP3  H1           10.7462544673      -10.2688278765       -3.8894952612  CLST         374          1.0000000000
      1122       374  TIP3  H2           11.1232898337      -10.7446055134       -5.1103406930  CLST         374          1.0000000000
      1123       375  TIP3  OH2           1.3839095382       13.4003925942       -3.0285376293  CLST         375          1.0000000000
      1124       375  TIP3  H1            1.3294879680       13.9924711829       -2.2570083503  CLST         375          1.0000000000
      1125       375  TIP3  H2            0.5585372541       13.8501875316       -3.2817090726  CLST         375          1.0000000000
      1126       376  TIP3  OH2          10.7594025251        4.3334626028       -8.6846621894  CLST         376          1.0000000000
      1127       376  TIP3  H1            9.8607073557        4.7242743869       -8.5171591419  CLST         376          1.0000000000
      1128       376  TIP3  H2           10.8808952529        4.7530320509       -9.5432248531  CLST         376          1.0000000000
      1129       377  TIP3  OH2           8.0342888937       11.1138174895      -11.9574775888  CLST         377          1.0000000000
      1130       377  TIP3  H1            8.6270563829       10.8310529452      -12.6619261994  CLST         377          1.0000000000
      1131       377  TIP3  H2            8.7791440906       10.9015881830      -11.3408368349  CLST         377          1.0000000000
      1132       378  TIP3  OH2           6.2785841193        9.3112494229        7.3290914096  CLST         378          1.0000000000
      1133       378  TIP3  H1            6.5503349646        8.5321522995        7.8396046429  CLST         378          1.0000000000
      1134       378  TIP3  H2            5.5929537042        9.3983011215        8.0226816215  CLST         378          1.0000000000
      1135       379  TIP3  OH2          -6.8787939168      -10.6549998340       -2.3449937807  CLST         379          1.0000000000
      1136       379  TIP3  H1           -6.3257634386      -10.9018864811       -3.1091953188  CLST         379          1.0000000000
      1137       379  TIP3  H2           -6.7333546154      -11.5732783809       -2.1018307000  CLST         379          1.0000000000
      1138       380  TIP3  OH2           7.4666054812       11.5963060361        4.7632981400  CLST         380          1.0000000000
      1139       380  TIP3  H1            6.5130609079       11.7348518875        4.6249632547  CLST         380          1.0000000000
      1140       380  TIP3  H2            7.4698379984       11.0629221574        3.9650932452  CLST         380          1.0000000000
      1141       381  TIP3  OH2          -7.4908980209       -6.8436056011      -10.2667517577  CLST         381          1.0000000000
      1142       381  TIP3  H1           -8.0197223480       -6.6281753787      -11.0654147199  CLST         381          1.0000000000
      1143       381  TIP3  H2           -6.7032378674       -6.4759489647      -10.6322461450  CLST         381          1.0000000000
      1144       382  TIP3  OH2          -3.4185585922        2.3847749752       -2.3186111582  CLST         382          1.0000000000
      1145       382  TIP3  H1           -4.3890015337        2.5657771994       -2.4950338313  CLST         382          1.0000000000
      1146       382  TIP3  H2           -3.8179938369        1.5516136155       -2.5791953289  CLST         382          1.0000000000
      1147       383  TIP3  OH2          -7.5167615191       -9.4349046823        8.5546063393  CLST         383          1.0000000000
      1148       383  TIP3  H1           -6.6321764325       -9.1499621850        8.8794162244  CLST         383          1.0000000000
      1149       383  TIP3  H2           -6.9309601787       -9.6279595555        7.7792120064  CLST         383          1.0000000000
      1150       384  TIP3  OH2         -11.6194176357       -5.3055919438       13.3398647613  CLST         384          1.0000000000
      1151       384  TIP3  H1          -11.7629619725       -6.0054940529       13.9651495745  CLST         384          1.0000000000
      1152       384  TIP3  H2          -12.1140639640       -5.7688442107       12.6517970597  CLST         384          1.0000000000
      1153       385  TIP3  OH2           7.8422441362        0.3377281573        8.9372110719  CLST         385          1.0000000000
      1154       385  TIP3  H1            8.0516404649        1.2323857451        9.5758311573  CLST         385          1.0000000000
      1155       385  TIP3  H2            8.5958548014        0.4230363257        9.7688335485  CLST         385          1.0000000000
      1156       386  TIP3  OH2         -12.3704930728       -8.7149322693        8.2470078465  CLST         386          1.0000000000
      1157       386  TIP3  H1          -11.6344093996       -8.1509449334        8.1729966514  CLST         386          1.0000000000
      1158       386  TIP3  H2          -12.3924780879       -8.5603203576        9.1708064353  CLST         386          1.0000000000
      1159       387  TIP3  OH2          -1.0766986308      -12.7039583251       -0.8497932102  CLST         387          1.0000000000
      1160       387  TIP3  H1           -1.0236041051      -13.2350258046       -0.0441995778  CLST         387          1.0000000000
      1161       387  TIP3  H2           -1.5113554004      -12.1187634535       -0.2516163326  CLST         387          1.0000000000
      1162       388  TIP3  OH2           3.1653019328        7.2114943748        6.9698668590  CLST         388          1.0000000000
      1163       388  TIP3  H1            2.8158893398        7.0237113540        6.1155985996  CLST         388          1.0000000000
      1164       388  TIP3  H2            4.0380358304        7.1281445344        6.5985139790  CLST         388          1.0000000000
      1165       389  TIP3  OH2          -3.6655016994      -11.0521035903       -0.1651922203  CLST         389          1.0000000000
      1166       389  TIP3  H1           -4.6056578587      -10.9534161282       -0.4020606615  CLST         389          1.0000000000
      1167       389  TIP3  H2           -3.5083093313      -10.8393331361       -1.1455045378  CLST         389          1.0000000000
      1168       390  TIP3  OH2          -0.9895173907        4.8473240524        4.4456993513  CLST         390          1.0000000000
      1169       390  TIP3  H1           -0.7536201937        4.1724273922        5.1298536879  CLST         390          1.0000000000
      1170       390  TIP3  H2           -0.6524602861        4.1913759716        3.8595960037  CLST         390          1.0000000000
      1171       391  TIP3  OH2          -6.0904557810       -4.8403572248        1.5803037523  CLST         391          1.0000000000
      1172       391  TIP3  H1           -5.9861516631       -3.8539385365        1.6196348556  CLST         391          1.0000000000
      1173       391  TIP3  H2           -6.9919497611       -4.7681723215        1.9832176439  CLST         391          1.0000000000
      1174       392  TIP3  OH2           4.8794636051        9.0917764479       -5.4674521168  CLST         392          1.0000000000
      1175       392  TIP3  H1            5.6139104749        8.7375195881       -4.8623238718  CLST         392          1.0000000000
      1176       392  TIP3  H2            4.3949974918        9.2553767726       -4.6287885980  CLST         392          1.0000000000
      1177       393  TIP3  OH2          13.2022776791       11.1444254438       -7.9621761936  CLST         393          1.0000000000
      1178       393  TIP3  H1           13.1869411658       10.2174453496       -8.2639213765  CLST         393          1.0000000000
      1179       393  TIP3  H2           12.6590824639       10.9057002951       -7.2184740579  CLST         393          1.0000000000
      1180       394  TIP3  OH2           1.1943767586        6.7220999801        5.2804596414  CLST         394          1.0000000000
      1181       394  TIP3  H1            0.7353276198        7.0571982848        4.4811502624  CLST         394          1.0000000000
      1182       394  TIP3  H2            1.6097355980        6.0094559689        4.6969920771  CLST         394          1.0000000000
      1183       395  TIP3  OH2          -6.2284768520        7.2023565232        0.1030784201  CLST         395          1.0000000000
      1184       395  TIP3  H1           -5.8692747547        6.7918461695        0.9097753130  CLST         395          1.0000000000
      1185       395  TIP3  H2           -5.3687519746        7.5993441187        0.1301862368  CLST         395          1.0000000000
      1186       396  TIP3  OH2          -3.5629797929        9.3438407906       -2.4515887784  CLST         396          1.0000000000
      1187       396  TIP3  H1           -3.7233595190        8.4598121444       -2.7714348005  CLST         396          1.0000000000
      1188       396  TIP3  H2           -4.4923273025        9.4743190013       -2.6133047363  CLST         396          1.0000000000
      1189       397  TIP3  OH2           2.4442265824      -12.7297004411      -13.2785862991  CLST         397          1.0000000000
      1190       397  TIP3  H1            1.6747068264      -12.1910711721      -13.5320949147  CLST         397          1.0000000000
      1191       397  TIP3  H2            2.6747555406      -11.8557816878      -12.9762362497  CLST         397          1.0000000000
      1192       398  TIP3  OH2           9.0876519411       -4.3089292523        0.6937726635  CLST         398          1.0000000000
      1193       398  TIP3  H1            8.8922207018       -5.4498851886        0.7941680478  CLST         398          1.0000000000
      1194       398  TIP3  H2            8.2572869522       -4.8975778320        0.1740566148  CLST         398          1.0000000000
      1195       399  TIP3  OH2         -14.3045619101       -2.9729338894       13.2786104802  CLST         399          1.0000000000
      1196       399  TIP3  H1          -14.7593122716       -3.7799139164       13.4787879812  CLST         399          1.0000000000
      1197       399  TIP3  H2          -13.8285188414       -3.0394911213       14.1253775984  CLST         399          1.0000000000
      1198       400  TIP3  OH2         -13.3084400213        8.6088615066        4.4476838272  CLST         400          1.0000000000
      1199       400  TIP3  H1          -13.6865601302        9.1812840189        5.1601096077  CLST         400          1.0000000000
      1200       400  TIP3  H2          -13.1567633136        8.0043804881        5.1756709952  CLST         400          1.0000000000
      1201       401  TIP3  OH2           1.3809172724        5.1821863583      -13.6226522689  CLST         401          1.0000000000
      1202       401  TIP3  H1            1.3375848985        4.9245292653      -14.5737340560  CLST         401          1.0000000000
      1203       401  TIP3  H2            0.9941250976        6.0358539896      -13.7677157387  CLST         401          1.0000000000
      1204       402  TIP3  OH2          14.4244206483       -5.0718985677       14.1447072480  CLST         402          1.0000000000
      1205       402  TIP3  H1           13.9915021633       -5.9560838116       14.0275865768  CLST         402          1.0000000000
      1206       402  TIP3  H2           14.5904517696       -5.3068356961       15.0710695723  CLST         402          1.0000000000
      1207       403  TIP3  OH2         -13.0244932671       12.1514587481       -2.6826042364  CLST         403          1.0000000000
      1208       403  TIP3  H1          -13.2958134173       11.6941688733       -3.3957458508  CLST         403          1.0000000000
      1209       403  TIP3  H2          -13.3153919237       12.7361076595       -3.7225519744  CLST         403          1.0000000000
      1210       404  TIP3  OH2           5.2164273813       -3.1264614119        0.2699426443  CLST         404          1.0000000000
      1211       404  TIP3  H1            4.3894131611       -2.8402085532        0.6402456039  CLST         404          1.0000000000
      1212       404  TIP3  H2            5.3916908641       -3.5117488849        1.1278234434  CLST         404          1.0000000000
      1213       405  TIP3  OH2           2.3835293841        8.4163308723       -3.2915310499  CLST         405          1.0000000000
      1214       405  TIP3  H1            2.1407573170        9.3356975788       -3.1908287235  CLST         405          1.0000000000
      1215       405  TIP3  H2            1.4294117307        8.1881407607       -3.0294483835  CLST         405          1.0000000000
      1216       406  TIP3  OH2          -8.9736530819       -2.3676187091       -7.6061428420  CLST         406          1.0000000000
      1217       406  TIP3  H1           -8.6056696816       -1.6745512548       -7.0280802692  CLST         406          1.0000000000
      1218       406  TIP3  H2           -9.8338399098       -2.0788371240       -7.3038312119  CLST         406          1.0000000000
      1219       407  TIP3  OH2           5.2745703389        5.6560179848        4.7772470404  CLST         407          1.0000000000
      1220       407  TIP3  H1            6.1863560033        5.8173544382        5.1180229841  CLST         407          1.0000000000
      1221       407  TIP3  H2            5.4989756769        5.8491566908        3.9035396444  CLST         407          1.0000000000
      1222       408  TIP3  OH2         -14.1076073233       -4.4589276589       -5.4291541470  CLST         408          1.0000000000
      1223       408  TIP3  H1          -14.0447005314       -3.4578814839       -5.4817003205  CLST         408          1.0000000000
      1224       408  TIP3  H2          -14.0953445977       -4.5730545193       -6.4410358412  CLST         408          1.0000000000
      1225       409  TIP3  OH2          -2.1956398255      -12.7928553108        1.2588357821  CLST         409          1.0000000000
      1226       409  TIP3  H1           -2.7448063016      -12.8279179660        2.0687218511  CLST         409          1.0000000000
      1227       409  TIP3  H2           -1.5579237549      -12.2866392231        1.8297997497  CLST         409          1.0000000000
      1228       410  TIP3  OH2          12.6886959888       -2.2009969399       10.7863162295  CLST         410          1.0000000000
      1229       410  TIP3  H1           12.5311926855       -1.6116630246       10.0571057561  CLST         410          1.0000000000
      1230       410  TIP3  H2           13.0774185784       -2.8487675161       10.2339377877  CLST         410          1.0000000000
      1231       411  TIP3  OH2           8.7389491149      -13.6213331449       -2.3826643752  CLST         411          1.0000000000
      1232       411  TIP3  H1            8.8515341333      -13.9209588006       -1.4613180207  CLST         411          1.0000000000
      1233       411  TIP3  H2            8.1938753158      -14.4090744471       -2.4997763525  CLST         411          1.0000000000
      1234       412  TIP3  OH2          13.1817087927       -4.6711894747       -7.6599134196  CLST         412          1.0000000000
      1235       412  TIP3  H1           12.4513137200       -4.6174780855       -8.0245523103  CLST         412          1.0000000000
      1236       412  TIP3  H2           12.2875015199       -4.2151765571       -7.0760671943  CLST         412          1.0000000000
      1237       413  TIP3  OH2           7.3929344940        8.3777405689       -5.3277790530  CLST         413          1.0000000000
      1238       413  TIP3  H1            7.5844560407        8.1457095300       -4.4129653846  CLST         413          1.0000000000
      1239       413  TIP3  H2            8.3725502196        8.4358459116       -5.4836548128  CLST         413          1.0000000000
      1240       414  TIP3  OH2          -9.0680646327       -5.3449611147      -11.8639181774  CLST         414          1.0000000000
      1241       414  TIP3  H1           -8.4656021633       -4.4425838938      -12.1736009302  CLST         414          1.0000000000
      1242       414  TIP3  H2           -8.8760839627       -4.3833219167      -11.2640276333  CLST         414          1.0000000000
      1243       415  TIP3  OH2         -14.2008554876        0.9456523039        5.2861165233  CLST         415          1.0000000000
      1244       415  TIP3  H1          -14.4738390168        1.8797802116        5.2399835446  CLST         415          1.0000000000
      1245       415  TIP3  H2          -13.8072480599        1.3008652288        6.1473848646  CLST         415          1.0000000000
      1246       416  TIP3  OH2          11.5662181236       12.3806853696       -2.0398396351  CLST         416          1.0000000000
      1247       416  TIP3  H1           11.9803325187       12.4575128812       -3.0684152903  CLST         416          1.0000000000
      1248       416  TIP3  H2           10.8218199078       12.8024639728       -2.7606037743  CLST         416          1.0000000000
      1249       417  TIP3  OH2          10.5345981809      -12.4159022265       -5.1820165784  CLST         417          1.0000000000
      1250       417  TIP3  H1           10.1867967762      -13.1157806420       -4.6408493232  CLST         417          1.0000000000
      1251       417  TIP3  H2            9.7590308802      -12.4062525442       -5.7344641796  CLST         417          1.0000000000
      1252       418  TIP3  OH2          -1.7307334306        5.2085900030        0.7634471839  CLST         418          1.0000000000
      1253       418  TIP3  H1           -2.2321205200        5.0033812002       -0.0971631490  CLST         418          1.0000000000
      1254       418  TIP3  H2           -2.4178568017        5.1951528831        1.3871251042  CLST         418          1.0000000000
      1255       419  TIP3  OH2          -8.2437627468        9.3211843455        8.0105677315  CLST         419          1.0000000000
      1256       419  TIP3  H1           -8.0277191418       10.4688430119        8.0267190504  CLST         419          1.0000000000
      1257       419  TIP3  H2           -8.8585347634       10.0899995256        7.5906313933  CLST         419          1.0000000000
      1258       420  TIP3  OH2           3.3050512120        9.0856274198      -14.0928802003  CLST         420          1.0000000000
      1259       420  TIP3  H1            4.0000352840        9.1096721906      -13.4162108347  CLST         420          1.0000000000
      1260       420  TIP3  H2            3.4580304755        8.1624370544      -14.2926793098  CLST         420          1.0000000000
      1261       421  TIP3  OH2          -3.8576088595        6.8985213964       -3.6488412747  CLST         421          1.0000000000
      1262       421  TIP3  H1           -4.5870937334        6.3816327131       -3.9911732586  CLST         421          1.0000000000
      1263       421  TIP3  H2           -3.2122459495        6.1893139674       -3.9098329501  CLST         421          1.0000000000
      1264       422  TIP3  OH2           3.1294157341      -10.5199301364       -2.5418187891  CLST         422          1.0000000000
      1265       422  TIP3  H1            2.8975741854      -11.2727362308       -1.9518029469  CLST         422          1.0000000000
      1266       422  TIP3  H2            3.0633004152      -10.0055164526       -1.7036280270  CLST         422          1.0000000000
      1267       423  TIP3  OH2          -5.4772239168        5.1566003325        1.8520301127  CLST         423          1.0000000000
      1268       423  TIP3  H1           -4.8059750973        4.4598511088        1.5836785644  CLST         423          1.0000000000
      1269       423  TIP3  H2           -4.7529381961        5.3939779200        2.4676575486  CLST         423          1.0000000000
      1270       424  TIP3  OH2          -9.6433740988        8.5736440076        4.7442482656  CLST         424          1.0000000000
      1271       424  TIP3  H1           -9.5835649065        9.0374323727        3.9123657525  CLST         424          1.0000000000
      1272       424  TIP3  H2           -9.9515004841        7.8148490247        4.3082993283  CLST         424          1.0000000000
      1273       425  TIP3  OH2          -9.8077187706        2.5230689928       -9.0800001609  CLST         425          1.0000000000
      1274       425  TIP3  H1          -10.1985184997        1.7985967284       -8.6442840134  CLST         425          1.0000000000
      1275       425  TIP3  H2          -10.5569985203        3.0288364230       -8.8217446853  CLST         425          1.0000000000
      1276       426  TIP3  OH2          -1.0979750452       -9.0249667057       -4.2717694920  CLST         426          1.0000000000
      1277       426  TIP3  H1           -0.1368911156       -9.2918055355       -4.4531940927  CLST         426          1.0000000000
      1278       426  TIP3  H2           -1.3001166937       -9.1926829127       -5.2044959686  CLST         426          1.0000000000
      1279       427  TIP3  OH2          -9.7852539995        2.1370787927        5.1315034471  CLST         427          1.0000000000
      1280       427  TIP3  H1           -9.6363929649        3.1652214499        5.1112405160  CLST         427          1.0000000000
      1281       427  TIP3  H2          -10.6320165558        2.2460588571        5.6153886352  CLST         427          1.0000000000
      1282       428  TIP3  OH2          -6.6063569859       13.6896604804        6.7619176752  CLST         428          1.0000000000
      1283       428  TIP3  H1           -6.1221217143       14.4594396177        6.5540171791  CLST         428          1.0000000000
      1284       428  TIP3  H2           -6.4544617326       13.2954165515        5.9208660056  CLST         428          1.0000000000
      1285       429  TIP3  OH2           0.3068089285      -11.5706112838      -10.6687063331  CLST         429          1.0000000000
      1286       429  TIP3  H1           -0.7225880284      -11.9681414567      -10.7393198405  CLST         429          1.0000000000
      1287       429  TIP3  H2           -0.5059004586      -11.4842308404       -9.9367987792  CLST         429          1.0000000000
      1288       430  TIP3  OH2           0.5968935576        9.9480915068       10.0447216266  CLST         430          1.0000000000
      1289       430  TIP3  H1           -0.0099623397       10.5166672154       10.5214082421  CLST         430          1.0000000000
      1290       430  TIP3  H2            1.1054890382        9.8306017188       10.8351264424  CLST         430          1.0000000000
      1291       431  TIP3  OH2          -6.0140514907       -3.4267564456       -4.0749401398  CLST         431          1.0000000000
      1292       431  TIP3  H1           -5.5859841692       -3.2969758404       -4.9109270370  CLST         431          1.0000000000
      1293       431  TIP3  H2           -6.8000837233       -3.7552273344       -4.5466387993  CLST         431          1.0000000000
      1294       432  TIP3  OH2          -5.4033226945        3.7322880521       -3.6415051204  CLST         432          1.0000000000
      1295       432  TIP3  H1           -6.5130269199        3.8223817516       -3.7909605720  CLST         432          1.0000000000
      1296       432  TIP3  H2           -6.0521391806        4.5061398975       -3.2055305252  CLST         432          1.0000000000
      1297       433  TIP3  OH2          -8.6652354804        3.1802972210       10.2554116907  CLST         433          1.0000000000
      1298       433  TIP3  H1           -7.9164371517        3.6612483368        9.8644720066  CLST         433          1.0000000000
      1299       433  TIP3  H2           -8.8665397194        3.7586920536       10.9684457427  CLST         433          1.0000000000
      1300       434  TIP3  OH2           1.1137865722       -4.1932641739        9.6874386568  CLST         434          1.0000000000
      1301       434  TIP3  H1            0.2795410555       -4.0771783180       10.2559553918  CLST         434          1.0000000000
      1302       434  TIP3  H2            1.3986459058       -3.2461046142        9.8463457204  CLST         434          1.0000000000
      1303       435  TIP3  OH2           7.5939434965       -8.4625588019        6.3543242576  CLST         435          1.0000000000
      1304       435  TIP3  H1            8.1266547428       -8.9607127370        5.6838320280  CLST         435          1.0000000000
      1305       435  TIP3  H2            7.5643223890       -7.8609440012        5.5383202094  CLST         435          1.0000000000
      1306       436  TIP3  OH2          -6.6270084212       14.1262352159       -1.9174213691  CLST         436          1.0000000000
      1307       436  TIP3  H1           -6.3279639274       15.0209424380       -1.7890150413  CLST         436          1.0000000000
      1308       436  TIP3  H2           -7.0328366261       14.1979765768       -1.0647894145  CLST         436          1.0000000000
      1309       437  TIP3  OH2          -0.9466731983      -13.2652079549        5.3832232468  CLST         437          1.0000000000
      1310       437  TIP3  H1           -1.4058486710      -12.4894356308        5.7539226588  CLST         437          1.0000000000
      1311       437  TIP3  H2           -0.1739200427      -12.7495128865        5.5994659148  CLST         437          1.0000000000
      1312       438  TIP3  OH2         -12.0029399864       -1.0021653560       -3.1802616412  CLST         438          1.0000000000
      1313       438  TIP3  H1          -11.8230070458       -1.4891506277       -2.3680026466  CLST         438          1.0000000000
      1314       438  TIP3  H2          -12.6276872680       -0.5026151328       -2.6189037311  CLST         438          1.0000000000
      1315       439  TIP3  OH2          -3.9717561649       -3.5695162154        3.5218258461  CLST         439          1.0000000000
      1316       439  TIP3  H1           -4.8790033885       -3.4387994633        3.8285951459  CLST         439          1.0000000000
      1317       439  TIP3  H2           -4.3841798539       -4.4290415023        3.2839892260  CLST         439          1.0000000000
      1318       440  TIP3  OH2          -9.9473587129      -11.3205407006       12.0882686112  CLST         440          1.0000000000
      1319       440  TIP3  H1          -10.0354987792      -11.4080947404       11.1411600050  CLST         440          1.0000000000
      1320       440  TIP3  H2           -9.3143764943      -10.5919296502       11.7464857148  CLST         440          1.0000000000
      1321       441  TIP3  OH2         -14.2173495654        3.6542840409        6.9632920844  CLST         441          1.0000000000
      1322       441  TIP3  H1          -14.4384407898        4.3358444588        7.3370664804  CLST         441          1.0000000000
      1323       441  TIP3  H2          -14.9083620277        4.3523287494        6.4070825423  CLST         441          1.0000000000
      1324       442  TIP3  OH2           9.3334913240        0.6050611747      -12.4396418571  CLST         442          1.0000000000
      1325       442  TIP3  H1            9.5537713723       -0.3212130359      -12.1266209522  CLST         442          1.0000000000
      1326       442  TIP3  H2           10.2765932051        0.7171773356      -12.3325775515  CLST         442          1.0000000000
      1327       443  TIP3  OH2           8.0937074117       -8.4043678227        3.9444240924  CLST         443          1.0000000000
      1328       443  TIP3  H1            8.7754167832       -7.9637823200        3.4024142614  CLST         443          1.0000000000
      1329       443  TIP3  H2            7.7228265606       -7.8837737169        2.9652587544  CLST         443          1.0000000000
      1330       444  TIP3  OH2          12.7435821250        8.2227247409       -0.2637141712  CLST         444          1.0000000000
      1331       444  TIP3  H1           13.0419191644        9.1288101372       -0.3470046274  CLST         444          1.0000000000
      1332       444  TIP3  H2           13.5348168712        7.9309635284        0.1719633745  CLST         444          1.0000000000
      1333       445  TIP3  OH2          -8.8384532628       -9.7255666422       14.2886572064  CLST         445          1.0000000000
      1334       445  TIP3  H1           -8.6867106686       -9.2371051141       13.4476098675  CLST         445          1.0000000000
      1335       445  TIP3  H2           -8.7941244208       -8.7803184090       14.5534673505  CLST         445          1.0000000000
      1336       446  TIP3  OH2          12.8877509609       10.9202820022        0.0049638390  CLST         446          1.0000000000
      1337       446  TIP3  H1           12.3108454022       11.2592780102        0.7320139342  CLST         446          1.0000000000
      1338       446  TIP3  H2           12.3664953603       11.5786807090       -0.5873705051  CLST         446          1.0000000000
      1339       447  TIP3  OH2          -3.4785522106       13.4674975933        4.8695034026  CLST         447          1.0000000000
      1340       447  TIP3  H1           -3.9905721295       14.1551456180        5.3415435228  CLST         447          1.0000000000
      1341       447  TIP3  H2           -4.3040915211       12.9968871136        4.6446776258  CLST         447          1.0000000000
      1342       448  TIP3  OH2         -10.5318074665        9.2639534602      -12.9426509367  CLST         448          1.0000000000
      1343       448  TIP3  H1           -9.8903416436        9.4622307305      -12.2528053230  CLST         448          1.0000000000
      1344       448  TIP3  H2          -10.0249023053        8.4002511011      -12.8875190166  CLST         448          1.0000000000
      1345       449  TIP3  OH2           5.0441019246       -7.8360836852       -5.7524664849  CLST         449          1.0000000000
      1346       449  TIP3  H1            5.4449963314       -8.5552202026       -5.2563567828  CLST         449          1.0000000000
      1347       449  TIP3  H2            4.5468861961       -7.6646357250       -4.9553850242  CLST         449          1.0000000000
      1348       450  TIP3  OH2           4.7688553168       10.2324656309       11.5756795741  CLST         450          1.0000000000
      1349       450  TIP3  H1            5.6628290820        9.8606431541       11.4397741287  CLST         450          1.0000000000
      1350       450  TIP3  H2            4.5085316653        9.9919006930       10.6429049999  CLST         450          1.0000000000
      1351       451  TIP3  OH2         -12.5469760730       10.9158701133      -12.3600265019  CLST         451          1.0000000000
      1352       451  TIP3  H1          -12.6173393839       11.0992522311      -13.2770041476  CLST         451          1.0000000000
      1353       451  TIP3  H2          -11.7724866757       10.4317373157      -12.6218124813  CLST         451          1.0000000000
      1354       452  TIP3  OH2          -9.8910709134       14.5578917370        1.6431915410  CLST         452          1.0000000000
      1355       452  TIP3  H1          -10.6353278460       14.1144885894        2.0092162376  CLST         452          1.0000000000
      1356       452  TIP3  H2          -10.3733009464       14.6026705013        0.8223432234  CLST         452          1.0000000000
      1357       453  TIP3  OH2          -3.2167021898       -8.4622508558      -13.6767329861  CLST         453          1.0000000000
      1358       453  TIP3  H1           -4.0996001036       -8.7678185700      -13.4350731747  CLST         453          1.0000000000
      1359       453  TIP3  H2           -3.2495904621       -8.9328135058      -14.5285905302  CLST         453          1.0000000000
      1360       454  TIP3  OH2          13.6786264415      -13.1864803866       11.2282800222  CLST         454          1.0000000000
      1361       454  TIP3  H1           14.5356414932      -13.2584984489       11.6323237334  CLST         454          1.0000000000
      1362       454  TIP3  H2           13.6282498299      -12.3775992166       11.7602904543  CLST         454          1.0000000000
      1363       455  TIP3  OH2         -13.1748629319       -9.4863514477       -4.5869404999  CLST         455          1.0000000000
      1364       455  TIP3  H1          -13.4423055696       -8.6299986357       -4.2649233627  CLST         455          1.0000000000
      1365       455  TIP3  H2          -12.5425155794       -9.4459729722       -3.8740938770  CLST         455          1.0000000000
      1366       456  TIP3  OH2          -7.9285473423        7.0992083089        6.4288131728  CLST         456          1.0000000000
      1367       456  TIP3  H1           -7.9428112483        7.8251351626        7.0912022831  CLST         456          1.0000000000
      1368       456  TIP3  H2           -8.4176261429        7.8317272491        5.9499551035  CLST         456          1.0000000000
      1369       457  TIP3  OH2          -3.9208714408      -12.8606948864        8.2458241293  CLST         457          1.0000000000
      1370       457  TIP3  H1           -4.0838655873      -13.2094734621        9.1344575432  CLST         457          1.0000000000
      1371       457  TIP3  H2           -3.0758622932      -13.3336128573        8.3008891725  CLST         457          1.0000000000
      1372       458  TIP3  OH2          -2.3022352994       12.1428630954      -11.5269510495  CLST         458          1.0000000000
      1373       458  TIP3  H1           -3.2245401784       12.1942435982      -11.6004924429  CLST         458          1.0000000000
      1374       458  TIP3  H2           -2.3037409992       11.3847721142      -12.2047926746  CLST         458          1.0000000000
      1375       459  TIP3  OH2         -13.7033330729        7.2132273072       -3.9707726830  CLST         459          1.0000000000
      1376       459  TIP3  H1          -13.5799715704        7.6053236065       -3.0593816206  CLST         459          1.0000000000
      1377       459  TIP3  H2          -13.5787710800        8.1321523209       -4.3237634023  CLST         459          1.0000000000
      1378       460  TIP3  OH2           7.0926777532        9.6455537507      -13.9424659508  CLST         460          1.0000000000
      1379       460  TIP3  H1            6.5700092068        9.6806400312      -13.1458126757  CLST         460          1.0000000000
      1380       460  TIP3  H2            6.7271779951       10.4506990923      -14.2548794077  CLST         460          1.0000000000
      1381       461  TIP3  OH2           0.3605178843        7.4479209939      -12.8552572342  CLST         461          1.0000000000
      1382       461  TIP3  H1           -0.3657178042        6.9810560663      -12.4828858402  CLST         461          1.0000000000
      1383       461  TIP3  H2            0.5187341444        7.8698980977      -12.0058382117  CLST         461          1.0000000000
      1384       462  TIP3  OH2           4.3122309664        7.6374551965      -10.3028563480  CLST         462          1.0000000000
      1385       462  TIP3  H1            3.5985237791        6.9899718812      -10.4502132099  CLST         462          1.0000000000
      1386       462  TIP3  H2            4.0828236761        7.6597654522       -9.3546056212  CLST         462          1.0000000000
      1387       463  TIP3  OH2          -1.2479410259      -11.3912004934       -8.1830087014  CLST         463          1.0000000000
      1388       463  TIP3  H1           -2.0998825358      -11.6803506834       -8.5103168976  CLST         463          1.0000000000
      1389       463  TIP3  H2           -1.5904963880      -11.6309168310       -7.3299410431  CLST         463          1.0000000000
      1390       464  TIP3  OH2          -2.2119303476        2.5634238031       14.2629153186  CLST         464          1.0000000000
      1391       464  TIP3  H1           -2.8879227294        2.5327345165       13.6056792762  CLST         464          1.0000000000
      1392       464  TIP3  H2           -1.9354443330        3.4005032295       13.8400103698  CLST         464          1.0000000000
      1393       465  TIP3  OH2         -14.7705704472        5.9006924984        8.0286858329  CLST         465          1.0000000000
      1394       465  TIP3  H1          -14.7906201480        5.7088714852        8.9718473093  CLST         465          1.0000000000
      1395       465  TIP3  H2          -14.6467571442        6.8653291634        8.1638149991  CLST         465          1.0000000000
      1396       466  TIP3  OH2          -4.0465342691      -13.4412268227        3.2262670763  CLST         466          1.0000000000
      1397       466  TIP3  H1           -4.3991402232      -14.3173360349        3.3493824366  CLST         466          1.0000000000
      1398       466  TIP3  H2           -4.8975917454      -13.0856032018        3.3211296993  CLST         466          1.0000000000
      1399       467  TIP3  OH2           4.5093441277       14.8452316565        8.2559474652  CLST         467          1.0000000000
      1400       467  TIP3  H1            5.3904395428       14.5332245168        8.5757777105  CLST         467          1.0000000000
      1401       467  TIP3  H2            4.1316996827       14.5901305948        9.1288667259  CLST         467          1.0000000000
      1402       468  TIP3  OH2          -8.3851669544       -0.9529666355        1.9387442151  CLST         468          1.0000000000
      1403       468  TIP3  H1           -8.7652586435       -1.1479179810        2.7929491638  CLST         468          1.0000000000
      1404       468  TIP3  H2           -9.0176038061       -1.5698586354        1.5315103519  CLST         468          1.0000000000
      1405       469  TIP3  OH2           6.8226168610        0.7971824480       14.5493969491  CLST         469          1.0000000000
      1406       469  TIP3  H1            5.9817492303        0.6958630155       14.0321229869  CLST         469          1.0000000000
      1407       469  TIP3  H2            6.6198092374        1.7364395398       14.3591263491  CLST         469          1.0000000000
      1408       470  TIP3  OH2           1.0705692573       11.5517234967       -8.5693803813  CLST         470          1.0000000000
      1409       470  TIP3  H1            1.4439037024       12.4992481041       -8.5525699889  CLST         470          1.0000000000
      1410       470  TIP3  H2            1.9591999419       11.3081606988       -8.3573615918  CLST         470          1.0000000000
      1411       471  TIP3  OH2           5.3018925455        5.6172074597       -2.2054113894  CLST         471          1.0000000000
      1412       471  TIP3  H1            4.8000278360        5.8695509466       -2.9527436897  CLST         471          1.0000000000
      1413       471  TIP3  H2            4.5136958356        5.8997842225       -1.6838616016  CLST         471          1.0000000000
      1414       472  TIP3  OH2           5.2096025628      -12.2293606319       -6.9745670036  CLST         472          1.0000000000
      1415       472  TIP3  H1            4.9641047346      -12.8521013503       -7.6639210787  CLST         472          1.0000000000
      1416       472  TIP3  H2            5.5658544840      -13.0461928234       -6.5985763612  CLST         472          1.0000000000
      1417       473  TIP3  OH2          -4.1086141215        2.8700576192        1.1032344263  CLST         473          1.0000000000
      1418       473  TIP3  H1           -3.2758501969        2.5581140599        0.7143572737  CLST         473          1.0000000000
      1419       473  TIP3  H2           -4.5759640594        2.1128591427        0.7452585474  CLST         473          1.0000000000
      1420       474  TIP3  OH2           8.2938932521        4.6428637979        7.7301142071  CLST         474          1.0000000000
      1421       474  TIP3  H1            7.9788990128        3.9462178882        6.9006485675  CLST         474          1.0000000000
      1422       474  TIP3  H2            8.9639746301        4.0703696178        7.0520219850  CLST         474          1.0000000000
      1423       475  TIP3  OH2           6.1097690651       -4.3099621058       -7.7868135076  CLST         475          1.0000000000
      1424       475  TIP3  H1            5.9364047470       -3.6079775302       -8.4458957881  CLST         475          1.0000000000
      1425       475  TIP3  H2            6.9590591822       -4.2754909186       -8.2297450985  CLST         475          1.0000000000
      1426       476  TIP3  OH2           3.2541234652       10.1864655217       -7.9299203694  CLST         476          1.0000000000
      1427       476  TIP3  H1            3.6808529345        9.1562156115       -7.5283607530  CLST         476          1.0000000000
      1428       476  TIP3  H2            3.0013703033       10.3121423860       -7.1072314485  CLST         476          1.0000000000
      1429       477  TIP3  OH2          -7.2816564227       -3.4075821621       -9.9603254030  CLST         477          1.0000000000
      1430       477  TIP3  H1           -6.6053362483       -3.1272757966      -10.5649971510  CLST         477          1.0000000000
      1431       477  TIP3  H2           -6.5382546922       -3.6492315216       -9.3732670477  CLST         477          1.0000000000
      1432       478  TIP3  OH2           0.8997431865       -4.9600431473      -12.5426399421  CLST         478          1.0000000000
      1433       478  TIP3  H1            1.1133398993       -5.9203228314      -12.4412851188  CLST         478          1.0000000000
      1434       478  TIP3  H2            1.3541355862       -4.8319244536      -11.7288430916  CLST         478          1.0000000000
      1435       479  TIP3  OH2           0.0089416286       -1.5275110306       -7.3562405009  CLST         479          1.0000000000
      1436       479  TIP3  H1            0.3119663836       -1.3973838610       -6.4086668819  CLST         479          1.0000000000
      1437       479  TIP3  H2            0.9441295783       -1.3738825439       -7.6693129230  CLST         479          1.0000000000
      1438       480  TIP3  OH2           5.5918984965       -1.1767995560        9.1561976230  CLST         480          1.0000000000
      1439       480  TIP3  H1            6.2967799607       -1.8170071931        8.9699686180  CLST         480          1.0000000000
      1440       480  TIP3  H2            6.2488934458       -0.5534964308        8.7462925163  CLST         480          1.0000000000
      1441       481  TIP3  OH2          -6.9708842506        2.1172208264       -5.6813853099  CLST         481          1.0000000000
      1442       481  TIP3  H1           -7.3309955369        3.0000582079       -5.9435215139  CLST         481          1.0000000000
      1443       481  TIP3  H2           -6.1212211946        2.6407069081       -5.8464349933  CLST         481          1.0000000000
      1444       482  TIP3  OH2           3.6234741559       -8.0487566107        4.2341301441  CLST         482          1.0000000000
      1445       482  TIP3  H1            4.0682692318       -7.4220249661        4.7835519749  CLST         482          1.0000000000
      1446       482  TIP3  H2            3.0966373003       -7.3572115825        3.9240581350  CLST         482          1.0000000000
      1447       483  TIP3  OH2         -15.0710695723        0.2685073338       -8.1003243942  CLST         483          1.0000000000
      1448       483  TIP3  H1          -14.7346946017       -0.5585340098       -8.4382312949  CLST         483          1.0000000000
      1449       483  TIP3  H2          -14.1875404149        0.5362021089       -7.9172640042  CLST         483          1.0000000000
      1450       484  TIP3  OH2          14.7980569605       -2.4646804638       -8.7948806617  CLST         484          1.0000000000
      1451       484  TIP3  H1           14.3858254439       -3.2888200766       -8.4500005552  CLST         484          1.0000000000
      1452       484  TIP3  H2           14.0509257959       -2.1084947678       -9.3106503807  CLST         484          1.0000000000
      1453       485  TIP3  OH2          -3.6346237827        5.2615049068        3.7963477021  CLST         485          1.0000000000
      1454       485  TIP3  H1           -2.7613978751        5.0672728440        4.1544727763  CLST         485          1.0000000000
      1455       485  TIP3  H2           -3.8869093329        5.6711905915        4.6526738576  CLST         485          1.0000000000
      1456       486  TIP3  OH2          11.3001120750       12.6970838457       -9.1077677805  CLST         486          1.0000000000
      1457       486  TIP3  H1           11.9406367829       12.1727617976       -8.6763418174  CLST         486          1.0000000000
      1458       486  TIP3  H2           11.3875868628       12.1455432489       -9.9075650028  CLST         486          1.0000000000
      1459       487  TIP3  OH2           2.2153852239       -5.8233777974        3.4818619250  CLST         487          1.0000000000
      1460       487  TIP3  H1            2.5775377881       -4.9911830860        3.8482082364  CLST         487          1.0000000000
      1461       487  TIP3  H2            1.7344445203       -5.2527823223        2.8766232853  CLST         487          1.0000000000
      1462       488  TIP3  OH2         -11.6819112193       -0.5057861194       11.0179550950  CLST         488          1.0000000000
      1463       488  TIP3  H1          -12.1183539451        0.1737565944       10.7679345301  CLST         488          1.0000000000
      1464       488  TIP3  H2          -11.1758073700        0.0106859758       10.5984979121  CLST         488          1.0000000000
      1465       489  TIP3  OH2          -8.6489376090        8.0851870423       -4.7920683281  CLST         489          1.0000000000
      1466       489  TIP3  H1           -8.5919160548        8.3573650665       -3.8414611750  CLST         489          1.0000000000
      1467       489  TIP3  H2           -7.7577615471        7.7601494578       -4.6485849278  CLST         489          1.0000000000
      1468       490  TIP3  OH2         -11.0876530298       11.3086652082        5.2469486098  CLST         490          1.0000000000
      1469       490  TIP3  H1          -11.3393121951       10.4008680707        5.3182564079  CLST         490          1.0000000000
      1470       490  TIP3  H2          -10.4521224511       10.9690942524        4.6161701201  CLST         490          1.0000000000
      1471       491  TIP3  OH2          -1.0851698001      -10.1167232296       10.8186300522  CLST         491          1.0000000000
      1472       491  TIP3  H1           -0.3741009065       -9.9940319645       10.2238157734  CLST         491          1.0000000000
      1473       491  TIP3  H2           -0.8617981485       -9.2695107300       11.1498120685  CLST         491          1.0000000000
      1474       492  TIP3  OH2          -2.1133048275       10.2808717040        2.9060101296  CLST         492          1.0000000000
      1475       492  TIP3  H1           -1.4796533904       10.9667538772        2.8516309904  CLST         492          1.0000000000
      1476       492  TIP3  H2           -2.5019818899       10.5629309976        2.0868162968  CLST         492          1.0000000000
      1477       493  TIP3  OH2          -6.1196597281       10.3317394806       -2.8795534567  CLST         493          1.0000000000
      1478       493  TIP3  H1           -6.2678192589       10.6947095513       -3.8040562355  CLST         493          1.0000000000
      1479       493  TIP3  H2           -7.0419106663       10.1354025786       -2.9552055645  CLST         493          1.0000000000
      1480       494  TIP3  OH2         -13.9461730995       10.7961555477       12.4342469886  CLST         494          1.0000000000
      1481       494  TIP3  H1          -14.8415688441       10.9414244248       12.1963749977  CLST         494          1.0000000000
      1482       494  TIP3  H2          -13.4137878564       11.2869572874       11.8586973908  CLST         494          1.0000000000
      1483       495  TIP3  OH2           3.2477149306      -12.8418737985       13.5981933848  CLST         495          1.0000000000
      1484       495  TIP3  H1            3.0230430319      -12.6762802352       14.5181763534  CLST         495          1.0000000000
      1485       495  TIP3  H2            3.3886262525      -11.8461370054       13.5913455593  CLST         495          1.0000000000
      1486       496  TIP3  OH2         -15.0102796589        6.4279234405        0.4199065446  CLST         496          1.0000000000
      1487       496  TIP3  H1          -14.5972352466        6.5802794735        1.2795589529  CLST         496          1.0000000000
      1488       496  TIP3  H2          -14.9785820033        5.5203877330        0.5380971948  CLST         496          1.0000000000
      1489       497  TIP3  OH2         -13.3378533990       -8.6637946582        3.1388228624  CLST         497          1.0000000000
      1490       497  TIP3  H1          -14.2636082683       -8.6802086550        2.9616694918  CLST         497          1.0000000000
      1491       497  TIP3  H2          -13.5776708106       -8.9525093915        4.0191898300  CLST         497          1.0000000000
      1492       498  TIP3  OH2           4.2771696065       14.1937914598      -10.6643322260  CLST         498          1.0000000000
      1493       498  TIP3  H1            4.5701239068       13.6465143981      -11.6256372090  CLST         498          1.0000000000
      1494       498  TIP3  H2            5.0547460487       13.3800586289      -10.8100269237  CLST         498          1.0000000000
      1495       499  TIP3  OH2           1.5029009609       10.9622235872       -2.8199152992  CLST         499          1.0000000000
      1496       499  TIP3  H1            0.6413899554       11.3674900640       -2.8266145669  CLST         499          1.0000000000
      1497       499  TIP3  H2            1.9022167801       11.8379311242       -2.6671374167  CLST         499          1.0000000000
      1498       500  TIP3  OH2          -6.3231601239       -2.5704765685        4.3211887097  CLST         500          1.0000000000
      1499       500  TIP3  H1           -7.1408570378       -2.1227696113        4.2691649601  CLST         500          1.0000000000
      1500       500  TIP3  H2           -5.9066848483       -1.7814703365        3.8365524773  CLST         500          1.0000000000
      1501       501  TIP3  OH2         -12.4635333238      -13.4216142778       -6.1353297600  CLST         501          1.0000000000
      1502       501  TIP3  H1          -13.1446780765      -13.0692116269       -6.6146285328  CLST         501          1.0000000000
      1503       501  TIP3  H2          -11.7146098484      -12.8781867135       -6.4595190252  CLST         501          1.0000000000
      1504       502  TIP3  OH2          -1.4381204155       -3.9062500483      -11.5178850061  CLST         502          1.0000000000
      1505       502  TIP3  H1           -1.2132473950       -3.0052364917      -11.5912192985  CLST         502          1.0000000000
      1506       502  TIP3  H2           -0.6907805929       -4.1738736637      -12.0154826840  CLST         502          1.0000000000
      1507       503  TIP3  OH2          -0.3904471628       -4.7726695498        0.9750426208  CLST         503          1.0000000000
      1508       503  TIP3  H1            0.3936788084       -5.2160531744        0.6249225971  CLST         503          1.0000000000
      1509       503  TIP3  H2           -1.1032462002       -5.4137816393        0.7286930045  CLST         503          1.0000000000
      1510       504  TIP3  OH2          -4.0605169049       -3.4690703817       12.6292332971  CLST         504          1.0000000000
      1511       504  TIP3  H1           -4.3732458858       -4.3502122983       13.0084098050  CLST         504          1.0000000000
      1512       504  TIP3  H2           -3.9148284958       -3.0926510393       13.5379015995  CLST         504          1.0000000000
      1513       505  TIP3  OH2           5.8751504945       12.0389036901       -9.2426056227  CLST         505          1.0000000000
      1514       505  TIP3  H1            5.9109798593       11.8124839991       -8.3186130388  CLST         505          1.0000000000
      1515       505  TIP3  H2            6.7166970169       12.5352023779       -9.1531653268  CLST         505          1.0000000000
      1516       506  TIP3  OH2          -3.9766333382        3.7344264410       10.4082521762  CLST         506          1.0000000000
      1517       506  TIP3  H1           -4.8390637937        3.6844363218        9.8973259957  CLST         506          1.0000000000
      1518       506  TIP3  H2           -3.9971635361        2.8408398348       10.6327243901  CLST         506          1.0000000000
      1519       507  TIP3  OH2          -2.1532000713        6.9731280601      -12.7360851723  CLST         507          1.0000000000
      1520       507  TIP3  H1           -2.3814070892        6.0752665031      -12.4989955064  CLST         507          1.0000000000
      1521       507  TIP3  H2           -3.0502478681        7.1887812429      -12.7522950818  CLST         507          1.0000000000
      1522       508  TIP3  OH2         -11.2806245865        4.8997644510      -11.3677218905  CLST         508          1.0000000000
      1523       508  TIP3  H1          -12.0479820619        4.6593650720      -11.0449167459  CLST         508          1.0000000000
      1524       508  TIP3  H2          -11.4883654000        3.7605208064      -11.4721754140  CLST         508          1.0000000000
      1525       509  TIP3  OH2           4.8341553151        0.4557819953      -10.8940021261  CLST         509          1.0000000000
      1526       509  TIP3  H1            5.5181698518        0.9225247137      -10.4760928790  CLST         509          1.0000000000
      1527       509  TIP3  H2            5.2825896996        0.4306911236      -11.7479891741  CLST         509          1.0000000000
      1528       510  TIP3  OH2          -4.5618873659        0.2442475875       -3.6772012612  CLST         510          1.0000000000
      1529       510  TIP3  H1           -4.9210957619       -0.3448674595       -4.3346966126  CLST         510          1.0000000000
      1530       510  TIP3  H2           -3.8446952555        0.3704152525       -4.2895559479  CLST         510          1.0000000000
      1531       511  TIP3  OH2         -10.5271626918        1.5646839764       -0.9283187626  CLST         511          1.0000000000
      1532       511  TIP3  H1          -11.0398827557        2.1399168840       -0.2681927853  CLST         511          1.0000000000
      1533       511  TIP3  H2          -11.0812014806        0.8482789920       -0.6032542459  CLST         511          1.0000000000
      1534       512  TIP3  OH2          -3.2236722660       -8.0536085794       -8.5001591780  CLST         512          1.0000000000
      1535       512  TIP3  H1           -2.6535917984       -8.6848267237       -8.9612345395  CLST         512          1.0000000000
      1536       512  TIP3  H2           -3.1681295122       -7.4499484314       -9.2438524970  CLST         512          1.0000000000
      1537       513  TIP3  OH2           9.6131793764       13.9900647714       11.4816531212  CLST         513          1.0000000000
      1538       513  TIP3  H1            9.5137404195       14.8446793338       11.0500877353  CLST         513          1.0000000000
      1539       513  TIP3  H2            9.4513348301       13.6451663632       10.5723865876  CLST         513          1.0000000000
      1540       514  TIP3  OH2          -4.6845977889        7.7511872261      -13.0781616782  CLST         514          1.0000000000
      1541       514  TIP3  H1           -5.2920145949        8.0430193986      -13.7493912446  CLST         514          1.0000000000
      1542       514  TIP3  H2           -5.4592050245        7.9704157245      -12.5039866391  CLST         514          1.0000000000
      1543       515  TIP3  OH2           6.2886476939        6.2929930806       -6.1163652017  CLST         515          1.0000000000
      1544       515  TIP3  H1            5.6621020462        5.9613811948       -5.4864670018  CLST         515          1.0000000000
      1545       515  TIP3  H2            6.8319798823        6.6117476543       -5.4012974296  CLST         515          1.0000000000
      1546       516  TIP3  OH2           9.5594751539        0.1836430108       -7.9192536357  CLST         516          1.0000000000
      1547       516  TIP3  H1           10.5584322863        0.1877134849       -8.0134108772  CLST         516          1.0000000000
      1548       516  TIP3  H2            9.5598791907        1.0948006470       -7.7036228661  CLST         516          1.0000000000
      1549       517  TIP3  OH2          13.9090285614       -6.9424985707       -9.0840893047  CLST         517          1.0000000000
      1550       517  TIP3  H1           13.7619457602       -6.0529292177       -8.6645240577  CLST         517          1.0000000000
      1551       517  TIP3  H2           14.7398316543       -7.0472956142       -8.6862151509  CLST         517          1.0000000000
      1552       518  TIP3  OH2          -0.6400275715       12.1775306664       -6.0668711063  CLST         518          1.0000000000
      1553       518  TIP3  H1            0.2014877593       12.2146651021       -5.6999120514  CLST         518          1.0000000000
      1554       518  TIP3  H2           -0.9150731142       12.6890853119       -5.3319480038  CLST         518          1.0000000000
      1555       519  TIP3  OH2           0.9315144415        4.9290444935        0.9526961939  CLST         519          1.0000000000
      1556       519  TIP3  H1            0.4609868396        4.0964583688        0.9671854398  CLST         519          1.0000000000
      1557       519  TIP3  H2            0.0312726183        5.2779890358        0.6962390035  CLST         519          1.0000000000
      1558       520  TIP3  OH2           6.7572460074        6.5786089294      -10.5239950105  CLST         520          1.0000000000
      1559       520  TIP3  H1            6.0163850487        7.2028173776      -10.5587437962  CLST         520          1.0000000000
      1560       520  TIP3  H2            7.0792730888        7.1868830785       -9.7929680183  CLST         520          1.0000000000
      1561       521  TIP3  OH2          -5.6298512192       10.0558963846        9.6047853513  CLST         521          1.0000000000
      1562       521  TIP3  H1           -4.7568151868       10.1893904596        9.9198005602  CLST         521          1.0000000000
      1563       521  TIP3  H2           -5.1740516326       10.2862453173        8.7513290710  CLST         521          1.0000000000
      1564       522  TIP3  OH2           3.1869398544        3.9221362453        2.2157974644  CLST         522          1.0000000000
      1565       522  TIP3  H1            2.4134097852        4.3832454921        1.8715895526  CLST         522          1.0000000000
      1566       522  TIP3  H2            3.2615258031        3.5583426101        1.3162582726  CLST         522          1.0000000000
      1567       523  TIP3  OH2           8.4221744474        0.6971775264       -3.4986713170  CLST         523          1.0000000000
      1568       523  TIP3  H1            7.4410122235        0.7166374409       -3.6478019403  CLST         523          1.0000000000
      1569       523  TIP3  H2            8.5494700957       -0.0296913649       -4.1122086298  CLST         523          1.0000000000
      1570       524  TIP3  OH2          -5.2829911207        5.6409944024      -10.5609128281  CLST         524          1.0000000000
      1571       524  TIP3  H1           -4.8712011252        6.4355463297      -10.9170314769  CLST         524          1.0000000000
      1572       524  TIP3  H2           -4.5822481643        5.0409387759      -10.8837752781  CLST         524          1.0000000000
      1573       525  TIP3  OH2          -5.7197258016        5.7490860079       -7.8717440873  CLST         525          1.0000000000
      1574       525  TIP3  H1           -5.2543075673        6.5999395095       -7.9791794621  CLST         525          1.0000000000
      1575       525  TIP3  H2           -5.6650513505        5.6456793714       -8.8062057728  CLST         525          1.0000000000
      1576       526  TIP3  OH2           9.4378980619      -11.2024730694      -12.9583419623  CLST         526          1.0000000000
      1577       526  TIP3  H1           10.0332919605      -10.7531577238      -13.4825942144  CLST         526          1.0000000000
      1578       526  TIP3  H2            8.7577387424      -11.1113515760      -13.6556061852  CLST         526          1.0000000000
      1579       527  TIP3  OH2         -11.6123928493       -3.2008932996       -1.6937987232  CLST         527          1.0000000000
      1580       527  TIP3  H1          -12.2571659222       -3.9008944533       -1.9767765818  CLST         527          1.0000000000
      1581       527  TIP3  H2          -10.9313000621       -3.5923979562       -2.2636378204  CLST         527          1.0000000000
      1582       528  TIP3  OH2           4.8377602070      -12.0077572851      -10.9874691399  CLST         528          1.0000000000
      1583       528  TIP3  H1            4.2922963974      -11.2215103237      -10.9484381350  CLST         528          1.0000000000
      1584       528  TIP3  H2            5.5497074115      -11.4066130337      -11.3188256340  CLST         528          1.0000000000
      1585       529  TIP3  OH2          -5.9588118564       -7.3267504405       -4.6737559628  CLST         529          1.0000000000
      1586       529  TIP3  H1           -5.5330576607       -7.9414386744       -5.2650583294  CLST         529          1.0000000000
      1587       529  TIP3  H2           -5.9671253711       -6.6571087114       -5.3533548457  CLST         529          1.0000000000
      1588       530  TIP3  OH2           2.9172918442       -5.7035823087        6.6216150020  CLST         530          1.0000000000
      1589       530  TIP3  H1            2.6868571263       -6.3000549866        7.3445596243  CLST         530          1.0000000000
      1590       530  TIP3  H2            2.0071800294       -5.7583320674        6.1885654909  CLST         530          1.0000000000
      1591       531  TIP3  OH2          -3.2739869609       -3.1056119552      -15.0710695723  CLST         531          1.0000000000
      1592       531  TIP3  H1           -4.0487926196       -2.6376144374      -14.6916342510  CLST         531          1.0000000000
      1593       531  TIP3  H2           -2.7007524660       -2.5293100335      -14.5992584952  CLST         531          1.0000000000
      1594       532  TIP3  OH2          -1.2372989162       -3.4589031224       -2.0586698864  CLST         532          1.0000000000
      1595       532  TIP3  H1           -1.9055307125       -2.7752147695       -2.1946226624  CLST         532          1.0000000000
      1596       532  TIP3  H2           -1.7454087375       -3.8032867413       -1.3538070395  CLST         532          1.0000000000
      1597       533  TIP3  OH2          -3.1331870584       13.1704821968        8.0049539860  CLST         533          1.0000000000
      1598       533  TIP3  H1           -3.8535045988       13.5631507397        7.5531065926  CLST         533          1.0000000000
      1599       533  TIP3  H2           -3.6481431917       12.4158881040        8.1783403523  CLST         533          1.0000000000
      1600       534  TIP3  OH2           6.9312899257       -4.2839693082       -5.1887328021  CLST         534          1.0000000000
      1601       534  TIP3  H1            6.0966423720       -4.2656488311       -4.6833866702  CLST         534          1.0000000000
      1602       534  TIP3  H2            6.4105411076       -4.1677591562       -5.9989676109  CLST         534          1.0000000000
      1603       535  TIP3  OH2           7.2020955783       -3.9317074182      -11.4837180442  CLST         535          1.0000000000
      1604       535  TIP3  H1            6.4332497824       -3.4573678582      -11.1966376788  CLST         535          1.0000000000
      1605       535  TIP3  H2            7.0846010446       -4.3877856800      -10.6497228588  CLST         535          1.0000000000
      1606       536  TIP3  OH2          14.5062786129        8.1339615874       10.8430820425  CLST         536          1.0000000000
      1607       536  TIP3  H1           14.2265963358        8.9827488094       11.2096457462  CLST         536          1.0000000000
      1608       536  TIP3  H2           14.9295604013        8.5518128110       10.0396998561  CLST         536          1.0000000000
      1609       537  TIP3  OH2           4.7768303307       -4.4857131179       -3.5262779659  CLST         537          1.0000000000
      1610       537  TIP3  H1            3.8352844230       -4.3942469195       -3.4580413393  CLST         537          1.0000000000
      1611       537  TIP3  H2            4.6454663014       -5.3993260070       -3.1722785758  CLST         537          1.0000000000
      1612       538  TIP3  OH2          -0.4015320329        7.5478957785       13.1406015827  CLST         538          1.0000000000
      1613       538  TIP3  H1           -1.0171106092        7.7851999898       12.4194534299  CLST         538          1.0000000000
      1614       538  TIP3  H2           -0.4824505582        8.4700120136       13.3724913956  CLST         538          1.0000000000
      1615       539  TIP3  OH2           6.2233668416        8.9185132428        1.1068545277  CLST         539          1.0000000000
      1616       539  TIP3  H1            6.7816412968        8.2830041091        0.7125398641  CLST         539          1.0000000000
      1617       539  TIP3  H2            5.6410954307        8.1313829329        1.2652703950  CLST         539          1.0000000000
      1618       540  TIP3  OH2          11.8938241296       -1.3421596490       -3.9408845872  CLST         540          1.0000000000
      1619       540  TIP3  H1           12.5836118480       -0.7304985590       -4.2642539180  CLST         540          1.0000000000
      1620       540  TIP3  H2           12.1371688016       -1.0156036605       -3.0899232201  CLST         540          1.0000000000
      1621       541  TIP3  OH2          10.2678056505        7.5192405190        8.4815711759  CLST         541          1.0000000000
      1622       541  TIP3  H1           10.2491540038        7.7267406950        9.3967387337  CLST         541          1.0000000000
      1623       541  TIP3  H2           10.8248055411        6.7556195445        8.7079362717  CLST         541          1.0000000000
      1624       542  TIP3  OH2          13.1869350673        0.6514781617       -5.2782714947  CLST         542          1.0000000000
      1625       542  TIP3  H1           12.4552141180        1.1112305922       -5.7216632496  CLST         542          1.0000000000
      1626       542  TIP3  H2           13.1373632896        0.1264671555       -6.0832256427  CLST         542          1.0000000000
      1627       543  TIP3  OH2          10.1017713544       -6.5274932507        5.5711486017  CLST         543          1.0000000000
      1628       543  TIP3  H1           10.2313245754       -6.7208544515        4.6730176406  CLST         543          1.0000000000
      1629       543  TIP3  H2            9.5832136086       -5.7038675389        5.2786606323  CLST         543          1.0000000000
      1630       544  TIP3  OH2           6.8786380359        4.5001379586      -12.3249226805  CLST         544          1.0000000000
      1631       544  TIP3  H1            7.3428269590        3.8956474515      -11.7353037520  CLST         544          1.0000000000
      1632       544  TIP3  H2            7.1593974308        5.1597000768      -11.6602557038  CLST         544          1.0000000000
      1633       545  TIP3  OH2         -11.8655794536        2.1738476005        7.1934656726  CLST         545          1.0000000000
      1634       545  TIP3  H1          -12.6895275785        2.7325438399        7.1322426379  CLST         545          1.0000000000
      1635       545  TIP3  H2          -11.7378809489        2.6244173436        8.0711019473  CLST         545          1.0000000000
      1636       546  TIP3  OH2          -0.9784793823       11.9086739904       10.7457955939  CLST         546          1.0000000000
      1637       546  TIP3  H1           -0.7283491900       12.6753051352       10.2519840438  CLST         546          1.0000000000
      1638       546  TIP3  H2           -0.3990823581       12.1950952443       11.4324493686  CLST         546          1.0000000000
      1639       547  TIP3  OH2          -2.1487955073        7.0452728474        5.7393415853  CLST         547          1.0000000000
      1640       547  TIP3  H1           -2.0507979336        6.4877340568        6.5980582580  CLST         547          1.0000000000
      1641       547  TIP3  H2           -1.6335989805        6.4378860485        5.1891954410  CLST         547          1.0000000000
      1642       548  TIP3  OH2           2.9102614653       -7.8337000698       12.3487777173  CLST         548          1.0000000000
      1643       548  TIP3  H1            2.6273301851       -6.9041127169       12.5043100963  CLST         548          1.0000000000
      1644       548  TIP3  H2            3.8316885246       -7.5093790698       12.1478200122  CLST         548          1.0000000000
      1645       549  TIP3  OH2          -6.5323033547       14.6140945872        3.2522597182  CLST         549          1.0000000000
      1646       549  TIP3  H1           -7.2157275102       14.8448956206        3.8436163541  CLST         549          1.0000000000
      1647       549  TIP3  H2           -6.3348116178       13.7702206927        3.7043969406  CLST         549          1.0000000000
      1648       550  TIP3  OH2          -8.0850833542        4.4023514454       -4.5963251793  CLST         550          1.0000000000
      1649       550  TIP3  H1           -8.4881798756        3.5122727868       -4.6608065979  CLST         550          1.0000000000
      1650       550  TIP3  H2           -8.7819291381        4.5874178847       -4.0678358038  CLST         550          1.0000000000
      1651       551  TIP3  OH2          -2.2036453548      -13.7063694145       -3.1935577305  CLST         551          1.0000000000
      1652       551  TIP3  H1           -1.7725558983      -13.1662396751       -2.4651986555  CLST         551          1.0000000000
      1653       551  TIP3  H2           -2.8777060763      -13.8073627410       -2.5218132157  CLST         551          1.0000000000
      1654       552  TIP3  OH2          -2.3558162955       -7.6993151215       13.4710816401  CLST         552          1.0000000000
      1655       552  TIP3  H1           -2.6597385995       -8.5747682189       13.8652732569  CLST         552          1.0000000000
      1656       552  TIP3  H2           -1.7093964858       -8.0072875318       12.8727318710  CLST         552          1.0000000000
      1657       553  TIP3  OH2           8.2453592301      -13.6894554084        0.2840960927  CLST         553          1.0000000000
      1658       553  TIP3  H1            8.4229996544      -12.8939122578        0.7109124793  CLST         553          1.0000000000
      1659       553  TIP3  H2            8.4810556726      -14.1259775423        1.0866547310  CLST         553          1.0000000000
      1660       554  TIP3  OH2          -9.3940542861      -12.0954120641       -3.7838067185  CLST         554          1.0000000000
      1661       554  TIP3  H1           -9.4559213795      -11.7119460395       -2.9389044039  CLST         554          1.0000000000
      1662       554  TIP3  H2          -10.2231329491      -12.6121465004       -3.5676244558  CLST         554          1.0000000000
      1663       555  TIP3  OH2         -10.9124971738       -5.3779601798       -7.5652971543  CLST         555          1.0000000000
      1664       555  TIP3  H1          -10.8133376013       -4.4071535842       -7.5762849601  CLST         555          1.0000000000
      1665       555  TIP3  H2          -11.0400865794       -5.4271419188       -6.6115132301  CLST         555          1.0000000000
      1666       556  TIP3  OH2         -10.6872435806       11.1672744374       13.6641198849  CLST         556          1.0000000000
      1667       556  TIP3  H1          -11.2660724472       10.5158081620       14.0418652568  CLST         556          1.0000000000
      1668       556  TIP3  H2           -9.9157731180       10.6081129393       13.4790110763  CLST         556          1.0000000000
      1669       557  TIP3  OH2          -2.5243080242       -6.6474921094        1.4282445971  CLST         557          1.0000000000
      1670       557  TIP3  H1           -2.8152215400       -6.7491968171        2.3729367600  CLST         557          1.0000000000
      1671       557  TIP3  H2           -2.7652095975       -7.5974284002        1.3184091533  CLST         557          1.0000000000
      1672       558  TIP3  OH2         -10.6234419966        6.3561604533        2.8971740665  CLST         558          1.0000000000
      1673       558  TIP3  H1          -10.3310894632        5.7686052134        3.6607297091  CLST         558          1.0000000000
      1674       558  TIP3  H2           -9.9354787083        5.9625849872        2.3336479636  CLST         558          1.0000000000
      1675       559  TIP3  OH2           1.0975223065        2.5502865602        0.1415811165  CLST         559          1.0000000000
      1676       559  TIP3  H1            1.5883344068        2.7254496779       -0.6443505883  CLST         559          1.0000000000
      1677       559  TIP3  H2            1.4515273059        1.6344102791       -0.0103579089  CLST         559          1.0000000000
      1678       560  TIP3  OH2          12.5761692099      -11.8155592214        1.2037935691  CLST         560          1.0000000000
      1679       560  TIP3  H1           12.2105713486      -12.3813407290        0.4997551481  CLST         560          1.0000000000
      1680       560  TIP3  H2           12.7561972816      -12.9689070985        1.1069484009  CLST         560          1.0000000000
      1681       561  TIP3  OH2         -12.9338074701        8.7622310470      -10.6525571165  CLST         561          1.0000000000
      1682       561  TIP3  H1          -12.4169178213        8.7716923054      -11.4166717944  CLST         561          1.0000000000
      1683       561  TIP3  H2          -12.0560923697        8.5982049250      -10.2839779656  CLST         561          1.0000000000
      1684       562  TIP3  OH2           9.6258083558        6.7641847068       13.2657818788  CLST         562          1.0000000000
      1685       562  TIP3  H1           10.2147903602        7.1110864044       13.9063340858  CLST         562          1.0000000000
      1686       562  TIP3  H2            9.8070164050        5.8943201544       13.6490075268  CLST         562          1.0000000000
      1687       563  TIP3  OH2           3.1715359144      -10.4442245928       -6.5980700136  CLST         563          1.0000000000
      1688       563  TIP3  H1            4.0391781562      -10.8530741586       -6.7421669649  CLST         563          1.0000000000
      1689       563  TIP3  H2            2.7795024872      -11.2829923328       -6.6394669423  CLST         563          1.0000000000
      1690       564  TIP3  OH2           4.7619823753      -13.4074156594       -2.9282414694  CLST         564          1.0000000000
      1691       564  TIP3  H1            5.1552386240      -13.6163830056       -3.7434559581  CLST         564          1.0000000000
      1692       564  TIP3  H2            3.9439849321      -13.0744419113       -3.3635200024  CLST         564          1.0000000000
      1693       565  TIP3  OH2           1.4993085816       12.0643510142        0.4131760072  CLST         565          1.0000000000
      1694       565  TIP3  H1            1.0995542193       11.2858316260        0.0951784692  CLST         565          1.0000000000
      1695       565  TIP3  H2            2.3348282658       12.0427899912       -0.0969989795  CLST         565          1.0000000000
      1696       566  TIP3  OH2          -8.8618873892        5.5723216510        0.9263758488  CLST         566          1.0000000000
      1697       566  TIP3  H1           -8.9188815495        4.7812905650        0.0776109101  CLST         566          1.0000000000
      1698       566  TIP3  H2           -8.9436278977        5.6654760053        0.1022243768  CLST         566          1.0000000000
      1699       567  TIP3  OH2          12.3357097668        0.0704361203       -8.2132106973  CLST         567          1.0000000000
      1700       567  TIP3  H1           13.3079535081       -0.0351628208       -8.2855887193  CLST         567          1.0000000000
      1701       567  TIP3  H2           12.3156870502       -0.6417516406       -8.9722627453  CLST         567          1.0000000000
      1702       568  TIP3  OH2           8.8678711998       -7.1680020564       11.5801505356  CLST         568          1.0000000000
      1703       568  TIP3  H1            9.7621885281       -7.3092651317       11.9145288204  CLST         568          1.0000000000
      1704       568  TIP3  H2            9.1608824727       -6.2209747402       11.4447000972  CLST         568          1.0000000000
      1705       569  TIP3  OH2          -8.6103500095       -6.4397663750        3.6071888021  CLST         569          1.0000000000
      1706       569  TIP3  H1           -8.7085944790       -6.0742015580        2.7407526795  CLST         569          1.0000000000
      1707       569  TIP3  H2           -9.4181421161       -6.9364766840        3.4030617352  CLST         569          1.0000000000
      1708       570  TIP3  OH2           6.3529856422       11.8984834870       15.0710695723  CLST         570          1.0000000000
      1709       570  TIP3  H1            5.7123443003       12.0003788739       14.4169298904  CLST         570          1.0000000000
      1710       570  TIP3  H2            6.9620628626       12.2955530775       14.4348423206  CLST         570          1.0000000000
      1711       571  TIP3  OH2           9.6533352165        1.3251816003        4.4340253454  CLST         571          1.0000000000
      1712       571  TIP3  H1            8.8060025966        1.3489081054        4.8702863272  CLST         571          1.0000000000
      1713       571  TIP3  H2            9.2567405823        0.7478558971        3.7273690297  CLST         571          1.0000000000
      1714       572  TIP3  OH2           5.3209495840        0.3391437683        2.2068469828  CLST         572          1.0000000000
      1715       572  TIP3  H1            5.2711501036       -0.6121566222        2.5119448438  CLST         572          1.0000000000
      1716       572  TIP3  H2            6.2718280563        0.2476647325        2.0746001635  CLST         572          1.0000000000
      1717       573  TIP3  OH2          -1.8681921090       -6.4016093758       -6.6631896007  CLST         573          1.0000000000
      1718       573  TIP3  H1           -1.6959558785       -7.3414763857       -6.5776342413  CLST         573          1.0000000000
      1719       573  TIP3  H2           -2.3820942799       -6.6743603475       -7.4330764084  CLST         573          1.0000000000
      1720       574  TIP3  OH2          -9.8378931391        0.9404646972        9.8081978352  CLST         574          1.0000000000
      1721       574  TIP3  H1           -9.7581880285        1.8879438205        9.6772324744  CLST         574          1.0000000000
      1722       574  TIP3  H2           -8.9763817885        0.8693468068        9.3824824058  CLST         574          1.0000000000
      1723       575  TIP3  OH2          -3.8668433931       10.7892355092        0.8613844737  CLST         575          1.0000000000
      1724       575  TIP3  H1           -3.9246336125       11.1555500151       -0.0424270801  CLST         575          1.0000000000
      1725       575  TIP3  H2           -4.7560762350       11.1281386691        1.1015797786  CLST         575          1.0000000000
      1726       576  TIP3  OH2          -3.6602505520       -2.4363121069        6.2667712201  CLST         576          1.0000000000
      1727       576  TIP3  H1           -3.7972185951       -1.5520991610        5.8073018786  CLST         576          1.0000000000
      1728       576  TIP3  H2           -3.2488463304       -2.7543823437        5.4208969748  CLST         576          1.0000000000
      1729       577  TIP3  OH2         -12.2600764067       10.9825611337        8.6250336079  CLST         577          1.0000000000
      1730       577  TIP3  H1          -12.1524644202       11.8909957091        8.9703031499  CLST         577          1.0000000000
      1731       577  TIP3  H2          -11.7347715015       11.2226124515        7.8484886810  CLST         577          1.0000000000
      1732       578  TIP3  OH2          -1.7178949892        0.9250592698        5.0916562592  CLST         578          1.0000000000
      1733       578  TIP3  H1           -2.4408653583        1.5363863450        4.9187093942  CLST         578          1.0000000000
      1734       578  TIP3  H2           -2.0173889372        0.8730982599        5.9893593205  CLST         578          1.0000000000
      1735       579  TIP3  OH2          -6.3934740998       11.6933287639        1.5271585833  CLST         579          1.0000000000
      1736       579  TIP3  H1           -6.5038526356       12.5158036153        1.1418601576  CLST         579          1.0000000000
      1737       579  TIP3  H2           -6.9859651637       11.1274023328        1.0090402621  CLST         579          1.0000000000
      1738       580  TIP3  OH2          11.3395267878        3.6427074962       -3.2545902865  CLST         580          1.0000000000
      1739       580  TIP3  H1           11.0655597639        2.8503419256       -2.7888137419  CLST         580          1.0000000000
      1740       580  TIP3  H2           11.8543851552        3.8679800662       -2.4757266033  CLST         580          1.0000000000
      1741       581  TIP3  OH2          13.2061976783      -11.7514068976        3.7144453740  CLST         581          1.0000000000
      1742       581  TIP3  H1           13.3405862651      -11.7140972286        2.7690899388  CLST         581          1.0000000000
      1743       581  TIP3  H2           14.0569401334      -12.1271153481        3.8251842417  CLST         581          1.0000000000
      1744       582  TIP3  OH2           6.5212841429       10.7247545270       -6.9475624667  CLST         582          1.0000000000
      1745       582  TIP3  H1            6.0084148460       10.1329690923       -6.4745359651  CLST         582          1.0000000000
      1746       582  TIP3  H2            6.7037457830       11.2108045971       -6.1314606433  CLST         582          1.0000000000
      1747       583  TIP3  OH2          -2.5226828316        4.3908780983      -10.9667622439  CLST         583          1.0000000000
      1748       583  TIP3  H1           -2.7567802476        3.6383446171      -11.5223602071  CLST         583          1.0000000000
      1749       583  TIP3  H2           -1.6530861937        3.9328328981      -10.9164545455  CLST         583          1.0000000000
      1750       584  TIP3  OH2           2.4233074389       -3.8802839127       -9.6863554928  CLST         584          1.0000000000
      1751       584  TIP3  H1            3.1189892402       -4.5523988004       -9.9125706684  CLST         584          1.0000000000
      1752       584  TIP3  H2            3.2525707908       -3.3186404886       -9.6622146604  CLST         584          1.0000000000
      1753       585  TIP3  OH2         -13.9315447564        0.9597626908       -1.9845888526  CLST         585          1.0000000000
      1754       585  TIP3  H1          -13.7024499676        1.7879510549       -2.4588279823  CLST         585          1.0000000000
      1755       585  TIP3  H2          -14.7610315262        0.8605987544       -2.4902904993  CLST         585          1.0000000000
      1756       586  TIP3  OH2          -7.7350795067        8.3562933125       10.3721203819  CLST         586          1.0000000000
      1757       586  TIP3  H1           -7.3197551793        8.9417809193        9.7423962504  CLST         586          1.0000000000
      1758       586  TIP3  H2           -7.2164970690        7.6395034145       10.0371878770  CLST         586          1.0000000000
      1759       587  TIP3  OH2           4.7086439858        4.4590360237       -9.4856933950  CLST         587          1.0000000000
      1760       587  TIP3  H1            3.6815790379        4.3963434956       -9.9277112953  CLST         587          1.0000000000
      1761       587  TIP3  H2            4.3490026525        4.8356011299      -10.5115278497  CLST         587          1.0000000000
      1762       588  TIP3  OH2           4.9131962833       -9.6737891063      -14.1544519181  CLST         588          1.0000000000
      1763       588  TIP3  H1            4.2642775860       -9.9754638071      -14.8736824114  CLST         588          1.0000000000
      1764       588  TIP3  H2            4.2977516852       -9.3835780488      -13.5030348360  CLST         588          1.0000000000
      1765       589  TIP3  OH2           0.3180810644      -14.1383082143        3.1737967538  CLST         589          1.0000000000
      1766       589  TIP3  H1           -0.3413774735      -14.7764397686        2.8771936477  CLST         589          1.0000000000
      1767       589  TIP3  H2           -0.2881072843      -13.8874483625        3.8622392231  CLST         589          1.0000000000
      1768       590  TIP3  OH2           2.4014773944        1.8631083398       -8.3832009835  CLST         590          1.0000000000
      1769       590  TIP3  H1            1.7319800026        2.5191089878       -8.3036572523  CLST         590          1.0000000000
      1770       590  TIP3  H2            2.4156768602        1.9643146799       -9.3102360073  CLST         590          1.0000000000
      1771       591  TIP3  OH2         -12.8628780436        0.9168051135       -6.6687670015  CLST         591          1.0000000000
      1772       591  TIP3  H1          -11.9206084239        0.9502117823       -6.4329269802  CLST         591          1.0000000000
      1773       591  TIP3  H2          -12.9299062674        1.7901815614       -6.4535581072  CLST         591          1.0000000000
      1774       592  TIP3  OH2          -4.3317468491       -3.8437647380       -6.1726703657  CLST         592          1.0000000000
      1775       592  TIP3  H1           -3.6067583955       -3.7557937086       -6.8569850463  CLST         592          1.0000000000
      1776       592  TIP3  H2           -4.7722751425       -4.4717822229       -6.8166864749  CLST         592          1.0000000000
      1777       593  TIP3  OH2          -1.7054867128        5.3959554453       -4.5054300148  CLST         593          1.0000000000
      1778       593  TIP3  H1           -1.1879373052        6.1844623296       -4.2268610061  CLST         593          1.0000000000
      1779       593  TIP3  H2           -0.9278505288        5.2029201540       -5.1047232475  CLST         593          1.0000000000
      1780       594  TIP3  OH2          11.1153444326       10.5477895223       13.5666099369  CLST         594          1.0000000000
      1781       594  TIP3  H1           10.8868320716        9.9920631255       14.5280521934  CLST         594          1.0000000000
      1782       594  TIP3  H2           10.1583262908       10.5387595765       14.0694967268  CLST         594          1.0000000000
      1783       595  TIP3  OH2          -9.0498114874       13.6076729746        4.5935686954  CLST         595          1.0000000000
      1784       595  TIP3  H1           -9.5441107039       14.1937608147        4.0718495331  CLST         595          1.0000000000
      1785       595  TIP3  H2           -9.2789339716       12.8978055876        4.0082668930  CLST         595          1.0000000000
      1786       596  TIP3  OH2         -14.2207057021       -0.6391188099        8.6868710361  CLST         596          1.0000000000
      1787       596  TIP3  H1          -14.3517972187       -1.5524956775        8.8021371746  CLST         596          1.0000000000
      1788       596  TIP3  H2          -13.3945181101       -0.8152645725        8.1396549958  CLST         596          1.0000000000
      1789       597  TIP3  OH2          -2.9943552574       -5.3929294826       -4.3583791736  CLST         597          1.0000000000
      1790       597  TIP3  H1           -2.7405196735       -5.7131089098       -5.2344699264  CLST         597          1.0000000000
      1791       597  TIP3  H2           -3.3498286014       -4.5994184660       -4.7755287276  CLST         597          1.0000000000
      1792       598  TIP3  OH2          -8.0221284196       -9.4175105738       -9.2080224187  CLST         598          1.0000000000
      1793       598  TIP3  H1           -8.9030966175       -9.8445920800       -9.3129140954  CLST         598          1.0000000000
      1794       598  TIP3  H2           -8.0628925639       -9.0320018531      -10.1097781596  CLST         598          1.0000000000
      1795       599  TIP3  OH2          11.9088722409        0.0436446500      -12.9605230950  CLST         599          1.0000000000
      1796       599  TIP3  H1           12.3439590842        0.7922484102      -13.3510302628  CLST         599          1.0000000000
      1797       599  TIP3  H2           11.8081668597       -0.3686502727      -13.8111465214  CLST         599          1.0000000000
      1798       600  TIP3  OH2          14.0590110156       -9.5997029586        1.8375754250  CLST         600          1.0000000000
      1799       600  TIP3  H1           14.7922947260      -10.1860632053        1.5330839655  CLST         600          1.0000000000
      1800       600  TIP3  H2           13.5677771631      -10.2730403422        1.2928214163  CLST         600          1.0000000000
      1801       601  TIP3  OH2          -2.0564541206       13.1033197100       -8.1363161636  CLST         601          1.0000000000
      1802       601  TIP3  H1           -1.2258042648       13.0375169737       -7.6942359792  CLST         601          1.0000000000
      1803       601  TIP3  H2           -1.5770985101       13.6041846959       -8.8065937654  CLST         601          1.0000000000
      1804       602  TIP3  OH2          13.8435939124       -3.0340402971        8.6491692412  CLST         602          1.0000000000
      1805       602  TIP3  H1           13.1735262885       -2.5931167412        8.1548890775  CLST         602          1.0000000000
      1806       602  TIP3  H2           14.1421799414       -3.4293149000        7.8176261582  CLST         602          1.0000000000
      1807       603  TIP3  OH2          -8.2495083420       -9.5828747321      -11.9985457867  CLST         603          1.0000000000
      1808       603  TIP3  H1           -9.0889841789       -9.1178333569      -11.9488362382  CLST         603          1.0000000000
      1809       603  TIP3  H2           -8.7231656395      -10.4206269368      -12.0444177081  CLST         603          1.0000000000
      1810       604  TIP3  OH2           0.1221380472       -7.9494223678       12.1002404180  CLST         604          1.0000000000
      1811       604  TIP3  H1            0.2746186008       -7.0311928948       11.8475843861  CLST         604          1.0000000000
      1812       604  TIP3  H2            0.9848682753       -8.0963857740       12.4496571014  CLST         604          1.0000000000
      1813       605  TIP3  OH2          10.0061404587        8.3007761221        3.5593016865  CLST         605          1.0000000000
      1814       605  TIP3  H1            9.2090178441        8.7957265741        3.3556842947  CLST         605          1.0000000000
      1815       605  TIP3  H2           10.2967518401        9.0631941178        4.0099239677  CLST         605          1.0000000000
      1816       606  TIP3  OH2           0.7818211314        8.8940877490       -6.4764770420  CLST         606          1.0000000000
      1817       606  TIP3  H1            1.1262938281        9.6393104905       -5.9380507541  CLST         606          1.0000000000
      1818       606  TIP3  H2           -0.0415647564        9.3405026562       -6.3681712821  CLST         606          1.0000000000
      1819       607  TIP3  OH2          -5.0471174960        1.3648388016      -14.0597117771  CLST         607          1.0000000000
      1820       607  TIP3  H1           -6.1777234384        1.3271785867      -14.2092082606  CLST         607          1.0000000000
      1821       607  TIP3  H2           -5.6066473910        1.1402135376      -14.9962813170  CLST         607          1.0000000000
      1822       608  TIP3  OH2          -2.3280298155       -0.5952245352      -11.5305887025  CLST         608          1.0000000000
      1823       608  TIP3  H1           -1.4489399995       -0.2387839131      -11.2863250456  CLST         608          1.0000000000
      1824       608  TIP3  H2           -2.2181935157        0.0317028036      -12.2568943074  CLST         608          1.0000000000
      1825       609  TIP3  OH2           3.7701026492        8.2693822900        2.9675614971  CLST         609          1.0000000000
      1826       609  TIP3  H1            4.3040422973        8.5656644719        3.7489260989  CLST         609          1.0000000000
      1827       609  TIP3  H2            4.5309833760        7.7014491217        2.8403822776  CLST         609          1.0000000000
      1828       610  TIP3  OH2          -7.9123037312       -9.3459855954       11.7279424978  CLST         610          1.0000000000
      1829       610  TIP3  H1           -7.1087558591      -10.1399547976       11.9394612027  CLST         610          1.0000000000
      1830       610  TIP3  H2           -7.0474217943       -9.3679902260       11.0853885145  CLST         610          1.0000000000
      1831       611  TIP3  OH2          13.8412922431       -4.1768415453        6.1992144909  CLST         611          1.0000000000
      1832       611  TIP3  H1           14.3873034328       -4.9256199317        5.8408523143  CLST         611          1.0000000000
      1833       611  TIP3  H2           13.9884230114       -3.7833226362        5.3209449632  CLST         611          1.0000000000
      1834       612  TIP3  OH2          -8.9141168574      -10.5170349970        6.2598205544  CLST         612          1.0000000000
      1835       612  TIP3  H1           -8.1816979167      -10.0130141976        5.8688027800  CLST         612          1.0000000000
      1836       612  TIP3  H2           -9.5748174030       -9.9025672351        5.8957849508  CLST         612          1.0000000000
      1837       613  TIP3  OH2           2.6617643406       -2.2159723575       14.4856085264  CLST         613          1.0000000000
      1838       613  TIP3  H1            2.6466350531       -3.1125463403       14.1700522716  CLST         613          1.0000000000
      1839       613  TIP3  H2            1.7644777386       -2.0614242094       14.0509431222  CLST         613          1.0000000000
      1840       614  TIP3  OH2           1.2240631639        4.6621997711       -9.1765181296  CLST         614          1.0000000000
      1841       614  TIP3  H1            1.9172491267        4.8356492533       -8.5401919756  CLST         614          1.0000000000
      1842       614  TIP3  H2            0.9355133186        5.5756674520       -8.8448944284  CLST         614          1.0000000000
      1843       615  TIP3  OH2           1.3022871490        4.3888184217        7.0979546894  CLST         615          1.0000000000
      1844       615  TIP3  H1            1.9507352109        4.8877551178        7.5329071337  CLST         615          1.0000000000
      1845       615  TIP3  H2            1.6812231875        4.7926915548        6.2703266214  CLST         615          1.0000000000
      1846       616  TIP3  OH2          -7.7730813645        4.2969308768       -7.2137099046  CLST         616          1.0000000000
      1847       616  TIP3  H1           -8.3921147817        4.3231080916       -7.9322699492  CLST         616          1.0000000000
      1848       616  TIP3  H2           -7.2611175927        4.9263444025       -7.7082996176  CLST         616          1.0000000000
      1849       617  TIP3  OH2          14.9345668327        2.1590949480       11.7574418920  CLST         617          1.0000000000
      1850       617  TIP3  H1           14.6544180156        1.1823772250       11.8898606530  CLST         617          1.0000000000
      1851       617  TIP3  H2           14.0586561330        2.4129214715       12.0085185664  CLST         617          1.0000000000
      1852       618  TIP3  OH2          -7.2271890790        3.2660442601        2.7602244360  CLST         618          1.0000000000
      1853       618  TIP3  H1           -6.7184807136        4.0021555087        2.4532292928  CLST         618          1.0000000000
      1854       618  TIP3  H2           -6.8518626906        3.4912223718        3.6122519372  CLST         618          1.0000000000
      1855       619  TIP3  OH2           1.3155963399        5.4606567260       -2.5003121149  CLST         619          1.0000000000
      1856       619  TIP3  H1            0.5292303037        4.8594125475       -2.5096662443  CLST         619          1.0000000000
      1857       619  TIP3  H2            0.7148091686        6.1738852415       -2.7935688461  CLST         619          1.0000000000
      1858       620  TIP3  OH2          -3.6219359765        8.5788015813       -5.7569966950  CLST         620          1.0000000000
      1859       620  TIP3  H1           -3.7262135682        7.9495123873       -5.0642559186  CLST         620          1.0000000000
      1860       620  TIP3  H2           -3.7673862588        8.0901293415       -6.5743053311  CLST         620          1.0000000000
      1861       621  TIP3  OH2           0.9731810778        7.3631301262       -8.6684581487  CLST         621          1.0000000000
      1862       621  TIP3  H1            1.2997248438        8.0064211401       -8.0182026044  CLST         621          1.0000000000
      1863       621  TIP3  H2            0.7907739207        8.1386751860       -9.3569005427  CLST         621          1.0000000000
      1864       622  TIP3  OH2           1.7689013626       10.3532885286        3.7145179153  CLST         622          1.0000000000
      1865       622  TIP3  H1            2.3534859771       10.0010758476        4.3797456384  CLST         622          1.0000000000
      1866       622  TIP3  H2            1.0977331189        9.8345945362        4.1461559272  CLST         622          1.0000000000
      1867       623  TIP3  OH2          -0.0508498064       12.1108056394        2.7054816576  CLST         623          1.0000000000
      1868       623  TIP3  H1            0.4363486306       12.1267866000        1.8649888657  CLST         623          1.0000000000
      1869       623  TIP3  H2            0.7452964308       11.6365075103        3.0495421369  CLST         623          1.0000000000
      1870       624  TIP3  OH2          -9.0466712836       -1.6565308331       -3.8901993627  CLST         624          1.0000000000
      1871       624  TIP3  H1           -8.8347063714       -1.1245657898       -4.6519484007  CLST         624          1.0000000000
      1872       624  TIP3  H2           -9.8916518180       -1.2010860963       -3.9159073898  CLST         624          1.0000000000
      1873       625  TIP3  OH2          -9.7456729163      -13.0290963350       -9.0518986148  CLST         625          1.0000000000
      1874       625  TIP3  H1          -10.0976497378      -12.4575301959       -8.3196917265  CLST         625          1.0000000000
      1875       625  TIP3  H2           -9.2443918339      -13.4935865057       -8.3762030866  CLST         625          1.0000000000
      1876       626  TIP3  OH2          13.3494863349       -5.6812844139       -2.7497600222  CLST         626          1.0000000000
      1877       626  TIP3  H1           12.6666001398       -6.1227239655       -3.2508048882  CLST         626          1.0000000000
      1878       626  TIP3  H2           13.7448622372       -5.3796500255       -3.5522326734  CLST         626          1.0000000000
      1879       627  TIP3  OH2          -0.9708163755      -11.4900802238        7.8750908886  CLST         627          1.0000000000
      1880       627  TIP3  H1            0.0226720143      -11.4467889238        8.0617123721  CLST         627          1.0000000000
      1881       627  TIP3  H2           -0.7685502104      -12.3993361670        8.1769781669  CLST         627          1.0000000000
      1882       628  TIP3  OH2           6.9699383076        8.8909142002       -8.9695479239  CLST         628          1.0000000000
      1883       628  TIP3  H1            6.7531523321        9.7023570393       -9.4533691832  CLST         628          1.0000000000
      1884       628  TIP3  H2            6.9703288024        9.4887308563       -8.2048783564  CLST         628          1.0000000000
      1885       629  TIP3  OH2          -9.7235496892       -0.0829657219       -9.9804930323  CLST         629          1.0000000000
      1886       629  TIP3  H1           -9.0372075337        0.5929113233      -10.1166303312  CLST         629          1.0000000000
      1887       629  TIP3  H2           -9.0748438626       -0.7175263846      -10.2928329971  CLST         629          1.0000000000
      1888       630  TIP3  OH2          11.7929114471       12.1352347815       11.5916902708  CLST         630          1.0000000000
      1889       630  TIP3  H1           11.1350388711       12.8439497018       11.5871790662  CLST         630          1.0000000000
      1890       630  TIP3  H2           11.1891051913       11.7222290237       12.1600033521  CLST         630          1.0000000000
      1891       631  TIP3  OH2         -12.0292086878      -11.4421473399      -11.5609952336  CLST         631          1.0000000000
      1892       631  TIP3  H1          -12.2556805168      -11.3245396784      -12.4800902565  CLST         631          1.0000000000
      1893       631  TIP3  H2          -12.5240557859      -12.2609394012      -11.4469817454  CLST         631          1.0000000000
      1894       632  TIP3  OH2          10.8986461913        2.0634834526        9.0525594345  CLST         632          1.0000000000
      1895       632  TIP3  H1           11.6810849110        1.3457997012        9.4343655286  CLST         632          1.0000000000
      1896       632  TIP3  H2           11.1427292013        1.4494425090        8.5825742435  CLST         632          1.0000000000
      1897       633  TIP3  OH2          -4.3600999516        6.5088297198       10.2690085646  CLST         633          1.0000000000
      1898       633  TIP3  H1           -4.1861341654        5.5799959480       10.4437676924  CLST         633          1.0000000000
      1899       633  TIP3  H2           -5.2555064593        6.2652753273        9.9848578037  CLST         633          1.0000000000
      1900       634  TIP3  OH2          -2.3591211286       -7.2955569161        6.8606812218  CLST         634          1.0000000000
      1901       634  TIP3  H1           -2.5396427594       -8.1846142610        7.1503639919  CLST         634          1.0000000000
      1902       634  TIP3  H2           -1.9615321663       -7.1304809280        7.7271536567  CLST         634          1.0000000000
      1903       635  TIP3  OH2           2.5259059857        2.8283510035       -2.1543644614  CLST         635          1.0000000000
      1904       635  TIP3  H1            2.1922962762        3.4513457521       -2.8221168905  CLST         635          1.0000000000
      1905       635  TIP3  H2            2.1850570875        2.1676698878       -2.7455511125  CLST         635          1.0000000000
      1906       636  TIP3  OH2           4.9556671030       -2.6138115022      -10.1896157289  CLST         636          1.0000000000
      1907       636  TIP3  H1            4.6081834816       -2.0051617622      -10.8873676674  CLST         636          1.0000000000
      1908       636  TIP3  H2            4.8944198646       -1.8236774019       -9.6139044360  CLST         636          1.0000000000
      1909       637  TIP3  OH2           3.5577286568       11.2180455481      -10.4782465985  CLST         637          1.0000000000
      1910       637  TIP3  H1            4.2761143246       11.6096366973       -9.9712060311  CLST         637          1.0000000000
      1911       637  TIP3  H2            3.4320467862       10.7578932979       -9.6397609828  CLST         637          1.0000000000
      1912       638  TIP3  OH2           8.6580039271      -11.9878207040       -7.1015604763  CLST         638          1.0000000000
      1913       638  TIP3  H1            8.1750762924      -12.1377540246       -7.9451431049  CLST         638          1.0000000000
      1914       638  TIP3  H2            9.3514107572      -11.5833907686       -7.7047395793  CLST         638          1.0000000000
      1915       639  TIP3  OH2           7.4620188239      -13.2205850732       -9.2056098081  CLST         639          1.0000000000
      1916       639  TIP3  H1            6.4754737997      -13.3627741336       -9.2734978717  CLST         639          1.0000000000
      1917       639  TIP3  H2            7.4190922733      -14.1803183803       -9.4160132566  CLST         639          1.0000000000
      1918       640  TIP3  OH2          -9.7036183113       -3.1499815333      -10.2946603307  CLST         640          1.0000000000
      1919       640  TIP3  H1           -8.9472024693       -3.0313727315       -9.4621208985  CLST         640          1.0000000000
      1920       640  TIP3  H2           -9.9309605446       -2.7762648550       -9.5385682201  CLST         640          1.0000000000
      1921       641  TIP3  OH2         -13.9108150944       -2.6899658856      -13.3393185865  CLST         641          1.0000000000
      1922       641  TIP3  H1          -13.4021818544       -3.3687382612      -13.3981567476  CLST         641          1.0000000000
      1923       641  TIP3  H2          -12.7613225065       -2.6460487545      -13.1844442368  CLST         641          1.0000000000
      1924       642  TIP3  OH2          -1.9513984721        1.7926737522       10.9812182054  CLST         642          1.0000000000
      1925       642  TIP3  H1           -1.1443556238        1.6795276917       11.4474214583  CLST         642          1.0000000000
      1926       642  TIP3  H2           -2.4573701756        1.4499335572       11.7267211192  CLST         642          1.0000000000
      1927       643  TIP3  OH2         -14.1023348901       -2.8458046306        3.6144291031  CLST         643          1.0000000000
      1928       643  TIP3  H1          -13.3879659189       -2.3681085098        3.9884753539  CLST         643          1.0000000000
      1929       643  TIP3  H2          -14.6790428895       -2.3475093437        4.1014902507  CLST         643          1.0000000000
      1930       644  TIP3  OH2          12.7378793254       -2.8686764298        0.8667591265  CLST         644          1.0000000000
      1931       644  TIP3  H1           13.5396589585       -2.3699912159        1.1082915722  CLST         644          1.0000000000
      1932       644  TIP3  H2           13.2251845674       -3.6223762252        0.4389906575  CLST         644          1.0000000000
      1933       645  TIP3  OH2          -6.7637866014        6.2429655097        8.9285259451  CLST         645          1.0000000000
      1934       645  TIP3  H1           -7.2011904742        6.3927590085        8.0821718223  CLST         645          1.0000000000
      1935       645  TIP3  H2           -6.6932001886        5.2806439118        8.6995999244  CLST         645          1.0000000000
      1936       646  TIP3  OH2           6.8735104318      -11.1317785648       11.7004776329  CLST         646          1.0000000000
      1937       646  TIP3  H1            6.0129061363      -11.2459188381       11.2976248084  CLST         646          1.0000000000
      1938       646  TIP3  H2            7.1586778579      -12.0315242026       11.7573030648  CLST         646          1.0000000000
      1939       647  TIP3  OH2         -12.8791751326       -9.1969239763       -7.2437487804  CLST         647          1.0000000000
      1940       647  TIP3  H1          -13.4655048025       -9.7540718786       -6.6580525724  CLST         647          1.0000000000
      1941       647  TIP3  H2          -12.1575229532       -9.0806154616       -6.5903450764  CLST         647          1.0000000000
      1942       648  TIP3  OH2         -13.7709816657        3.3728466658       -6.2585112457  CLST         648          1.0000000000
      1943       648  TIP3  H1          -14.7265641206        3.2074355799       -6.1421384264  CLST         648          1.0000000000
      1944       648  TIP3  H2          -13.7699994505        3.2388007754       -5.2524820570  CLST         648          1.0000000000
      1945       649  TIP3  OH2          -1.7699067641       -3.3898838668       -7.4106189001  CLST         649          1.0000000000
      1946       649  TIP3  H1           -0.8721487906       -3.0837421135       -7.1920753932  CLST         649          1.0000000000
      1947       649  TIP3  H2           -1.2948036346       -4.1939479901       -7.6411860770  CLST         649          1.0000000000
      1948       650  TIP3  OH2          -4.5492447816       -3.3541224842      -11.7777745258  CLST         650          1.0000000000
      1949       650  TIP3  H1           -3.7762029514       -3.0880392075      -11.7407147621  CLST         650          1.0000000000
      1950       650  TIP3  H2           -4.2705426121       -2.3333557270      -11.2846508462  CLST         650          1.0000000000
      1951       651  TIP3  OH2           1.1408185730       -4.0892211607       14.1561992268  CLST         651          1.0000000000
      1952       651  TIP3  H1            0.1736800198       -4.3286354765       14.2607502774  CLST         651          1.0000000000
      1953       651  TIP3  H2            1.4757775059       -4.2939431658       15.0710695723  CLST         651          1.0000000000
      1954       652  TIP3  OH2           2.1811216466       -8.9473483051       10.1426616792  CLST         652          1.0000000000
      1955       652  TIP3  H1            2.0456589733       -8.2927876043       10.8260305861  CLST         652          1.0000000000
      1956       652  TIP3  H2            2.1426622586       -8.2003731363        9.5235871551  CLST         652          1.0000000000
      1957       653  TIP3  OH2          13.6161539128        1.1668303795       -2.5913449737  CLST         653          1.0000000000
      1958       653  TIP3  H1           12.6750302661        1.1649305944       -2.6775548320  CLST         653          1.0000000000
      1959       653  TIP3  H2           13.5783804276        1.1939381502       -3.5783261297  CLST         653          1.0000000000
      1960       654  TIP3  OH2          -5.9028913969        8.7785412524       12.9913241409  CLST         654          1.0000000000
      1961       654  TIP3  H1           -5.0791538321        9.1801646559       13.3686672875  CLST         654          1.0000000000
      1962       654  TIP3  H2           -5.4399273507        8.4161683791       12.1970454609  CLST         654          1.0000000000
      1963       655  TIP3  OH2          -4.0879640537        1.5367969416       12.5419516055  CLST         655          1.0000000000
      1964       655  TIP3  H1           -4.2283393167        0.5976666506       12.2212781317  CLST         655          1.0000000000
      1965       655  TIP3  H2           -4.9898719698        1.4589955031       12.7250809176  CLST         655          1.0000000000
      1966       656  TIP3  OH2         -14.0360166910       -4.7424311750      -10.9555607405  CLST         656          1.0000000000
      1967       656  TIP3  H1          -14.8470384887       -4.1803761132      -11.1131738058  CLST         656          1.0000000000
      1968       656  TIP3  H2          -13.9637403617       -5.3016799994      -11.7465845229  CLST         656          1.0000000000
      1969       657  TIP3  OH2           4.5016683372       -0.9988013596        5.4257389009  CLST         657          1.0000000000
      1970       657  TIP3  H1            5.1393958998       -0.3929632342        5.8156992778  CLST         657          1.0000000000
      1971       657  TIP3  H2            3.8148222646       -0.5845993163        5.9860328547  CLST         657          1.0000000000
      1972       658  TIP3  OH2         -14.0014144535       -7.0678122128       -4.9314272202  CLST         658          1.0000000000
      1973       658  TIP3  H1          -14.0063058744       -6.3549640373       -5.5766538436  CLST         658          1.0000000000
      1974       658  TIP3  H2          -14.8963078693       -7.2411281830       -5.2526090761  CLST         658          1.0000000000
      1975       659  TIP3  OH2           9.5269997777      -13.1166369369        9.8417544129  CLST         659          1.0000000000
      1976       659  TIP3  H1            8.9351976487      -12.5180214713        9.3622581289  CLST         659          1.0000000000
      1977       659  TIP3  H2            8.7035606158      -13.6368426614       10.0683664295  CLST         659          1.0000000000
      1978       660  TIP3  OH2         -14.5530083056       -8.9035943199        6.6411357344  CLST         660          1.0000000000
      1979       660  TIP3  H1          -15.0710695723       -9.5376510632        7.1170309098  CLST         660          1.0000000000
      1980       660  TIP3  H2          -13.7858427782       -9.0087123488        7.2120241187  CLST         660          1.0000000000
      1981       661  TIP3  OH2           2.7979068092        1.1056583437       -4.6352531205  CLST         661          1.0000000000
      1982       661  TIP3  H1            2.1648725042        1.7537897682       -4.8631939199  CLST         661          1.0000000000
      1983       661  TIP3  H2            2.2457016519        0.4036397509       -4.9949434921  CLST         661          1.0000000000
      1984       662  TIP3  OH2          -8.6833226639       -5.0750545048        1.2505561417  CLST         662          1.0000000000
      1985       662  TIP3  H1           -9.2053961649       -5.6124399158        0.5768591215  CLST         662          1.0000000000
      1986       662  TIP3  H2           -9.2417869506       -4.2737424109        1.1610446933  CLST         662          1.0000000000
      1987       663  TIP3  OH2           6.0226260015       -1.9709790527        3.3441148563  CLST         663          1.0000000000
      1988       663  TIP3  H1            5.5577522360       -1.7190502388        4.1400249733  CLST         663          1.0000000000
      1989       663  TIP3  H2            5.7293670137       -2.8816692947        3.5676371348  CLST         663          1.0000000000
      1990       664  TIP3  OH2          10.4576762140      -14.2325535843        2.6477183243  CLST         664          1.0000000000
      1991       664  TIP3  H1           10.2138434412      -13.7932957925        3.4580252795  CLST         664          1.0000000000
      1992       664  TIP3  H2           10.3646378313      -15.0710695723        3.0060310977  CLST         664          1.0000000000
      1993       665  TIP3  OH2           9.4221871538       10.1715002525      -14.1844623044  CLST         665          1.0000000000
      1994       665  TIP3  H1            8.8638198282        9.3861299655      -13.9474348160  CLST         665          1.0000000000
      1995       665  TIP3  H2            8.7531311920       10.2714122083      -14.8916251282  CLST         665          1.0000000000
      1996       666  TIP3  OH2         -11.4984359056       -7.7213131171       -8.9477531950  CLST         666          1.0000000000
      1997       666  TIP3  H1          -11.5352341496       -7.1237824957       -8.1599171748  CLST         666          1.0000000000
      1998       666  TIP3  H2          -12.2786031823       -8.1465297703       -8.5379735267  CLST         666          1.0000000000
      1999       667  TIP3  OH2         -11.1921946188        5.4064741247        7.8109138921  CLST         667          1.0000000000
      2000       667  TIP3  H1          -11.3943243228        4.7226255956        8.3961896666  CLST         667          1.0000000000
      2001       667  TIP3  H2          -10.9087894648        5.9002752954        8.5698339692  CLST         667          1.0000000000
      2002       668  TIP3  OH2         -12.5304505163       -0.0707180811        0.1598249212  CLST         668          1.0000000000
      2003       668  TIP3  H1          -13.0890264103        0.3735479763        0.8543714993  CLST         668          1.0000000000
      2004       668  TIP3  H2          -13.2742026869        0.1726481481       -0.4048921216  CLST         668          1.0000000000
      2005       669  TIP3  OH2          -3.7165691011      -11.5590581819        5.2937096555  CLST         669          1.0000000000
      2006       669  TIP3  H1           -3.7138678206      -12.2169263559        4.6077597787  CLST         669          1.0000000000
      2007       669  TIP3  H2           -3.7209163274      -10.8971571643        4.6076118100  CLST         669          1.0000000000
      2008       670  TIP3  OH2          -6.0572984387       -2.1503948546        1.1651568817  CLST         670          1.0000000000
      2009       670  TIP3  H1           -6.8502342042       -1.6191757239        1.3604668852  CLST         670          1.0000000000
      2010       670  TIP3  H2           -5.8593277086       -1.5730414712        0.4124616333  CLST         670          1.0000000000
      2011       671  TIP3  OH2           4.0867361449       -9.3760620486      -10.9621861647  CLST         671          1.0000000000
      2012       671  TIP3  H1            3.7963156284       -8.9117428851      -10.1296495366  CLST         671          1.0000000000
      2013       671  TIP3  H2            4.8752262836       -8.8348393822      -11.1909589647  CLST         671          1.0000000000
      2014       672  TIP3  OH2          12.0201046799      -12.6795386581        9.0673591143  CLST         672          1.0000000000
      2015       672  TIP3  H1           11.2566466242      -13.0796446786        9.4741060314  CLST         672          1.0000000000
      2016       672  TIP3  H2           12.6103964284      -13.1199369439        9.7394630603  CLST         672          1.0000000000
      2017       673  TIP3  OH2           6.8518445159       -4.4620907195        6.8693429478  CLST         673          1.0000000000
      2018       673  TIP3  H1            7.4031793275       -3.7086616630        6.5750591423  CLST         673          1.0000000000
      2019       673  TIP3  H2            7.6632158159       -4.7609568584        7.2429952745  CLST         673          1.0000000000
      2020       674  TIP3  OH2          -4.2283678625       -0.7346894290        2.9177706995  CLST         674          1.0000000000
      2021       674  TIP3  H1           -3.5249872165       -1.5750214117        3.2285925944  CLST         674          1.0000000000
      2022       674  TIP3  H2           -4.0380218915       -1.7224383100        2.3959633627  CLST         674          1.0000000000
      2023       675  TIP3  OH2          -9.4322929459        2.3419990816       -3.3904567923  CLST         675          1.0000000000
      2024       675  TIP3  H1           -8.7851677483        1.7309511910       -3.0431310866  CLST         675          1.0000000000
      2025       675  TIP3  H2          -10.0488060901        1.9018632134       -2.7655664131  CLST         675          1.0000000000
      2026       676  TIP3  OH2         -13.7163123693       -0.1398524523      -13.5020738294  CLST         676          1.0000000000
      2027       676  TIP3  H1          -14.0836504642       -1.0020727345      -13.6545260346  CLST         676          1.0000000000
      2028       676  TIP3  H2          -13.2014825098       -0.5102656596      -12.7872063337  CLST         676          1.0000000000
      2029       677  TIP3  OH2           1.8646085694      -12.2183307420        2.3283552660  CLST         677          1.0000000000
      2030       677  TIP3  H1            2.2048091454      -12.3816373931        1.4716515125  CLST         677          1.0000000000
      2031       677  TIP3  H2            1.6474138486      -13.1327967094        2.3594146087  CLST         677          1.0000000000
      2032       678  TIP3  OH2          11.3092100163       -7.1607547947       -8.3684520688  CLST         678          1.0000000000
      2033       678  TIP3  H1           12.2314412226       -7.4145443330       -8.6318935023  CLST         678          1.0000000000
      2034       678  TIP3  H2           11.5180725298       -6.4560215731       -8.9801423447  CLST         678          1.0000000000
      2035       679  TIP3  OH2           7.5309037047       -9.8258384003      -14.1945461468  CLST         679          1.0000000000
      2036       679  TIP3  H1            7.5000042739       -9.1226971905      -14.8170282361  CLST         679          1.0000000000
      2037       679  TIP3  H2            6.5984010502      -10.0717070827      -14.4475280149  CLST         679          1.0000000000
      2038       680  TIP3  OH2           9.7468241325       -8.1612739389       -1.7410618567  CLST         680          1.0000000000
      2039       680  TIP3  H1            9.8692638222       -9.1130145601       -1.7707527364  CLST         680          1.0000000000
      2040       680  TIP3  H2            9.7224964293       -8.1285295120       -2.7293379021  CLST         680          1.0000000000
      2041       681  TIP3  OH2           7.3618174952        9.1322709704       11.2647176707  CLST         681          1.0000000000
      2042       681  TIP3  H1            7.2644374586        8.1671031158       11.1697289132  CLST         681          1.0000000000
      2043       681  TIP3  H2            8.1655889720        8.9823645143       10.7597182900  CLST         681          1.0000000000
      2044       682  TIP3  OH2           7.8926166721       14.0755629146        1.9452883493  CLST         682          1.0000000000
      2045       682  TIP3  H1            7.4100390633       14.1198196097        1.1264004094  CLST         682          1.0000000000
      2046       682  TIP3  H2            7.2675765948       14.6304463333        2.3344826350  CLST         682          1.0000000000
      2047       683  TIP3  OH2           3.4858187098       11.6598293265      -15.0145523225  CLST         683          1.0000000000
      2048       683  TIP3  H1            3.1556292254       11.8364415091      -14.1462385493  CLST         683          1.0000000000
      2049       683  TIP3  H2            3.3899585648       10.7546713883      -14.7611279353  CLST         683          1.0000000000
      2050       684  TIP3  OH2          12.5083232877        2.7246068595      -12.4919261044  CLST         684          1.0000000000
      2051       684  TIP3  H1           11.9376575050        2.4289251022      -11.7989333350  CLST         684          1.0000000000
      2052       684  TIP3  H2           13.0886419451        2.9908037694      -11.7178215256  CLST         684          1.0000000000
      2053       685  TIP3  OH2           3.9226798169       13.4368380192        2.2043854074  CLST         685          1.0000000000
      2054       685  TIP3  H1            4.2281836688       12.5392336025        1.9845080710  CLST         685          1.0000000000
      2055       685  TIP3  H2            3.2262753680       13.2732712829        1.5471286037  CLST         685          1.0000000000
      2056       686  TIP3  OH2          -1.9319106257      -11.8125513764       -5.5560870496  CLST         686          1.0000000000
      2057       686  TIP3  H1           -1.9723231895      -12.2385444356       -4.6848098881  CLST         686          1.0000000000
      2058       686  TIP3  H2           -2.6455704041      -12.4435666918       -5.8529053534  CLST         686          1.0000000000
      2059       687  TIP3  OH2           2.3336876480       10.8599249083       -5.4996008932  CLST         687          1.0000000000
      2060       687  TIP3  H1            2.3848548777       11.1463640195       -4.5036786962  CLST         687          1.0000000000
      2061       687  TIP3  H2            3.0110794216       11.5877147025       -5.4704910399  CLST         687          1.0000000000
      2062       688  TIP3  OH2          -4.6941258574       -0.8947416229      -10.3386870546  CLST         688          1.0000000000
      2063       688  TIP3  H1           -4.5815755984       -0.5048593264       -9.4446938527  CLST         688          1.0000000000
      2064       688  TIP3  H2           -3.8690236745       -0.4230771612      -10.5005675479  CLST         688          1.0000000000
      2065       689  TIP3  OH2         -11.5248413324       -2.5848378855       -7.3988629288  CLST         689          1.0000000000
      2066       689  TIP3  H1          -12.1758817536       -2.3266117916       -6.7285352643  CLST         689          1.0000000000
      2067       689  TIP3  H2          -12.0113958504       -2.1622152902       -8.0888863268  CLST         689          1.0000000000
      2068       690  TIP3  OH2           9.2220518492      -12.5535948575        4.1893885010  CLST         690          1.0000000000
      2069       690  TIP3  H1            9.7752747063      -12.3965602879        4.9974076905  CLST         690          1.0000000000
      2070       690  TIP3  H2            9.6551798354      -11.8816706786        3.6937079259  CLST         690          1.0000000000
      2071       691  TIP3  OH2          -0.7368924679       10.1930462045       13.5924260975  CLST         691          1.0000000000
      2072       691  TIP3  H1           -0.3577068247       10.9073281803       13.2027222567  CLST         691          1.0000000000
      2073       691  TIP3  H2           -0.1705419111       10.3519052940       14.4151062464  CLST         691          1.0000000000
      2074       692  TIP3  OH2           1.4400138779       -6.7623610321        8.6297860229  CLST         692          1.0000000000
      2075       692  TIP3  H1            0.4670689895       -6.4893737659        8.6742616727  CLST         692          1.0000000000
      2076       692  TIP3  H2            1.5790932493       -5.8106740831        8.7673387623  CLST         692          1.0000000000
      2077       693  TIP3  OH2          -9.3675081206       -4.1934930126       -2.9421441345  CLST         693          1.0000000000
      2078       693  TIP3  H1           -8.6208407539       -4.2355252360       -2.2708335023  CLST         693          1.0000000000
      2079       693  TIP3  H2           -9.0118482263       -3.3708076882       -3.3615917445  CLST         693          1.0000000000
      2080       694  TIP3  OH2          -1.7376310059       11.5784068820        5.8560116868  CLST         694          1.0000000000
      2081       694  TIP3  H1           -2.3346680348       12.3043537543        5.5840004066  CLST         694          1.0000000000
      2082       694  TIP3  H2           -1.0199768888       12.1695938191        5.9129882743  CLST         694          1.0000000000
      2083       695  TIP3  OH2           1.6927409824       10.5356393406        7.8016840531  CLST         695          1.0000000000
      2084       695  TIP3  H1            1.2171720266       10.1857689894        7.0452155967  CLST         695          1.0000000000
      2085       695  TIP3  H2            1.1671057053       10.0573178232        8.3719992299  CLST         695          1.0000000000
      2086       696  TIP3  OH2          -4.2590199966        3.1021506616       -5.9028145639  CLST         696          1.0000000000
      2087       696  TIP3  H1           -3.8619508162        3.8709480785       -6.2768299621  CLST         696          1.0000000000
      2088       696  TIP3  H2           -4.4098535207        3.5786280786       -5.1048200921  CLST         696          1.0000000000
      2089       697  TIP3  OH2           2.7736476874        5.5496191936       11.8977949094  CLST         697          1.0000000000
      2090       697  TIP3  H1            2.3730963348        5.4410303859       11.0164264125  CLST         697          1.0000000000
      2091       697  TIP3  H2            3.5731184647        5.1548439731       11.5004057877  CLST         697          1.0000000000
      2092       698  TIP3  OH2          -3.4399192159        5.0089335347       -1.2998459892  CLST         698          1.0000000000
      2093       698  TIP3  H1           -3.9118656726        4.3945731194       -1.6481902715  CLST         698          1.0000000000
      2094       698  TIP3  H2           -4.5187043107        5.3014752703       -1.4955410365  CLST         698          1.0000000000
      2095       699  TIP3  OH2          -1.2914133820       -4.5932693831        3.6850410476  CLST         699          1.0000000000
      2096       699  TIP3  H1           -1.9245830804       -3.9027458694        3.5594615986  CLST         699          1.0000000000
      2097       699  TIP3  H2           -1.1761575312       -4.6401737823        2.7138025243  CLST         699          1.0000000000
      2098       700  TIP3  OH2          -5.0529848653       -8.2223841431        8.8754594256  CLST         700          1.0000000000
      2099       700  TIP3  H1           -5.0196993936       -7.5771885590        8.1084146178  CLST         700          1.0000000000
      2100       700  TIP3  H2           -4.3563380971       -8.7761408904        8.7140657930  CLST         700          1.0000000000
      2101       701  TIP3  OH2         -13.9930240529       10.3700103052        0.1279103809  CLST         701          1.0000000000
      2102       701  TIP3  H1          -13.7554598812        9.5960697388       -0.4726622627  CLST         701          1.0000000000
      2103       701  TIP3  H2          -14.9187607072       10.4021258736       -0.1238802517  CLST         701          1.0000000000
      2104       702  TIP3  OH2          -5.4791831095       -9.5755616451      -12.6260631355  CLST         702          1.0000000000
      2105       702  TIP3  H1           -5.3922194562       -9.7179042261      -11.6383680533  CLST         702          1.0000000000
      2106       702  TIP3  H2           -6.4493580351       -9.5620413458      -12.4982123972  CLST         702          1.0000000000
      2107       703  TIP3  OH2           3.6400568104        6.2971469470       -4.2817839937  CLST         703          1.0000000000
      2108       703  TIP3  H1            2.7469564226        6.3569335779       -3.5396455460  CLST         703          1.0000000000
      2109       703  TIP3  H2            3.2145586460        6.9962772925       -4.1536051016  CLST         703          1.0000000000
      2110       704  TIP3  OH2          -9.8896217324        5.0481061472       11.6745386896  CLST         704          1.0000000000
      2111       704  TIP3  H1          -10.1966403248        5.6606235189       12.4001406021  CLST         704          1.0000000000
      2112       704  TIP3  H2           -9.8727876791        5.8550831940       11.2134975292  CLST         704          1.0000000000
      2113       705  TIP3  OH2          -0.9180881091       -8.9709989796       -6.9108276522  CLST         705          1.0000000000
      2114       705  TIP3  H1           -0.9344665739       -9.7926008016       -7.4135382586  CLST         705          1.0000000000
      2115       705  TIP3  H2           -0.3739698962       -8.6059784271       -7.6487533360  CLST         705          1.0000000000
      2116       706  TIP3  OH2          -2.0200703390       -1.6819947290        4.3510375987  CLST         706          1.0000000000
      2117       706  TIP3  H1           -1.7282930212       -0.7838400363        4.5571483531  CLST         706          1.0000000000
      2118       706  TIP3  H2           -1.2497439550       -2.0194546118        4.8623444367  CLST         706          1.0000000000
      2119       707  TIP3  OH2           8.5511761910       10.8745980732        7.0959061999  CLST         707          1.0000000000
      2120       707  TIP3  H1            8.3563986446       11.2402906316        6.2731464666  CLST         707          1.0000000000
      2121       707  TIP3  H2            7.6678202106       10.5062383556        6.9917485233  CLST         707          1.0000000000
      2122       708  TIP3  OH2          -0.9132398789       -7.9936351146      -12.6129404152  CLST         708          1.0000000000
      2123       708  TIP3  H1           -1.8699379649       -8.1221395418      -12.6521365236  CLST         708          1.0000000000
      2124       708  TIP3  H2           -1.0706285776       -7.5416687136      -13.3944562522  CLST         708          1.0000000000
      2125       709  TIP3  OH2          -6.2540691402       14.2841162327        0.5809767589  CLST         709          1.0000000000
      2126       709  TIP3  H1           -5.3334151885       14.1625793212        0.8141695562  CLST         709          1.0000000000
      2127       709  TIP3  H2           -6.3837796769       14.5840952923        1.4951112433  CLST         709          1.0000000000
      2128       710  TIP3  OH2          -0.8384616832       14.1882652822      -10.4085002404  CLST         710          1.0000000000
      2129       710  TIP3  H1           -0.1840506524       14.1892889943      -11.0633711226  CLST         710          1.0000000000
      2130       710  TIP3  H2           -1.1767957075       13.3960767589      -10.8999429251  CLST         710          1.0000000000
      2131       711  TIP3  OH2          11.7572766203      -11.5670899786      -10.8963609786  CLST         711          1.0000000000
      2132       711  TIP3  H1           11.8140371983      -12.5782801057      -10.9923913094  CLST         711          1.0000000000
      2133       711  TIP3  H2           11.6230833514      -11.3326915417      -11.7765353608  CLST         711          1.0000000000
      2134       712  TIP3  OH2          -3.5765665076      -10.6426847855       11.6396133546  CLST         712          1.0000000000
      2135       712  TIP3  H1           -4.1391738170      -10.2417258424       10.9362100841  CLST         712          1.0000000000
      2136       712  TIP3  H2           -2.8721002191      -10.2047696118       11.1544558462  CLST         712          1.0000000000
      2137       713  TIP3  OH2           6.9595925531        0.1825636998        6.4533216627  CLST         713          1.0000000000
      2138       713  TIP3  H1            7.4368320350        0.3286853132        7.2659772499  CLST         713          1.0000000000
      2139       713  TIP3  H2            7.5724928895       -0.5775157784        6.3447511078  CLST         713          1.0000000000
      2140       714  TIP3  OH2           4.8611649178       12.2939084775        4.4989696808  CLST         714          1.0000000000
      2141       714  TIP3  H1            4.4035014279       12.8938759906        3.8251185422  CLST         714          1.0000000000
      2142       714  TIP3  H2            3.8924406858       12.4349969700        4.8156697637  CLST         714          1.0000000000
      2143       715  TIP3  OH2          -9.0236681514       -9.6925599622        1.6770901292  CLST         715          1.0000000000
      2144       715  TIP3  H1           -9.6959349672       -8.9787636623        1.8403805190  CLST         715          1.0000000000
      2145       715  TIP3  H2           -9.5198909947      -10.2987858409        2.2356596263  CLST         715          1.0000000000
      2146       716  TIP3  OH2         -13.6837298718      -13.3945177029        0.1787341084  CLST         716          1.0000000000
      2147       716  TIP3  H1          -14.1037019768      -13.9278861836       -0.4393607134  CLST         716          1.0000000000
      2148       716  TIP3  H2          -13.8610063405      -12.6485725877       -0.4049901466  CLST         716          1.0000000000
      2149       717  TIP3  OH2          -6.2331293604      -12.1310758953        2.4963197582  CLST         717          1.0000000000
      2150       717  TIP3  H1           -6.4569349795      -11.3619802174        1.9448237032  CLST         717          1.0000000000
      2151       717  TIP3  H2           -7.0221574794      -12.5597244624        2.1179740458  CLST         717          1.0000000000
      2152       718  TIP3  OH2         -10.9753208952        7.1269901335       12.9607196287  CLST         718          1.0000000000
      2153       718  TIP3  H1          -11.5957439285        7.8232352604       13.4607130597  CLST         718          1.0000000000
      2154       718  TIP3  H2          -10.3323301026        7.7974684665       12.7487993149  CLST         718          1.0000000000
      2155       719  TIP3  OH2          10.4395814984       -7.1984825106        3.0074183865  CLST         719          1.0000000000
      2156       719  TIP3  H1           11.4283516547       -7.1244499465        3.2937013093  CLST         719          1.0000000000
      2157       719  TIP3  H2           10.7754164457       -7.0836195659        2.1288262551  CLST         719          1.0000000000
      2158       720  TIP3  OH2          -4.8702739340       13.0458033628       -8.4741181826  CLST         720          1.0000000000
      2159       720  TIP3  H1           -3.8717587142       13.1140297914       -8.3036344329  CLST         720          1.0000000000
      2160       720  TIP3  H2           -4.9816852491       13.5027970438       -7.6068158506  CLST         720          1.0000000000
      2161       721  TIP3  OH2           4.2830339268       -5.9264296358       -9.8951789028  CLST         721          1.0000000000
      2162       721  TIP3  H1            4.4276839784       -5.7104040998       -8.9096988644  CLST         721          1.0000000000
      2163       721  TIP3  H2            5.0248290008       -6.5261497370       -9.7052993356  CLST         721          1.0000000000
      2164       722  TIP3  OH2          10.3971501592       -2.5571579681        2.1124839173  CLST         722          1.0000000000
      2165       722  TIP3  H1           10.2775612705       -3.1806143453        1.3986000305  CLST         722          1.0000000000
      2166       722  TIP3  H2           11.2641829064       -2.3063569689        1.8419533927  CLST         722          1.0000000000
      2167       723  TIP3  OH2           0.2607899327       13.3993989089        6.0267664317  CLST         723          1.0000000000
      2168       723  TIP3  H1            0.7920043197       13.9802490594        5.7395840234  CLST         723          1.0000000000
      2169       723  TIP3  H2            1.3388584958       13.2887327728        5.8013924899  CLST         723          1.0000000000
      2170       724  TIP3  OH2           8.4380907812       -8.2327005725       -4.0387023297  CLST         724          1.0000000000
      2171       724  TIP3  H1            8.5396340149       -8.8662788736       -4.7729419184  CLST         724          1.0000000000
      2172       724  TIP3  H2            8.2976723424       -7.6060007149       -4.7757098988  CLST         724          1.0000000000
      2173       725  TIP3  OH2          -0.8126502935       -0.3508208223        2.0979212288  CLST         725          1.0000000000
      2174       725  TIP3  H1           -1.6440001102       -0.6953690300        2.4424076841  CLST         725          1.0000000000
      2175       725  TIP3  H2           -1.3826705357        0.1881798289        1.4991324778  CLST         725          1.0000000000
      2176       726  TIP3  OH2         -14.2166626879       10.6612778931        6.1571475218  CLST         726          1.0000000000
      2177       726  TIP3  H1          -15.0695526820       10.9343272141        5.8246609629  CLST         726          1.0000000000
      2178       726  TIP3  H2          -13.7688026909       11.5418859105        6.0301194119  CLST         726          1.0000000000
      2179       727  TIP3  OH2          -4.1604425575      -13.6363080729       -0.4792201371  CLST         727          1.0000000000
      2180       727  TIP3  H1           -3.3306014051      -13.7996024271        0.2635830385  CLST         727          1.0000000000
      2181       727  TIP3  H2           -3.7256558396      -12.8597602455        0.1989883337  CLST         727          1.0000000000
      2182       728  TIP3  OH2          -8.2502214028        3.3423300627       -0.7249923539  CLST         728          1.0000000000
      2183       728  TIP3  H1           -7.7367383971        2.5511987156       -0.2515954435  CLST         728          1.0000000000
      2184       728  TIP3  H2           -9.0349301782        2.7527145786       -0.8816607847  CLST         728          1.0000000000
      2185       729  TIP3  OH2          10.5854070258      -10.6349210695        2.7677682240  CLST         729          1.0000000000
      2186       729  TIP3  H1           11.0344200007       -9.9088645711        3.1345060715  CLST         729          1.0000000000
      2187       729  TIP3  H2           11.4053085970      -11.0015149686        2.3863564891  CLST         729          1.0000000000
      2188       730  TIP3  OH2          -4.3286899289       11.0618714392       -5.4094007008  CLST         730          1.0000000000
      2189       730  TIP3  H1           -4.3104515109       10.2210093087       -5.8629959176  CLST         730          1.0000000000
      2190       730  TIP3  H2           -5.2581813711       10.9946560919       -5.3661556613  CLST         730          1.0000000000
      2191       731  TIP3  OH2          13.1957723044       12.5609887720       -4.3913926877  CLST         731          1.0000000000
      2192       731  TIP3  H1           13.6801601777       12.7884938447       -5.1770104564  CLST         731          1.0000000000
      2193       731  TIP3  H2           12.7667996158       11.8037301915       -4.8959420023  CLST         731          1.0000000000
      2194       732  TIP3  OH2          -2.8612533872       -1.3182266220       -2.3234206986  CLST         732          1.0000000000
      2195       732  TIP3  H1           -3.6385392730       -1.1060901001       -1.5383131826  CLST         732          1.0000000000
      2196       732  TIP3  H2           -3.9168427811       -0.9632800222       -2.4571677627  CLST         732          1.0000000000
      2197       733  TIP3  OH2           5.5467500679        2.1124907670       12.9951026047  CLST         733          1.0000000000
      2198       733  TIP3  H1            5.2030719057        1.4187290786       12.4720012267  CLST         733          1.0000000000
      2199       733  TIP3  H2            4.6149692172        2.3408324367       13.2809394328  CLST         733          1.0000000000
      2200       734  TIP3  OH2           8.2950297455       -2.2485851292        5.8527401752  CLST         734          1.0000000000
      2201       734  TIP3  H1            8.3705383523       -2.9488790538        5.1547550019  CLST         734          1.0000000000
      2202       734  TIP3  H2            9.2755697179       -2.1420457544        5.7874302734  CLST         734          1.0000000000
      2203       735  TIP3  OH2         -10.6045119828      -12.5033587632        0.8082888103  CLST         735          1.0000000000
      2204       735  TIP3  H1          -10.7772624682      -11.8589690107        1.5006336062  CLST         735          1.0000000000
      2205       735  TIP3  H2          -11.5282866192      -12.6104882980        0.6612756075  CLST         735          1.0000000000
      2206       736  TIP3  OH2          13.4235885433        2.3987881303        2.8524276350  CLST         736          1.0000000000
      2207       736  TIP3  H1           13.9083040563        1.8158547725        2.0115730462  CLST         736          1.0000000000
      2208       736  TIP3  H2           12.9673187557        2.0787693181        1.8918710600  CLST         736          1.0000000000
      2209       737  TIP3  OH2          11.4676626053       -1.9724644882        7.9892913140  CLST         737          1.0000000000
      2210       737  TIP3  H1           11.3676011953       -2.1923047656        7.0225686918  CLST         737          1.0000000000
      2211       737  TIP3  H2           11.6201642375       -1.0114406489        7.6996803005  CLST         737          1.0000000000
      2212       738  TIP3  OH2          10.4850820347        1.1286648343       14.1293303642  CLST         738          1.0000000000
      2213       738  TIP3  H1            9.6288460096        0.8557663064       13.7505516479  CLST         738          1.0000000000
      2214       738  TIP3  H2           10.4754114007        0.1658527679       14.3633864363  CLST         738          1.0000000000
      2215       739  TIP3  OH2         -13.2223499511        1.4791024423       10.2274546203  CLST         739          1.0000000000
      2216       739  TIP3  H1          -14.1515157494        1.6927892788       10.4715630381  CLST         739          1.0000000000
      2217       739  TIP3  H2          -13.6179055489        0.7797083164        9.7248526116  CLST         739          1.0000000000
      2218       740  TIP3  OH2           6.0397871025      -14.1784172045       -5.2712294913  CLST         740          1.0000000000
      2219       740  TIP3  H1            5.6285988644      -15.0189129434       -5.4738920972  CLST         740          1.0000000000
      2220       740  TIP3  H2            6.8446036283      -14.7409970935       -5.2936947221  CLST         740          1.0000000000
      2221       741  TIP3  OH2          11.5621856817        5.0565998229        9.1401723539  CLST         741          1.0000000000
      2222       741  TIP3  H1           12.4619160551        4.6811184015        9.0414815634  CLST         741          1.0000000000
      2223       741  TIP3  H2           11.5084553664        3.9996285742        9.1952119119  CLST         741          1.0000000000
      2224       742  TIP3  OH2           8.3141791571       -9.4766331924       -6.3909502442  CLST         742          1.0000000000
      2225       742  TIP3  H1            8.3374490335      -10.4561263987       -6.3240653563  CLST         742          1.0000000000
      2226       742  TIP3  H2            7.7220596079       -9.6685221272       -7.1106147160  CLST         742          1.0000000000
      2227       743  TIP3  OH2          -7.4605524659       -0.1776549632      -10.7439960713  CLST         743          1.0000000000
      2228       743  TIP3  H1           -6.9265931898        0.6312609342      -10.2138547079  CLST         743          1.0000000000
      2229       743  TIP3  H2           -6.3573867068       -0.1705594545      -10.4325712118  CLST         743          1.0000000000
      2230       744  TIP3  OH2          -6.0754189070        3.6503298357        5.2938560330  CLST         744          1.0000000000
      2231       744  TIP3  H1           -5.1573721676        3.4077123416        5.6094705501  CLST         744          1.0000000000
      2232       744  TIP3  H2           -6.0226591837        4.5860517765        5.5113974628  CLST         744          1.0000000000
      2233       745  TIP3  OH2           0.5615774702       -8.2264524090        6.6026947733  CLST         745          1.0000000000
      2234       745  TIP3  H1            1.1123387341       -9.0601627971        6.6261085353  CLST         745          1.0000000000
      2235       745  TIP3  H2            0.9993105057       -8.0972032880        7.4742036431  CLST         745          1.0000000000
      2236       746  TIP3  OH2          -7.9975637123       -4.3369699776       -5.7070629383  CLST         746          1.0000000000
      2237       746  TIP3  H1           -7.9914336910       -5.1628322522       -6.2719444052  CLST         746          1.0000000000
      2238       746  TIP3  H2           -8.3371005125       -3.7311954169       -6.3339354109  CLST         746          1.0000000000
      2239       747  TIP3  OH2          11.2368209045       11.9864143963        2.0616556858  CLST         747          1.0000000000
      2240       747  TIP3  H1           10.8440204985       12.3223738521        2.9037289408  CLST         747          1.0000000000
      2241       747  TIP3  H2           11.5920997575       11.3107136492        2.6818683628  CLST         747          1.0000000000
      2242       748  TIP3  OH2           3.5234641718        4.7270412523        8.5158392040  CLST         748          1.0000000000
      2243       748  TIP3  H1            4.2588566163        4.8549812609        9.1486060552  CLST         748          1.0000000000
      2244       748  TIP3  H2            3.2877047729        5.6376202156        8.5843287434  CLST         748          1.0000000000
      2245       749  TIP3  OH2          10.6592101321        9.4833645269        6.1955797516  CLST         749          1.0000000000
      2246       749  TIP3  H1           10.3915029156        8.9367084311        7.1358586001  CLST         749          1.0000000000
      2247       749  TIP3  H2            9.8852217667        9.7694551224        6.9471919562  CLST         749          1.0000000000
      2248       750  TIP3  OH2         -14.1538543859       12.2402153671       -7.6069978254  CLST         750          1.0000000000
      2249       750  TIP3  H1          -15.0158940376       12.0828203667       -7.9038679344  CLST         750          1.0000000000
      2250       750  TIP3  H2          -13.8182121850       11.8718341095       -8.4118842187  CLST         750          1.0000000000
      2251       751  TIP3  OH2           8.2070684309        4.3463838152       -4.2601913070  CLST         751          1.0000000000
      2252       751  TIP3  H1            7.5299234811        4.0777684663       -4.8686706310  CLST         751          1.0000000000
      2253       751  TIP3  H2            8.4578566525        3.4454021691       -4.1121457921  CLST         751          1.0000000000
      2254       752  TIP3  OH2         -12.2699639751       13.1130998925        2.2586048546  CLST         752          1.0000000000
      2255       752  TIP3  H1          -12.9739728896       13.1423857133        1.6099766406  CLST         752          1.0000000000
      2256       752  TIP3  H2          -11.9796721008       12.3526758790        1.7634372590  CLST         752          1.0000000000
      2257       753  TIP3  OH2           8.8840167797        2.4935408404       -6.8570733485  CLST         753          1.0000000000
      2258       753  TIP3  H1            8.6519885344        3.2997176454       -7.4075746560  CLST         753          1.0000000000
      2259       753  TIP3  H2            7.9647546960        2.4551316792       -6.5457946942  CLST         753          1.0000000000
      2260       754  TIP3  OH2          11.4910819556        2.5458584027       -6.0593389203  CLST         754          1.0000000000
      2261       754  TIP3  H1           11.3178347465        2.8497565412       -5.1515498637  CLST         754          1.0000000000
      2262       754  TIP3  H2           10.5467025987        2.5926022452       -6.3018523471  CLST         754          1.0000000000
      2263       755  TIP3  OH2           7.4438768894       -1.6416259943       -0.2825241196  CLST         755          1.0000000000
      2264       755  TIP3  H1            6.6632064236       -2.1067537871       -0.0680539482  CLST         755          1.0000000000
      2265       755  TIP3  H2            7.1191389650       -0.7466360754       -0.1395456903  CLST         755          1.0000000000
      2266       756  TIP3  OH2         -12.7777595959        6.4409756356        5.9489813309  CLST         756          1.0000000000
      2267       756  TIP3  H1          -12.7426520503        5.5267958503        5.9649695070  CLST         756          1.0000000000
      2268       756  TIP3  H2          -12.4594565000        6.3821770598        6.8604806600  CLST         756          1.0000000000
      2269       757  TIP3  OH2          -4.6017022030       -4.9185350434       -2.2027496145  CLST         757          1.0000000000
      2270       757  TIP3  H1           -4.1247106947       -5.2155165602       -3.0007837734  CLST         757          1.0000000000
      2271       757  TIP3  H2           -4.9647780900       -4.2806066906       -2.8495738365  CLST         757          1.0000000000
      2272       758  TIP3  OH2          12.1136517607        4.6245176206       -0.8720847924  CLST         758          1.0000000000
      2273       758  TIP3  H1           12.1501622315        5.1757740044       -0.0509961603  CLST         758          1.0000000000
      2274       758  TIP3  H2           12.7712540187        4.0951295563       -0.3436705359  CLST         758          1.0000000000
      2275       759  TIP3  OH2          -7.5316391517       11.7597340571      -11.0957609791  CLST         759          1.0000000000
      2276       759  TIP3  H1           -6.9213357154       12.2349694853      -11.7548599912  CLST         759          1.0000000000
      2277       759  TIP3  H2           -6.6945947919       11.6769558589      -10.6457823264  CLST         759          1.0000000000
      2278       760  TIP3  OH2           8.1763410479       14.4009862370       -6.0201855299  CLST         760          1.0000000000
      2279       760  TIP3  H1            8.5860995105       15.0242040690       -6.6101007300  CLST         760          1.0000000000
      2280       760  TIP3  H2            8.0989451134       13.7895838068       -6.7465690755  CLST         760          1.0000000000
      2281       761  TIP3  OH2          -6.9216613479        7.9428233595      -11.4865788010  CLST         761          1.0000000000
      2282       761  TIP3  H1           -7.7228860949        7.5239434594      -11.8568541966  CLST         761          1.0000000000
      2283       761  TIP3  H2           -7.4796789540        7.9998668889      -10.7061650770  CLST         761          1.0000000000
      2284       762  TIP3  OH2           7.8421373492       -6.1319441795      -13.0333213658  CLST         762          1.0000000000
      2285       762  TIP3  H1            7.3573542068       -6.7695634535      -12.4175482653  CLST         762          1.0000000000
      2286       762  TIP3  H2            7.5314296618       -5.4341307442      -12.3905786494  CLST         762          1.0000000000
      2287       763  TIP3  OH2          -1.2630455406       -6.2504542488        9.1384452760  CLST         763          1.0000000000
      2288       763  TIP3  H1           -1.4224390372       -5.2917845851        8.8279283511  CLST         763          1.0000000000
      2289       763  TIP3  H2           -1.8428532357       -5.9545484357        9.8699972182  CLST         763          1.0000000000
      2290       764  TIP3  OH2           8.8240519313      -11.1547881479        0.7471267122  CLST         764          1.0000000000
      2291       764  TIP3  H1            8.1424864645      -10.4949718580        0.7019941439  CLST         764          1.0000000000
      2292       764  TIP3  H2            9.2252521386      -10.7715787829        1.5346588048  CLST         764          1.0000000000
      2293       765  TIP3  OH2         -14.5774892070      -12.2091288582       12.8304135639  CLST         765          1.0000000000
      2294       765  TIP3  H1          -13.9292599361      -11.7679618583       13.3640772673  CLST         765          1.0000000000
      2295       765  TIP3  H2          -15.0710695723      -11.4144260231       12.9011576959  CLST         765          1.0000000000
      2296       766  TIP3  OH2          11.5717489996       -8.2955174674      -11.9307698281  CLST         766          1.0000000000
      2297       766  TIP3  H1           10.9993016350       -8.1587794972      -12.7107000338  CLST         766          1.0000000000
      2298       766  TIP3  H2           10.7919512648       -8.3921397135      -11.4165505533  CLST         766          1.0000000000
      2299       767  TIP3  OH2           2.3292048970       12.4578630391      -12.7256224429  CLST         767          1.0000000000
      2300       767  TIP3  H1            2.7011558088       12.3794307041      -11.8399619783  CLST         767          1.0000000000
      2301       767  TIP3  H2            2.1154942597       13.3532103321      -12.5046075095  CLST         767          1.0000000000
      2302       768  TIP3  OH2           7.5745890293        7.0566013553        8.2437523980  CLST         768          1.0000000000
      2303       768  TIP3  H1            8.5447702348        6.9191869210        8.4405960790  CLST         768          1.0000000000
      2304       768  TIP3  H2            7.5565938782        6.0874827658        8.4651875788  CLST         768          1.0000000000
      2305       769  TIP3  OH2         -11.9178719849        3.1268918440        0.8626152492  CLST         769          1.0000000000
      2306       769  TIP3  H1          -11.4899405974        2.8079282653        1.8468614525  CLST         769          1.0000000000
      2307       769  TIP3  H2          -12.4626242397        2.9229223411        1.8279635048  CLST         769          1.0000000000
      2308       770  TIP3  OH2          10.1400838327       -4.6874837163       11.5130133486  CLST         770          1.0000000000
      2309       770  TIP3  H1            9.7107119608       -4.0704139853       10.9194757576  CLST         770          1.0000000000
      2310       770  TIP3  H2           10.8880828154       -4.6786351202       10.9455748774  CLST         770          1.0000000000
      2311       771  TIP3  OH2         -10.2257872670        1.2332260016       -5.8400555204  CLST         771          1.0000000000
      2312       771  TIP3  H1           -9.3536532255        0.8800296800       -5.9847099363  CLST         771          1.0000000000
      2313       771  TIP3  H2           -9.8739180017        1.7715973732       -5.1597040679  CLST         771          1.0000000000
      2314       772  TIP3  OH2          12.7867058757      -12.4553589966       -6.6759186763  CLST         772          1.0000000000
      2315       772  TIP3  H1           12.8367964752      -11.5248910789       -6.6451144452  CLST         772          1.0000000000
      2316       772  TIP3  H2           11.9718650104      -12.3903211978       -6.2023659942  CLST         772          1.0000000000
      2317       773  TIP3  OH2          11.9526605613       -4.8510631176        3.5275590172  CLST         773          1.0000000000
      2318       773  TIP3  H1           11.5855509323       -4.1783602705        4.1059189994  CLST         773          1.0000000000
      2319       773  TIP3  H2           12.1325395499       -4.3086388946        2.8011936481  CLST         773          1.0000000000
      2320       774  TIP3  OH2          -7.9365441395       -0.2393525439       -6.0029918654  CLST         774          1.0000000000
      2321       774  TIP3  H1           -6.7966691908       -0.2815375459       -5.8602520433  CLST         774          1.0000000000
      2322       774  TIP3  H2           -7.4379596243        0.4386550806       -6.1269688863  CLST         774          1.0000000000
      2323       775  TIP3  OH2           2.3250923284        1.6381592496        5.5254164459  CLST         775          1.0000000000
      2324       775  TIP3  H1            2.6396159745        1.5383092488        6.4117939870  CLST         775          1.0000000000
      2325       775  TIP3  H2            2.3702829801        2.6099663548        5.6835229363  CLST         775          1.0000000000
      2326       776  TIP3  OH2           0.1283936843        9.7086159940        5.7541388241  CLST         776          1.0000000000
      2327       776  TIP3  H1           -0.5611690140       10.3112812970        5.4845579486  CLST         776          1.0000000000
      2328       776  TIP3  H2           -0.6219592995        9.0757905654        5.9081229074  CLST         776          1.0000000000
      2329       777  TIP3  OH2         -12.9434019185      -10.0871921117        0.0975722371  CLST         777          1.0000000000
      2330       777  TIP3  H1          -12.5917602679       -9.1703813924        0.0817578107  CLST         777          1.0000000000
      2331       777  TIP3  H2          -12.8334584153       -9.9385349490        1.0589520104  CLST         777          1.0000000000
      2332       778  TIP3  OH2         -11.7969333176        5.4827958032       -0.4360968470  CLST         778          1.0000000000
      2333       778  TIP3  H1          -11.9919577126        4.6794977933        0.0108201666  CLST         778          1.0000000000
      2334       778  TIP3  H2          -11.8168047086        5.0443847773       -1.2657233739  CLST         778          1.0000000000
      2335       779  TIP3  OH2          -6.1278147912        5.1754099274       -1.5626631754  CLST         779          1.0000000000
      2336       779  TIP3  H1           -6.9403872611        4.6834315383       -1.2527971607  CLST         779          1.0000000000
      2337       779  TIP3  H2           -6.5826944213        5.8992272056       -1.1520335186  CLST         779          1.0000000000
      2338       780  TIP3  OH2           2.4275157558       14.0762549215       -8.7303616309  CLST         780          1.0000000000
      2339       780  TIP3  H1            2.2092249011       14.8941526727       -9.1080750426  CLST         780          1.0000000000
      2340       780  TIP3  H2            2.4324792850       14.3639114665       -9.9140646890  CLST         780          1.0000000000
      2341       781  TIP3  OH2           9.1461647157       -8.7284558059       -9.4922635534  CLST         781          1.0000000000
      2342       781  TIP3  H1            9.8796336525       -8.8731443356       -8.8601998383  CLST         781          1.0000000000
      2343       781  TIP3  H2            9.1105136130       -9.7732487127       -9.4414064668  CLST         781          1.0000000000
      2344       782  TIP3  OH2           0.0850265910        2.5468558738        4.3151243661  CLST         782          1.0000000000
      2345       782  TIP3  H1           -0.4046797950        1.7674886176        4.1883906354  CLST         782          1.0000000000
      2346       782  TIP3  H2            0.7120182045        2.2013347737        4.8966347313  CLST         782          1.0000000000
      2347       783  TIP3  OH2          -7.2377291341      -12.5527530691      -13.4735988586  CLST         783          1.0000000000
      2348       783  TIP3  H1           -7.9885418744      -12.3253023891      -12.8717480394  CLST         783          1.0000000000
      2349       783  TIP3  H2           -7.8673787854      -12.3871603904      -14.2621342605  CLST         783          1.0000000000
      2350       784  TIP3  OH2          14.3165871103        5.2301276993       -4.0531804134  CLST         784          1.0000000000
      2351       784  TIP3  H1           15.0495792381        5.8684612622       -4.1440850259  CLST         784          1.0000000000
      2352       784  TIP3  H2           13.7795563834        5.7307803837       -4.7096185699  CLST         784          1.0000000000
      2353       785  TIP3  OH2          10.4831668431        7.8911111453        1.0330707785  CLST         785          1.0000000000
      2354       785  TIP3  H1           10.5804517282        8.3157726097        1.8369215978  CLST         785          1.0000000000
      2355       785  TIP3  H2           11.2124504429        8.4429998325        0.6940175531  CLST         785          1.0000000000
      2356       786  TIP3  OH2          12.6826002933        3.3496082378       12.4446590937  CLST         786          1.0000000000
      2357       786  TIP3  H1           13.0630110298        4.4367732522       12.5144780240  CLST         786          1.0000000000
      2358       786  TIP3  H2           12.1956959770        4.1868933721       12.9117138388  CLST         786          1.0000000000
      2359       787  TIP3  OH2          -8.0397488567        0.1349979153       11.4526991314  CLST         787          1.0000000000
      2360       787  TIP3  H1           -8.9099305654        0.5449732004       11.2201984151  CLST         787          1.0000000000
      2361       787  TIP3  H2           -8.6887502442       -0.4023433077       11.9571146098  CLST         787          1.0000000000
      2362       788  TIP3  OH2           2.4286676391      -13.1659332431       10.9316152992  CLST         788          1.0000000000
      2363       788  TIP3  H1            2.7097565950      -13.0049638757       11.8471084184  CLST         788          1.0000000000
      2364       788  TIP3  H2            2.8688638115      -14.0207849235       10.9244064508  CLST         788          1.0000000000
      2365       789  TIP3  OH2          -7.0703211842        1.1596892804       -3.1984337552  CLST         789          1.0000000000
      2366       789  TIP3  H1           -6.4775512508        0.4061594630       -3.3178415745  CLST         789          1.0000000000
      2367       789  TIP3  H2           -6.6859083738        1.4866835228       -4.0030772875  CLST         789          1.0000000000
      2368       790  TIP3  OH2         -11.3181134614       -9.2006596533        5.6494008619  CLST         790          1.0000000000
      2369       790  TIP3  H1          -11.7039968046       -9.3018800632        6.5309587950  CLST         790          1.0000000000
      2370       790  TIP3  H2          -11.7331297050       -8.3541894931        5.4819031290  CLST         790          1.0000000000
      2371       791  TIP3  OH2          -4.9271427356       -5.9077885830      -10.6950812233  CLST         791          1.0000000000
      2372       791  TIP3  H1           -4.0043521046       -6.1361733630      -10.9146274762  CLST         791          1.0000000000
      2373       791  TIP3  H2           -4.8596930469       -5.0651096559      -11.0955687543  CLST         791          1.0000000000
      2374       792  TIP3  OH2           7.0390407977       -4.0236837734        9.7487627359  CLST         792          1.0000000000
      2375       792  TIP3  H1            7.5325891022       -4.7742901771        9.3604566263  CLST         792          1.0000000000
      2376       792  TIP3  H2            7.8804785302       -3.5263283942        9.6782045275  CLST         792          1.0000000000
      2377       793  TIP3  OH2          -3.2939670593       12.7759153971       -3.8723917939  CLST         793          1.0000000000
      2378       793  TIP3  H1           -3.7421101996       12.5210778352       -3.0384781126  CLST         793          1.0000000000
      2379       793  TIP3  H2           -3.1908486940       11.9409259434       -4.2841449272  CLST         793          1.0000000000
      2380       794  TIP3  OH2          -0.9011870656        2.8359655075       -6.5703880130  CLST         794          1.0000000000
      2381       794  TIP3  H1           -0.8997687503        2.2692785400       -7.3464392781  CLST         794          1.0000000000
      2382       794  TIP3  H2           -1.5515194617        3.3212627408       -7.0291731718  CLST         794          1.0000000000
      2383       795  TIP3  OH2          -1.9692182463       -9.3519956140        1.2951893766  CLST         795          1.0000000000
      2384       795  TIP3  H1           -2.4619174949      -10.0240671097        0.7493326441  CLST         795          1.0000000000
      2385       795  TIP3  H2           -1.7115798550       -9.9987600572        2.0040127135  CLST         795          1.0000000000
      2386       796  TIP3  OH2           2.9367423403        4.4704366097        4.8386990054  CLST         796          1.0000000000
      2387       796  TIP3  H1            3.1013718313        4.3618011147        3.8400825168  CLST         796          1.0000000000
      2388       796  TIP3  H2            3.7213007054        4.9828758939        5.0796744810  CLST         796          1.0000000000
      2389       797  TIP3  OH2         -11.6243026457        5.5698162988       -3.2724318181  CLST         797          1.0000000000
      2390       797  TIP3  H1          -12.1938592022        6.1803936442       -3.7390974022  CLST         797          1.0000000000
      2391       797  TIP3  H2          -11.1859946260        5.3739583993       -4.0830681471  CLST         797          1.0000000000
      2392       798  TIP3  OH2         -11.2168626716        9.6566758729       10.7194189365  CLST         798          1.0000000000
      2393       798  TIP3  H1          -11.4938520767       10.5107875584       10.3095982888  CLST         798          1.0000000000
      2394       798  TIP3  H2          -11.5359829181       10.0507918755       11.5312635854  CLST         798          1.0000000000
      2395       799  TIP3  OH2           4.0785464840       -1.9298931940      -12.6371042626  CLST         799          1.0000000000
      2396       799  TIP3  H1            4.7767020375       -1.2576866394      -12.7685456062  CLST         799          1.0000000000
      2397       799  TIP3  H2            4.0763337594       -2.1722883903      -13.5363305558  CLST         799          1.0000000000
      2398       800  TIP3  OH2         -10.0869970290        7.2083351105       10.0233592756  CLST         800          1.0000000000
      2399       800  TIP3  H1          -10.5739118332        8.0713193441       10.1198993788  CLST         800          1.0000000000
      2400       800  TIP3  H2           -9.3131991563        7.7516922250        9.9805664946  CLST         800          1.0000000000
      2401       801  TIP3  OH2           8.1940324898      -11.1554122263      -10.4054219098  CLST         801          1.0000000000
      2402       801  TIP3  H1            8.0949166523      -12.0765991730      -10.4521578119  CLST         801          1.0000000000
      2403       801  TIP3  H2            8.7238157491      -11.1813594758      -11.2067865858  CLST         801          1.0000000000
      2404       802  TIP3  OH2           5.4830279322       -0.1748902325       11.7663036798  CLST         802          1.0000000000
      2405       802  TIP3  H1            5.0077892576        0.0700384485       10.9848489090  CLST         802          1.0000000000
      2406       802  TIP3  H2            6.0232804132       -0.7834617437       11.3538530923  CLST         802          1.0000000000
      2407       803  TIP3  OH2           6.5294792778       -9.5645714463        0.0458303368  CLST         803          1.0000000000
      2408       803  TIP3  H1            6.1670153401      -10.4315067641       -0.2801786121  CLST         803          1.0000000000
      2409       803  TIP3  H2            5.8902960488       -9.4741515012        0.7303420812  CLST         803          1.0000000000
      2410       804  TIP3  OH2           5.3129528687        6.4542425229        1.9755381758  CLST         804          1.0000000000
      2411       804  TIP3  H1            4.6894450518        5.8103498973        1.3229691664  CLST         804          1.0000000000
      2412       804  TIP3  H2            5.5492791760        5.4163607132        1.6091407576  CLST         804          1.0000000000
      2413       805  TIP3  OH2           7.3270381383       -4.5843243840       14.3109531378  CLST         805          1.0000000000
      2414       805  TIP3  H1            8.2067785530       -4.5167298116       13.9106171713  CLST         805          1.0000000000
      2415       805  TIP3  H2            7.8009174695       -4.9073949294       15.0644637623  CLST         805          1.0000000000
      2416       806  TIP3  OH2           8.4338203969        9.9977056540       13.5280656473  CLST         806          1.0000000000
      2417       806  TIP3  H1            7.9658504554        9.1559930789       13.5764519474  CLST         806          1.0000000000
      2418       806  TIP3  H2            8.0099766564       10.1443219269       12.6896541527  CLST         806          1.0000000000
      2419       807  TIP3  OH2          -3.8609286449        8.0123480654        1.0127529540  CLST         807          1.0000000000
      2420       807  TIP3  H1           -3.9329895809        8.9641348321        0.9546028881  CLST         807          1.0000000000
      2421       807  TIP3  H2           -3.6253127485        8.0574168081        1.9193409864  CLST         807          1.0000000000
      2422       808  TIP3  OH2          -3.6645044393       13.9128217143        1.2939197881  CLST         808          1.0000000000
      2423       808  TIP3  H1           -3.0082511796       14.3999225698        1.8847602365  CLST         808          1.0000000000
      2424       808  TIP3  H2           -2.8978383024       13.6510822236        0.8281445920  CLST         808          1.0000000000
      2425       809  TIP3  OH2           2.1116161902       12.9383161910        9.3240575501  CLST         809          1.0000000000
      2426       809  TIP3  H1            2.0434614425       12.0686608942        8.9048481099  CLST         809          1.0000000000
      2427       809  TIP3  H2            1.2327301053       13.1028435732        8.8906919890  CLST         809          1.0000000000
      2428       810  TIP3  OH2          -1.9057000315        8.7221742453        8.6610488960  CLST         810          1.0000000000
      2429       810  TIP3  H1           -0.8003515775        8.4980659652        8.6866051476  CLST         810          1.0000000000
      2430       810  TIP3  H2           -1.5206794540        8.5328217596        9.3517733509  CLST         810          1.0000000000
      2431       811  TIP3  OH2          -3.7772015065      -12.4503620887       -9.0797759449  CLST         811          1.0000000000
      2432       811  TIP3  H1           -3.6902976801      -12.8861414774       -9.9497415177  CLST         811          1.0000000000
      2433       811  TIP3  H2           -4.4221791459      -11.7775668990       -9.3597865693  CLST         811          1.0000000000
      2434       812  TIP3  OH2          10.6958253815        4.4116174693      -13.5365722270  CLST         812          1.0000000000
      2435       812  TIP3  H1           11.2223030854        3.6241632111      -13.5413414083  CLST         812          1.0000000000
      2436       812  TIP3  H2           11.2507845796        4.8471718839      -14.2080041225  CLST         812          1.0000000000
      2437       813  TIP3  OH2          -2.4027294097        0.6161458767      -13.9955893808  CLST         813          1.0000000000
      2438       813  TIP3  H1           -2.4220808819        1.4031239859      -14.6260630148  CLST         813          1.0000000000
      2439       813  TIP3  H2           -3.3614510929        0.9028782344      -13.9503049514  CLST         813          1.0000000000
      2440       814  TIP3  OH2          -7.4911204815        8.3195062154       -8.9271091522  CLST         814          1.0000000000
      2441       814  TIP3  H1           -7.0515671540        9.1919664208       -8.8043485669  CLST         814          1.0000000000
      2442       814  TIP3  H2           -6.6149019489        7.9559988113       -8.7296308827  CLST         814          1.0000000000
      2443       815  TIP3  OH2          -5.3046082548        1.0337593455       -8.7686955268  CLST         815          1.0000000000
      2444       815  TIP3  H1           -4.9287238954        1.5718312659       -8.1008714527  CLST         815          1.0000000000
      2445       815  TIP3  H2           -5.5254674856        1.8307784076       -9.2145639881  CLST         815          1.0000000000
      2446       816  TIP3  OH2          -8.2679555066      -13.6572777535        1.4696818224  CLST         816          1.0000000000
      2447       816  TIP3  H1           -8.6030007177      -14.5599052473        1.7224793982  CLST         816          1.0000000000
      2448       816  TIP3  H2           -9.2029161985      -13.4970286423        1.3637043534  CLST         816          1.0000000000
      2449       817  TIP3  OH2           3.5081233294       14.5149681139       10.8192841428  CLST         817          1.0000000000
      2450       817  TIP3  H1            2.6788397475       13.6055503660       10.8689369425  CLST         817          1.0000000000
      2451       817  TIP3  H2            2.7620833394       14.2247095255       11.6567164556  CLST         817          1.0000000000
      2452       818  TIP3  OH2          11.5141866925       -3.4051061402       -5.7852085651  CLST         818          1.0000000000
      2453       818  TIP3  H1           11.5861746369       -2.7797352221       -5.0905124345  CLST         818          1.0000000000
      2454       818  TIP3  H2           10.5613232104       -3.1489084036       -5.7422784898  CLST         818          1.0000000000
      2455       819  TIP3  OH2           0.2011695271        0.0291437389      -10.5109032903  CLST         819          1.0000000000
      2456       819  TIP3  H1            0.7406655186       -0.6523318975      -10.8959386910  CLST         819          1.0000000000
      2457       819  TIP3  H2            0.9918416645        0.5306826074      -10.7356453917  CLST         819          1.0000000000
      2458       820  TIP3  OH2         -11.2715759073       -7.6874166948       14.2200614066  CLST         820          1.0000000000
      2459       820  TIP3  H1          -11.3413425389       -8.3093223767       14.9234896165  CLST         820          1.0000000000
      2460       820  TIP3  H2          -11.6666889406       -8.4247857424       13.6479304615  CLST         820          1.0000000000
      2461       821  TIP3  OH2          11.9186632317       -1.0002079619       14.7732270072  CLST         821          1.0000000000
      2462       821  TIP3  H1           12.6693962948       -0.4596368601       14.5981503050  CLST         821          1.0000000000
      2463       821  TIP3  H2           12.0580240002       -1.7263973294       14.1881085216  CLST         821          1.0000000000
      2464       822  TIP3  OH2          -7.1433298756       14.2547501868        9.3048664060  CLST         822          1.0000000000
      2465       822  TIP3  H1           -7.0327477228       14.2654592251        8.3834132676  CLST         822          1.0000000000
      2466       822  TIP3  H2           -6.7332362801       13.4102496154        9.4042106710  CLST         822          1.0000000000
      2467       823  TIP3  OH2          -9.3774232505       -1.8114826343        7.5371829725  CLST         823          1.0000000000
      2468       823  TIP3  H1           -9.7432208668       -2.6819063227        7.8348581541  CLST         823          1.0000000000
      2469       823  TIP3  H2           -8.6082702070       -2.0338890584        8.0597119454  CLST         823          1.0000000000
      2470       824  TIP3  OH2          10.9308569643        0.6816437804        6.9913978467  CLST         824          1.0000000000
      2471       824  TIP3  H1           10.9084885569        0.7173971797        6.0431627462  CLST         824          1.0000000000
      2472       824  TIP3  H2           10.5314031759        1.5908238391        6.8230188537  CLST         824          1.0000000000
      2473       825  TIP3  OH2          -4.7233613004      -11.7539579703      -14.1021456231  CLST         825          1.0000000000
      2474       825  TIP3  H1           -5.5168019227      -12.3006888975      -14.0092508159  CLST         825          1.0000000000
      2475       825  TIP3  H2           -5.1093722737      -11.0113636830      -13.6152286969  CLST         825          1.0000000000
      2476       826  TIP3  OH2           4.2500302479      -14.1118784947        2.3934152955  CLST         826          1.0000000000
      2477       826  TIP3  H1            4.3726265603      -15.0710695723        2.3611844522  CLST         826          1.0000000000
      2478       826  TIP3  H2            5.1545665100      -14.0821867052        2.6530548409  CLST         826          1.0000000000
      2479       827  TIP3  OH2         -10.0458066232        8.7833187886       -6.7327832874  CLST         827          1.0000000000
      2480       827  TIP3  H1           -9.1478696271        8.7217658674       -6.3749447478  CLST         827          1.0000000000
      2481       827  TIP3  H2          -10.1433185323        8.0793136488       -6.0454821729  CLST         827          1.0000000000
      2482       828  TIP3  OH2          -9.8800768862       -7.7274368299       11.1259715290  CLST         828          1.0000000000
      2483       828  TIP3  H1           -9.0773766694       -8.0521827147       11.5482035976  CLST         828          1.0000000000
      2484       828  TIP3  H2           -9.3185252666       -6.9705077243       10.9695192852  CLST         828          1.0000000000
      2485       829  TIP3  OH2           3.3120334328       12.8429099017        6.5917696090  CLST         829          1.0000000000
      2486       829  TIP3  H1            2.9918199600       13.0794157835        7.7553145168  CLST         829          1.0000000000
      2487       829  TIP3  H2            3.7792801184       13.4867886177        7.3615808652  CLST         829          1.0000000000
      2488       830  TIP3  OH2          14.0083738959        2.9234980637        9.1032457581  CLST         830          1.0000000000
      2489       830  TIP3  H1           14.3474058162        3.2652491234        9.9251432093  CLST         830          1.0000000000
      2490       830  TIP3  H2           14.7867338511        3.4053107933        8.7915973648  CLST         830          1.0000000000
      2491       831  TIP3  OH2           3.2109263374        2.3017685724        7.9629368571  CLST         831          1.0000000000
      2492       831  TIP3  H1            3.8305319926        3.0493810950        7.8535658063  CLST         831          1.0000000000
      2493       831  TIP3  H2            2.6787108680        3.0392366177        8.3469482120  CLST         831          1.0000000000
      2494       832  TIP3  OH2         -12.7293101283       -2.6423509337        1.2415126126  CLST         832          1.0000000000
      2495       832  TIP3  H1          -12.7227653227       -1.7210383875        0.9901757951  CLST         832          1.0000000000
      2496       832  TIP3  H2          -13.1998203505       -2.5491698175        2.0441076240  CLST         832          1.0000000000
      2497       833  TIP3  OH2           1.2585443828      -11.7339102625        5.4309840881  CLST         833          1.0000000000
      2498       833  TIP3  H1            1.8293526859      -11.2658123856        6.1129680205  CLST         833          1.0000000000
      2499       833  TIP3  H2            2.0698448393      -11.8942753547        4.9397759323  CLST         833          1.0000000000
      2500       834  TIP3  OH2           3.3025876815       -3.0954730711        4.3249673051  CLST         834          1.0000000000
      2501       834  TIP3  H1            2.9272706890       -2.2625613497        4.0182063143  CLST         834          1.0000000000
      2502       834  TIP3  H2            3.5362090992       -2.7632461678        5.1649668797  CLST         834          1.0000000000
      2503       835  TIP3  OH2           4.1389566532        2.5109511789        0.1588872654  CLST         835          1.0000000000
      2504       835  TIP3  H1            3.8534832719        2.6691081469       -0.7556546949  CLST         835          1.0000000000
      2505       835  TIP3  H2            3.7399655849        1.6042149036       -0.0692074801  CLST         835          1.0000000000
      2506       836  TIP3  OH2           7.4715967792       -5.5369765629       -9.4051418826  CLST         836          1.0000000000
      2507       836  TIP3  H1            6.9612089475       -6.1126012893       -8.7692017485  CLST         836          1.0000000000
      2508       836  TIP3  H2            8.0137887388       -6.2989454180       -9.4798638734  CLST         836          1.0000000000
      2509       837  TIP3  OH2           3.1539265931        5.9947995153       -0.5864713415  CLST         837          1.0000000000
      2510       837  TIP3  H1            2.4356080663        5.5806087397       -1.0316612172  CLST         837          1.0000000000
      2511       837  TIP3  H2            2.4387318810        6.3016717140       -0.0009063059  CLST         837          1.0000000000
      2512       838  TIP3  OH2          -1.5866904338      -13.5691960857      -10.9754696529  CLST         838          1.0000000000
      2513       838  TIP3  H1           -1.2848671767      -14.4299050326      -10.6849721311  CLST         838          1.0000000000
      2514       838  TIP3  H2           -2.4011133043      -13.9430367482      -11.2720892566  CLST         838          1.0000000000
      2515       839  TIP3  OH2           1.4741059446       -7.2747442050       -1.4434225676  CLST         839          1.0000000000
      2516       839  TIP3  H1            1.2814965040       -7.6821297042       -0.5514189953  CLST         839          1.0000000000
      2517       839  TIP3  H2            0.5359697943       -7.2473873752       -1.6801702246  CLST         839          1.0000000000
      2518       840  TIP3  OH2          -7.7614146014       11.6137979032       10.6537746360  CLST         840          1.0000000000
      2519       840  TIP3  H1           -7.9031410764       11.0798229018       11.4398779944  CLST         840          1.0000000000
      2520       840  TIP3  H2           -7.1432307670       10.9380032809       10.3196239998  CLST         840          1.0000000000
      2521       841  TIP3  OH2          -8.6898206924       -7.6466552568       -4.2714916060  CLST         841          1.0000000000
      2522       841  TIP3  H1           -8.3267981883       -7.9690528051       -3.4300678206  CLST         841          1.0000000000
      2523       841  TIP3  H2           -7.6963704545       -7.4082079855       -4.3326430275  CLST         841          1.0000000000
      2524       842  TIP3  OH2          11.6619504359      -14.0764381109        0.2734863186  CLST         842          1.0000000000
      2525       842  TIP3  H1           11.1575966582      -14.4389660430        1.0594645927  CLST         842          1.0000000000
      2526       842  TIP3  H2           11.4111716618      -14.9524676681       -0.0239622058  CLST         842          1.0000000000
      2527       843  TIP3  OH2           9.4761522120       13.0436185718        3.8347014436  CLST         843          1.0000000000
      2528       843  TIP3  H1            8.7756997028       12.7562372002        4.4197828916  CLST         843          1.0000000000
      2529       843  TIP3  H2            8.8266634251       13.2979371671        3.1822952231  CLST         843          1.0000000000
      2530       844  TIP3  OH2           1.6605751182      -12.6097037483       -1.8117623519  CLST         844          1.0000000000
      2531       844  TIP3  H1            1.9081651856      -12.8730276134       -0.9064662061  CLST         844          1.0000000000
      2532       844  TIP3  H2            0.7556436289      -12.6872723784       -1.4698787942  CLST         844          1.0000000000
      2533       845  TIP3  OH2         -14.8549306961        4.5409033172       10.5543328918  CLST         845          1.0000000000
      2534       845  TIP3  H1          -14.6773768641        3.8022402271       11.3696065462  CLST         845          1.0000000000
      2535       845  TIP3  H2          -14.0831082691        4.5799990637       11.3643456275  CLST         845          1.0000000000
      2536       846  TIP3  OH2         -10.8643542311       -7.4898264821        2.5190861964  CLST         846          1.0000000000
      2537       846  TIP3  H1          -11.6721122256       -7.9342921437        2.8522787816  CLST         846          1.0000000000
      2538       846  TIP3  H2          -11.4062094860       -6.7058106736        2.4586294776  CLST         846          1.0000000000
      2539       847  TIP3  OH2           4.6909263504        9.6247965258        5.1178509929  CLST         847          1.0000000000
      2540       847  TIP3  H1            4.7324957362       10.5529621673        5.0232651519  CLST         847          1.0000000000
      2541       847  TIP3  H2            5.1762227973        9.7216402725        5.9815797177  CLST         847          1.0000000000
      2542       848  TIP3  OH2          -9.1824829319        5.6441849080       -9.8937797004  CLST         848          1.0000000000
      2543       848  TIP3  H1          -10.0495077519        5.3242411344      -10.0837030812  CLST         848          1.0000000000
      2544       848  TIP3  H2           -9.6690823314        6.4422995975       -9.5560752641  CLST         848          1.0000000000
      2545       849  TIP3  OH2          -1.5625313043        1.7247005721        0.3061420476  CLST         849          1.0000000000
      2546       849  TIP3  H1           -0.6257966186        1.8754153719        0.3620211521  CLST         849          1.0000000000
      2547       849  TIP3  H2           -1.5121727437        1.8454928555       -0.6408602658  CLST         849          1.0000000000
      2548       850  TIP3  OH2           5.3012427555       -6.3415139352        5.6530993182  CLST         850          1.0000000000
      2549       850  TIP3  H1            4.5701080788       -6.2221319576        6.2435969181  CLST         850          1.0000000000
      2550       850  TIP3  H2            5.9933175767       -5.9314673065        6.2035034499  CLST         850          1.0000000000
      2551       851  TIP3  OH2           8.0414641032        6.3257526465        5.5965749497  CLST         851          1.0000000000
      2552       851  TIP3  H1            8.0450952918        6.5225519613        6.5634659342  CLST         851          1.0000000000
      2553       851  TIP3  H2            8.5755109382        7.0933670263        5.5443362544  CLST         851          1.0000000000
      2554       852  TIP3  OH2           9.2502590214        3.9780367914        1.4423113280  CLST         852          1.0000000000
      2555       852  TIP3  H1            8.7981851463        3.9098350316        2.5053225522  CLST         852          1.0000000000
      2556       852  TIP3  H2            8.3436949138        4.1510296253        1.4823659876  CLST         852          1.0000000000
      2557       853  TIP3  OH2           8.8916662758       -4.8732287758       -3.3237495901  CLST         853          1.0000000000
      2558       853  TIP3  H1            8.3399988605       -4.7863596949       -4.1109108969  CLST         853          1.0000000000
      2559       853  TIP3  H2            8.1236172197       -4.4597616322       -2.8892481180  CLST         853          1.0000000000
      2560       854  TIP3  OH2         -10.5080256282       -9.1632979134       -5.9557933280  CLST         854          1.0000000000
      2561       854  TIP3  H1           -9.8560446132       -8.4620549904       -6.1050579562  CLST         854          1.0000000000
      2562       854  TIP3  H2          -10.4212910070       -8.9031360698       -4.9985156102  CLST         854          1.0000000000
      2563       855  TIP3  OH2           2.6443467882       -3.4706850449       -6.7656475343  CLST         855          1.0000000000
      2564       855  TIP3  H1            2.2702760893       -2.9927913535       -6.0413915077  CLST         855          1.0000000000
      2565       855  TIP3  H2            2.7437994861       -2.6818425677       -7.3823016445  CLST         855          1.0000000000
      2566       856  TIP3  OH2           3.2754058228      -12.9817503045        0.2220203267  CLST         856          1.0000000000
      2567       856  TIP3  H1            4.0308905401      -12.5280220452       -0.1840925061  CLST         856          1.0000000000
      2568       856  TIP3  H2            3.9846460183      -13.4835606784        0.7136410681  CLST         856          1.0000000000
      2569       857  TIP3  OH2          -3.2054924261       -5.6021082908       10.9334201909  CLST         857          1.0000000000
      2570       857  TIP3  H1           -3.5088295573       -5.8858760544       11.8016034830  CLST         857          1.0000000000
      2571       857  TIP3  H2           -3.3878014460       -4.6813922257       11.2219729965  CLST         857          1.0000000000
      2572       858  TIP3  OH2           6.0767306404      -14.2861701831       12.8813018978  CLST         858          1.0000000000
      2573       858  TIP3  H1            6.2573412455      -15.0051344933       13.4130713493  CLST         858          1.0000000000
      2574       858  TIP3  H2            5.1985757365      -14.0352033905       13.2202404509  CLST         858          1.0000000000
      2575       859  TIP3  OH2          -8.5835656065       -1.3402107462      -13.0330193862  CLST         859          1.0000000000
      2576       859  TIP3  H1           -8.0042650672       -2.0510690452      -12.9679683948  CLST         859          1.0000000000
      2577       859  TIP3  H2           -7.9254932151       -0.9534541577      -12.4115952773  CLST         859          1.0000000000
      2578       860  TIP3  OH2          -9.6198352684       -6.3893039532       -1.0400401670  CLST         860          1.0000000000
      2579       860  TIP3  H1           -9.6322010665       -5.8794923559       -1.8156231428  CLST         860          1.0000000000
      2580       860  TIP3  H2           -8.7833167658       -6.8318022684       -1.2697134308  CLST         860          1.0000000000
      2581       861  TIP3  OH2           5.1373822612      -10.1652367790       -4.2234246297  CLST         861          1.0000000000
      2582       861  TIP3  H1            4.6074071061      -10.5127080485       -3.5584310680  CLST         861          1.0000000000
      2583       861  TIP3  H2            5.1908544647      -11.0149909999       -4.5652771830  CLST         861          1.0000000000
      2584       862  TIP3  OH2         -11.0430015916       -2.8360019174      -12.7018482808  CLST         862          1.0000000000
      2585       862  TIP3  H1          -10.2058820333       -2.4113524549      -12.9257825069  CLST         862          1.0000000000
      2586       862  TIP3  H2          -10.5773768350       -3.1138791481      -11.8736983210  CLST         862          1.0000000000
      2587       863  TIP3  OH2          10.6496219712      -10.6166494797       -8.6730101805  CLST         863          1.0000000000
      2588       863  TIP3  H1           11.4133151592      -10.4465914827       -8.1240350644  CLST         863          1.0000000000
      2589       863  TIP3  H2           11.3643049409      -10.9994610265       -9.2482318375  CLST         863          1.0000000000
      2590       864  TIP3  OH2         -13.4178441316        3.4844687078        3.2304124931  CLST         864          1.0000000000
      2591       864  TIP3  H1          -14.2625953191        3.6209060873        3.7125733379  CLST         864          1.0000000000
      2592       864  TIP3  H2          -13.5524975307        4.4079639202        2.9210007443  CLST         864          1.0000000000
      2593       865  TIP3  OH2          12.6526917177        8.8424952778      -11.4613872951  CLST         865          1.0000000000
      2594       865  TIP3  H1           13.0609074607        7.9950886517      -11.6631975842  CLST         865          1.0000000000
      2595       865  TIP3  H2           12.8355543292        8.7120518861      -10.5331765946  CLST         865          1.0000000000
      2596       866  TIP3  OH2           6.7467712957      -10.3750713059       -8.4002044371  CLST         866          1.0000000000
      2597       866  TIP3  H1            6.1145098004      -11.0333007185       -8.1062072381  CLST         866          1.0000000000
      2598       866  TIP3  H2            6.8826988885      -10.8942727809       -9.1808089153  CLST         866          1.0000000000
      2599       867  TIP3  OH2          -8.2258364456       12.3269031547       -3.1559190500  CLST         867          1.0000000000
      2600       867  TIP3  H1           -8.9123603957       12.0079565693       -2.5356519841  CLST         867          1.0000000000
      2601       867  TIP3  H2           -7.9138035626       13.1139438742       -2.7328905212  CLST         867          1.0000000000
      2602       868  TIP3  OH2          -9.8025531414       13.1726901483       10.1062710139  CLST         868          1.0000000000
      2603       868  TIP3  H1           -9.1490660487       12.5125506953       10.3164589200  CLST         868          1.0000000000
      2604       868  TIP3  H2           -9.0452872887       13.7437718378       10.0304508996  CLST         868          1.0000000000
      2605       869  TIP3  OH2           3.2051940990       -1.5632984179        1.0582596484  CLST         869          1.0000000000
      2606       869  TIP3  H1            2.3200144929       -1.8633656035        0.9489060923  CLST         869          1.0000000000
      2607       869  TIP3  H2            2.9437216528       -1.0012285805        1.8352992052  CLST         869          1.0000000000
      2608       870  TIP3  OH2          -7.0212199269       -3.6446511291      -12.9209100289  CLST         870          1.0000000000
      2609       870  TIP3  H1           -6.0478535443       -3.7039028984      -12.8617056229  CLST         870          1.0000000000
      2610       870  TIP3  H2           -6.9157592792       -3.7567224223      -13.8964629646  CLST         870          1.0000000000
      2611       871  TIP3  OH2          -7.2104582353        2.3568678369       -9.8017786808  CLST         871          1.0000000000
      2612       871  TIP3  H1           -7.4045086245        2.8864982671      -10.5481020684  CLST         871          1.0000000000
      2613       871  TIP3  H2           -8.0734839915        2.5414529737       -9.4533402939  CLST         871          1.0000000000
      2614       872  TIP3  OH2         -13.0887750959       11.3412363446      -10.1739089955  CLST         872          1.0000000000
      2615       872  TIP3  H1          -12.8833259681       11.7121600793      -10.9835888899  CLST         872          1.0000000000
      2616       872  TIP3  H2          -13.1660998017       10.4408003173      -10.3019290426  CLST         872          1.0000000000
      2617       873  TIP3  OH2          11.9308306578       -4.3340651577       -9.7427899585  CLST         873          1.0000000000
      2618       873  TIP3  H1           11.3963129352       -3.5759304305       -9.9238263244  CLST         873          1.0000000000
      2619       873  TIP3  H2           12.1152388424       -4.4558259864      -10.6341213661  CLST         873          1.0000000000
      2620       874  TIP3  OH2          12.8850964223        8.4806062666       -8.6993092381  CLST         874          1.0000000000
      2621       874  TIP3  H1           13.1921571527        7.7796866719       -8.0620690549  CLST         874          1.0000000000
      2622       874  TIP3  H2           11.9280588792        8.3461550434       -8.5750361705  CLST         874          1.0000000000
      2623       875  TIP3  OH2           1.3936474097       -1.5766142378      -12.2645471592  CLST         875          1.0000000000
      2624       875  TIP3  H1            2.2730022964       -1.8037903607      -12.6620353476  CLST         875          1.0000000000
      2625       875  TIP3  H2            0.9116856605       -1.8780732275      -13.0322227772  CLST         875          1.0000000000
      2626       876  TIP3  OH2           9.0259284502        7.1344079428      -11.8918999622  CLST         876          1.0000000000
      2627       876  TIP3  H1            8.7764263539        7.0305163609      -12.8143977932  CLST         876          1.0000000000
      2628       876  TIP3  H2            8.1639863064        7.1121332357      -11.5468141399  CLST         876          1.0000000000
      2629       877  TIP3  OH2          -7.2467485107      -13.2332021906       -5.0312262574  CLST         877          1.0000000000
      2630       877  TIP3  H1           -7.7909641961      -12.8197338498       -4.3756008647  CLST         877          1.0000000000
      2631       877  TIP3  H2           -6.5476794052      -12.5660723828       -4.8718822493  CLST         877          1.0000000000
      2632       878  TIP3  OH2           5.7324905827      -11.1449192550        6.8769414048  CLST         878          1.0000000000
      2633       878  TIP3  H1            5.4162355248      -11.2458191680        5.9758052956  CLST         878          1.0000000000
      2634       878  TIP3  H2            5.4836685482      -10.2314575593        6.7794758924  CLST         878          1.0000000000
      2635       879  TIP3  OH2           2.8917091229        5.3320871439       -7.0953446949  CLST         879          1.0000000000
      2636       879  TIP3  H1            3.4524541345        6.0913802074       -7.2221043905  CLST         879          1.0000000000
      2637       879  TIP3  H2            3.2548931298        5.2338679708       -6.2405617428  CLST         879          1.0000000000
      2638       880  TIP3  OH2          -5.4413229831       -1.6679768089       14.9062362963  CLST         880          1.0000000000
      2639       880  TIP3  H1           -6.1074224468       -2.2944948555       14.6796367315  CLST         880          1.0000000000
      2640       880  TIP3  H2           -5.7948256081       -0.9158431990       14.4801871520  CLST         880          1.0000000000
      2641       881  TIP3  OH2          -0.4799958018       13.4843164975        8.6079345940  CLST         881          1.0000000000
      2642       881  TIP3  H1           -0.4912413997       13.3257825379        7.6668150658  CLST         881          1.0000000000
      2643       881  TIP3  H2           -1.4609761852       13.4148990890        8.4541033591  CLST         881          1.0000000000
      2644       882  TIP3  OH2          11.9228433445       -1.9761304445       -1.5212297257  CLST         882          1.0000000000
      2645       882  TIP3  H1           11.3568805978       -2.6825227434       -1.8892761663  CLST         882          1.0000000000
      2646       882  TIP3  H2           11.8534371250       -2.2656936502       -0.6498060268  CLST         882          1.0000000000
      2647       883  TIP3  OH2           1.6534669878       -9.7146109364       -4.5213351346  CLST         883          1.0000000000
      2648       883  TIP3  H1            2.4213198186       -9.6082285306       -3.9188658231  CLST         883          1.0000000000
      2649       883  TIP3  H2            2.3171847873       -9.6174874545       -5.1846345516  CLST         883          1.0000000000
      2650       884  TIP3  OH2         -14.2663811782       -5.8953134335      -12.9456341269  CLST         884          1.0000000000
      2651       884  TIP3  H1          -13.6467128958       -6.8531663940      -12.8494705377  CLST         884          1.0000000000
      2652       884  TIP3  H2          -14.6452821318       -6.6499682100      -12.9119461040  CLST         884          1.0000000000
      2653       885  TIP3  OH2           0.8103063062       14.6365483396       -0.5085187773  CLST         885          1.0000000000
      2654       885  TIP3  H1           -0.1058255910       14.6236723193       -0.1773618742  CLST         885          1.0000000000
      2655       885  TIP3  H2            0.8761331253       13.7841390615       -0.0187246983  CLST         885          1.0000000000
      2656       886  TIP3  OH2          11.7327962601       10.1318402759        4.2012588340  CLST         886          1.0000000000
      2657       886  TIP3  H1           11.8777461059        9.4855784602        4.9235719720  CLST         886          1.0000000000
      2658       886  TIP3  H2           11.3064364292       10.5694407495        4.9546355850  CLST         886          1.0000000000
      2659       887  TIP3  OH2          -7.4713046210       -8.0129759582       -1.8769181948  CLST         887          1.0000000000
      2660       887  TIP3  H1           -7.2138023673       -8.9127783255       -2.0406768223  CLST         887          1.0000000000
      2661       887  TIP3  H2           -6.5091435553       -7.7705701959       -1.7884461451  CLST         887          1.0000000000
      2662       888  TIP3  OH2         -12.9286038531       -3.0470744995       10.5651177784  CLST         888          1.0000000000
      2663       888  TIP3  H1          -13.0651304653       -2.9360097383       11.5125458257  CLST         888          1.0000000000
      2664       888  TIP3  H2          -12.6456733888       -2.1138898351       10.6661948415  CLST         888          1.0000000000
      2665       889  TIP3  OH2           4.8523098870      -12.9673115914        8.7525430067  CLST         889          1.0000000000
      2666       889  TIP3  H1            5.3645690473      -12.4661354970        8.0462474459  CLST         889          1.0000000000
      2667       889  TIP3  H2            4.7478139394      -12.1107887563        9.1372638684  CLST         889          1.0000000000
      2668       890  TIP3  OH2         -13.5042322731        5.9338012390       -9.3464822817  CLST         890          1.0000000000
      2669       890  TIP3  H1          -13.0872842733        6.7681663419       -9.4193630720  CLST         890          1.0000000000
      2670       890  TIP3  H2          -14.3131242970        6.4634977394       -9.4796483628  CLST         890          1.0000000000
      2671       891  TIP3  OH2         -12.5026764152       -5.7998717891       10.8519057899  CLST         891          1.0000000000
      2672       891  TIP3  H1          -12.7819150574       -4.8757046991       10.5965160152  CLST         891          1.0000000000
      2673       891  TIP3  H2          -12.3336519879       -5.8102814865        9.8655477221  CLST         891          1.0000000000
      2674       892  TIP3  OH2           2.8870213262       13.5787086224       13.4511768817  CLST         892          1.0000000000
      2675       892  TIP3  H1            2.9284612931       13.7305279132       14.3902411531  CLST         892          1.0000000000
      2676       892  TIP3  H2            3.4152240089       12.8086160667       13.7346706037  CLST         892          1.0000000000
      2677       893  TIP3  OH2          -0.2655738230        7.2099678569        3.0037661828  CLST         893          1.0000000000
      2678       893  TIP3  H1           -0.8214026012        6.4756355656        2.8061974579  CLST         893          1.0000000000
      2679       893  TIP3  H2           -0.9994353923        7.7750049274        2.7840434069  CLST         893          1.0000000000
      2680       894  TIP3  OH2           9.3180375519       11.2431250057        0.4751327954  CLST         894          1.0000000000
      2681       894  TIP3  H1            9.8294975877       11.8018019341        1.0017508557  CLST         894          1.0000000000
      2682       894  TIP3  H2            8.4974110371       11.8053401561        0.5506865193  CLST         894          1.0000000000
      2683       895  TIP3  OH2          -9.8860889818       10.2078432311      -10.5932448897  CLST         895          1.0000000000
      2684       895  TIP3  H1          -10.1569973762       11.1400570121      -10.3312090829  CLST         895          1.0000000000
      2685       895  TIP3  H2           -9.0064270491       10.7043231015      -10.7137905368  CLST         895          1.0000000000
      2686       896  TIP3  OH2           7.9526814539       -6.5451692142       -0.3518974772  CLST         896          1.0000000000
      2687       896  TIP3  H1            7.5146413101       -6.8426266159       -1.3637164382  CLST         896          1.0000000000
      2688       896  TIP3  H2            8.2138719238       -7.3960984640       -1.0035676129  CLST         896          1.0000000000
      2689       897  TIP3  OH2           9.4469757807       -2.3655674118       -9.0579492178  CLST         897          1.0000000000
      2690       897  TIP3  H1            9.5238789714       -2.8263309600       -8.2378691835  CLST         897          1.0000000000
      2691       897  TIP3  H2            9.3076124505       -1.5194273854       -8.6123929313  CLST         897          1.0000000000
      2692       898  TIP3  OH2          13.8137732445        5.9658981714      -11.7909138095  CLST         898          1.0000000000
      2693       898  TIP3  H1           14.0293936338        5.2033080991      -11.2523175366  CLST         898          1.0000000000
      2694       898  TIP3  H2           12.9005945170        5.8140886386      -11.5063336648  CLST         898          1.0000000000
      2695       899  TIP3  OH2          14.1018063675       -6.4901712539        1.6476175351  CLST         899          1.0000000000
      2696       899  TIP3  H1           13.9166039515       -7.2684760966        1.1707135907  CLST         899          1.0000000000
      2697       899  TIP3  H2           13.6442231736       -6.7926841970        2.4626420472  CLST         899          1.0000000000
      2698       900  TIP3  OH2          -9.6978075769      -10.1556264624        9.9582154629  CLST         900          1.0000000000
      2699       900  TIP3  H1           -9.6960279250       -9.2446236511       10.2069341005  CLST         900          1.0000000000
      2700       900  TIP3  H2           -8.7708932738       -9.8928482518        9.7209952724  CLST         900          1.0000000000
      2701       901  TIP3  OH2          10.1378515530        8.7418688270       -8.6672130880  CLST         901          1.0000000000
      2702       901  TIP3  H1           10.0360851879        9.4842053799       -9.2843944054  CLST         901          1.0000000000
      2703       901  TIP3  H2            9.2450196827        8.4415890833       -8.6759237480  CLST         901          1.0000000000
      2704       902  TIP3  OH2           3.6640740622        0.3392929159        9.8517604740  CLST         902          1.0000000000
      2705       902  TIP3  H1            4.1851234596       -0.0781102064        9.1056847778  CLST         902          1.0000000000
      2706       902  TIP3  H2            3.2567440529        0.9739208539        9.2627021474  CLST         902          1.0000000000
      2707       903  TIP3  OH2          -1.0887738286        0.6398596109       -8.3366170597  CLST         903          1.0000000000
      2708       903  TIP3  H1           -0.9158320572        0.4444626561       -9.2300616401  CLST         903          1.0000000000
      2709       903  TIP3  H2           -0.4455371952       -0.0534681667       -8.2286840075  CLST         903          1.0000000000
