* Geometry rescue: heat segment 1/2 at step 2000
*
        2709  EXT
         1         1  TIP3  OH2           5.5003205356        0.8527381819       -3.5714318777  CLST           1          1.0000000000
         2         1  TIP3  H1            5.1158930940        0.6295246128       -2.6846712832  CLST           1          1.0000000000
         3         1  TIP3  H2            4.6265061572        0.7711377792       -4.0599112348  CLST           1          1.0000000000
         4         2  TIP3  OH2          15.0307315073       -2.1509705094       -1.4568179646  CLST           2          1.0000000000
         5         2  TIP3  H1           14.0605353122       -2.0332722071       -1.4671917611  CLST           2          1.0000000000
         6         2  TIP3  H2           15.0652615434       -3.1031910545       -1.1933410028  CLST           2          1.0000000000
         7         3  TIP3  OH2          -8.4209079828       -6.5498481484       -7.6801334098  CLST           3          1.0000000000
         8         3  TIP3  H1           -9.3466408116       -6.1668960192       -7.6627136665  CLST           3          1.0000000000
         9         3  TIP3  H2           -8.3607412102       -6.7337831620       -8.6574874336  CLST           3          1.0000000000
        10         4  TIP3  OH2          -9.3850126564       -3.9064499009       12.8945718555  CLST           4          1.0000000000
        11         4  TIP3  H1          -10.1490978533       -4.4635179593       13.1839750448  CLST           4          1.0000000000
        12         4  TIP3  H2           -9.2540618672       -4.2388416009       11.9654714475  CLST           4          1.0000000000
        13         5  TIP3  OH2          -3.3220408352      -10.1646537913       14.4057879806  CLST           5          1.0000000000
        14         5  TIP3  H1           -3.7813004560      -10.8810438307       14.9049437243  CLST           5          1.0000000000
        15         5  TIP3  H2           -3.5631240256      -10.4189568447       13.4783852103  CLST           5          1.0000000000
        16         6  TIP3  OH2          -3.3985351806        9.6010373349       14.1583357696  CLST           6          1.0000000000
        17         6  TIP3  H1           -2.4591577210        9.8346445528       13.9249877710  CLST           6          1.0000000000
        18         6  TIP3  H2           -3.2307283906        9.4998382693       15.1037045819  CLST           6          1.0000000000
        19         7  TIP3  OH2          -5.0821267742       -1.3808434790        8.8401013609  CLST           7          1.0000000000
        20         7  TIP3  H1           -4.5368088871       -1.0486823188        8.0827324221  CLST           7          1.0000000000
        21         7  TIP3  H2           -5.4534552165       -2.1680937676        8.3605771999  CLST           7          1.0000000000
        22         8  TIP3  OH2          -7.1912261261       -4.6983391779       -1.1746071735  CLST           8          1.0000000000
        23         8  TIP3  H1           -7.2266135076       -5.0440689728       -0.2583328228  CLST           8          1.0000000000
        24         8  TIP3  H2           -6.2600246395       -4.8386154055       -1.4278357628  CLST           8          1.0000000000
        25         9  TIP3  OH2         -13.2172530303       -5.4183957658        0.3688200689  CLST           9          1.0000000000
        26         9  TIP3  H1          -14.1380410126       -5.2180613717        0.0192621958  CLST           9          1.0000000000
        27         9  TIP3  H2          -12.9206291570       -4.4813741964        0.3934859750  CLST           9          1.0000000000
        28        10  TIP3  OH2          -4.3987190954        8.1169379365       -8.5287324943  CLST          10          1.0000000000
        29        10  TIP3  H1           -4.7199061515        9.0250708783       -8.5977255312  CLST          10          1.0000000000
        30        10  TIP3  H2           -3.4745886554        7.9793602703       -8.7784747477  CLST          10          1.0000000000
        31        11  TIP3  OH2           5.9091781086       12.7081038459       10.7417668124  CLST          11          1.0000000000
        32        11  TIP3  H1            5.1735475418       13.3292261893       10.9602166849  CLST          11          1.0000000000
        33        11  TIP3  H2            5.4463193276       11.8584421666       10.9648897700  CLST          11          1.0000000000
        34        12  TIP3  OH2         -11.8036401203      -13.2477368925       -3.1320579856  CLST          12          1.0000000000
        35        12  TIP3  H1          -12.5119907993      -12.5948548736       -2.9303860339  CLST          12          1.0000000000
        36        12  TIP3  H2          -12.0776547416      -13.4442094810       -4.0572188791  CLST          12          1.0000000000
        37        13  TIP3  OH2          -0.6587867433      -10.8870711729        3.0052180019  CLST          13          1.0000000000
        38        13  TIP3  H1            0.2710938512      -11.2657652916        2.9031244793  CLST          13          1.0000000000
        39        13  TIP3  H2           -0.3935248314      -10.2403685977        3.7107817751  CLST          13          1.0000000000
        40        14  TIP3  OH2          -1.8079521366        5.1588646946        7.9818344223  CLST          14          1.0000000000
        41        14  TIP3  H1           -1.8458936906        5.1788551001        8.9653093842  CLST          14          1.0000000000
        42        14  TIP3  H2           -0.8811168360        4.8689486794        7.8157036030  CLST          14          1.0000000000
        43        15  TIP3  OH2           1.1763652142       -1.2346956819       -4.7180200682  CLST          15          1.0000000000
        44        15  TIP3  H1            0.4368039595       -0.7705093727       -4.2323709724  CLST          15          1.0000000000
        45        15  TIP3  H2            1.3034428298       -2.0230231375       -4.1184165852  CLST          15          1.0000000000
        46        16  TIP3  OH2          -4.6065803484       -6.2670365313       13.5368123725  CLST          16          1.0000000000
        47        16  TIP3  H1           -3.9175925234       -6.9556580385       13.7208675660  CLST          16          1.0000000000
        48        16  TIP3  H2           -5.2006377604       -6.3584321366       14.3115799582  CLST          16          1.0000000000
        49        17  TIP3  OH2           8.4142103731       -0.5645064473        2.5991703921  CLST          17          1.0000000000
        50        17  TIP3  H1            7.6970668354       -1.1619257285        2.9035093780  CLST          17          1.0000000000
        51        17  TIP3  H2            9.0556832852       -1.1921515619        2.2075281883  CLST          17          1.0000000000
        52        18  TIP3  OH2           2.6552862759       -8.4113262665       -8.7000197065  CLST          18          1.0000000000
        53        18  TIP3  H1            2.9843076099       -7.6000291829       -8.2403928373  CLST          18          1.0000000000
        54        18  TIP3  H2            2.7458094528       -9.0627549262       -7.9630927999  CLST          18          1.0000000000
        55        19  TIP3  OH2           6.7982331735        7.6685266534       14.4612143383  CLST          19          1.0000000000
        56        19  TIP3  H1            7.3353155702        7.0222774910       14.9772560106  CLST          19          1.0000000000
        57        19  TIP3  H2            6.8757548008        8.4229608299       15.1037045819  CLST          19          1.0000000000
        58        20  TIP3  OH2           4.1008116037        9.3424696778        8.9467613543  CLST          20          1.0000000000
        59        20  TIP3  H1            3.3320186166        9.9333475959        8.6997779973  CLST          20          1.0000000000
        60        20  TIP3  H2            3.7919080357        8.5802256874        8.4022101769  CLST          20          1.0000000000
        61        21  TIP3  OH2           0.6113503784       -8.4235497037        0.9819189875  CLST          21          1.0000000000
        62        21  TIP3  H1            0.6435322713       -8.3019927002        1.9612243951  CLST          21          1.0000000000
        63        21  TIP3  H2           -0.3444724471       -8.6763113047        0.8940962341  CLST          21          1.0000000000
        64        22  TIP3  OH2          11.5175808864       -9.6531669180       10.4279776468  CLST          22          1.0000000000
        65        22  TIP3  H1           11.0197032205       -9.1761662727        9.7257010744  CLST          22          1.0000000000
        66        22  TIP3  H2           11.3061956613      -10.5677720074       10.1163295066  CLST          22          1.0000000000
        67        23  TIP3  OH2          12.4588151375      -14.6454370880      -10.7496810005  CLST          23          1.0000000000
        68        23  TIP3  H1           11.7958427977      -15.1037045819      -10.2043101127  CLST          23          1.0000000000
        69        23  TIP3  H2           13.1767443295      -14.5951908923      -10.0960020632  CLST          23          1.0000000000
        70        24  TIP3  OH2          13.0036358440       -7.3929831252       14.3280072064  CLST          24          1.0000000000
        71        24  TIP3  H1           12.3628091923       -7.4030812300       13.5593708685  CLST          24          1.0000000000
        72        24  TIP3  H2           12.3969788364       -7.7928944882       14.9681040797  CLST          24          1.0000000000
        73        25  TIP3  OH2           0.2054698344       -5.7548167627        5.7697383250  CLST          25          1.0000000000
        74        25  TIP3  H1           -0.4162740980       -5.5300463525        5.0488997369  CLST          25          1.0000000000
        75        25  TIP3  H2           -0.0382432647       -6.6385417949        6.1029717495  CLST          25          1.0000000000
        76        26  TIP3  OH2          -5.4570171817       -5.4782720830       -7.9923663906  CLST          26          1.0000000000
        77        26  TIP3  H1           -6.3393534482       -5.8750321693       -7.9542515528  CLST          26          1.0000000000
        78        26  TIP3  H2           -5.1179084445       -5.8613227878       -8.8337405535  CLST          26          1.0000000000
        79        27  TIP3  OH2           3.8942692730       12.3337356308       -0.8608048182  CLST          27          1.0000000000
        80        27  TIP3  H1            4.8495366489       12.2193390168       -0.6318279484  CLST          27          1.0000000000
        81        27  TIP3  H2            3.9001901972       13.3228256435       -0.9993801787  CLST          27          1.0000000000
        82        28  TIP3  OH2          -5.2064909927       -6.2591814550        6.5399759065  CLST          28          1.0000000000
        83        28  TIP3  H1           -4.2220082777       -6.4457473018        6.5188377920  CLST          28          1.0000000000
        84        28  TIP3  H2           -5.3750617973       -6.5859608982        5.6159499114  CLST          28          1.0000000000
        85        29  TIP3  OH2           4.1174045241      -10.2216355922       13.3724046682  CLST          29          1.0000000000
        86        29  TIP3  H1            4.9548048830       -9.8826759419       12.9929871706  CLST          29          1.0000000000
        87        29  TIP3  H2            3.4830143238       -9.5775635576       13.0167987322  CLST          29          1.0000000000
        88        30  TIP3  OH2          -0.9350287141       -3.4382709286       11.8926077718  CLST          30          1.0000000000
        89        30  TIP3  H1           -1.2866450897       -4.1076302980       12.5407260810  CLST          30          1.0000000000
        90        30  TIP3  H2           -0.5077604065       -2.8026558971       12.5286443110  CLST          30          1.0000000000
        91        31  TIP3  OH2          -5.4969926909      -10.2542568873       -9.8410320771  CLST          31          1.0000000000
        92        31  TIP3  H1           -6.4601561753      -10.0916446036       -9.6403883973  CLST          31          1.0000000000
        93        31  TIP3  H2           -5.1493107601       -9.5026320820       -9.3332713935  CLST          31          1.0000000000
        94        32  TIP3  OH2           4.4220766823        6.4765458278       14.9226102586  CLST          32          1.0000000000
        95        32  TIP3  H1            5.2054353575        6.8944558901       14.5198165079  CLST          32          1.0000000000
        96        32  TIP3  H2            3.6987549166        6.5683362737       14.2718417314  CLST          32          1.0000000000
        97        33  TIP3  OH2           1.8209931448       -5.5818413678       11.7843464477  CLST          33          1.0000000000
        98        33  TIP3  H1            1.7698406071       -4.9404822014       12.5279183583  CLST          33          1.0000000000
        99        33  TIP3  H2            1.7355656434       -4.9847484923       11.0158529926  CLST          33          1.0000000000
       100        34  TIP3  OH2         -12.4395395130       -6.5551365938        5.6976573008  CLST          34          1.0000000000
       101        34  TIP3  H1          -12.2736873157       -6.3338271330        4.7498806302  CLST          34          1.0000000000
       102        34  TIP3  H2          -13.4292676828       -6.6009316811        5.6443628526  CLST          34          1.0000000000
       103        35  TIP3  OH2         -12.5323342651        9.3153610733       14.2021924739  CLST          35          1.0000000000
       104        35  TIP3  H1          -13.2237384236        9.7571144818       13.6381381162  CLST          35          1.0000000000
       105        35  TIP3  H2          -12.8519829505        9.4075110644       15.1037045819  CLST          35          1.0000000000
       106        36  TIP3  OH2           6.5372877090       -8.6103476579      -11.7610337403  CLST          36          1.0000000000
       107        36  TIP3  H1            7.2652717389       -8.8393566499      -11.1393615507  CLST          36          1.0000000000
       108        36  TIP3  H2            6.7903667136       -9.2421183313      -12.4802431905  CLST          36          1.0000000000
       109        37  TIP3  OH2          10.3643001566      -12.0205581303        6.6083468347  CLST          37          1.0000000000
       110        37  TIP3  H1            9.5557678875      -11.7789479889        7.1196727356  CLST          37          1.0000000000
       111        37  TIP3  H2           10.8570367620      -12.4604407185        7.3508728263  CLST          37          1.0000000000
       112        38  TIP3  OH2           5.8321392899      -12.2032666962       -0.5827620382  CLST          38          1.0000000000
       113        38  TIP3  H1            6.4919625086      -12.8551992094       -0.2539877084  CLST          38          1.0000000000
       114        38  TIP3  H2            5.5791698698      -12.5942729402       -1.4528626215  CLST          38          1.0000000000
       115        39  TIP3  OH2          13.4095437215        6.4345346572       -6.8129549124  CLST          39          1.0000000000
       116        39  TIP3  H1           13.4696867863        5.5258505069       -7.1864793748  CLST          39          1.0000000000
       117        39  TIP3  H2           12.6854314238        6.2044695053       -6.1689503206  CLST          39          1.0000000000
       118        40  TIP3  OH2          -4.9055740130       14.2610521222       -6.0176404498  CLST          40          1.0000000000
       119        40  TIP3  H1           -5.5074522937       14.5639540772       -5.3028418544  CLST          40          1.0000000000
       120        40  TIP3  H2           -4.4112217014       13.6116049098       -5.4537861297  CLST          40          1.0000000000
       121        41  TIP3  OH2          11.1820353534        5.5953309497      -11.2413155328  CLST          41          1.0000000000
       122        41  TIP3  H1           11.0796452685        5.0054175449      -12.0361761059  CLST          41          1.0000000000
       123        41  TIP3  H2           10.5509016688        6.3159016035      -11.4784944121  CLST          41          1.0000000000
       124        42  TIP3  OH2          -1.1432559006       -6.8289207069       -2.2164596180  CLST          42          1.0000000000
       125        42  TIP3  H1           -1.3472560570       -5.9016668636       -2.4260691005  CLST          42          1.0000000000
       126        42  TIP3  H2           -1.1461669227       -7.2319441862       -3.1197647202  CLST          42          1.0000000000
       127        43  TIP3  OH2           9.9568866201      -11.1086008666       -1.8442673366  CLST          43          1.0000000000
       128        43  TIP3  H1            9.7526041736      -11.2533095244       -0.8775069829  CLST          43          1.0000000000
       129        43  TIP3  H2            9.5114865839      -11.9496526488       -2.1394981739  CLST          43          1.0000000000
       130        44  TIP3  OH2           0.5015345654       -3.0918312249        6.5345106395  CLST          44          1.0000000000
       131        44  TIP3  H1           -0.2908845905       -3.1487880104        7.1244128765  CLST          44          1.0000000000
       132        44  TIP3  H2            0.4880167983       -4.0538555730        6.2993274610  CLST          44          1.0000000000
       133        45  TIP3  OH2           4.6673406034       -6.3089961840        9.2872728247  CLST          45          1.0000000000
       134        45  TIP3  H1            4.6500775893       -5.3270780260        9.1515154355  CLST          45          1.0000000000
       135        45  TIP3  H2            4.8663276544       -6.3115953214       10.2497383968  CLST          45          1.0000000000
       136        46  TIP3  OH2           7.7782724057        4.8148424438       -8.1535889788  CLST          46          1.0000000000
       137        46  TIP3  H1            7.2537573267        5.2512673975       -7.4282400735  CLST          46          1.0000000000
       138        46  TIP3  H2            7.1397709845        5.0235089486       -8.8721446246  CLST          46          1.0000000000
       139        47  TIP3  OH2         -11.1079978282      -11.0483481778        3.2298266234  CLST          47          1.0000000000
       140        47  TIP3  H1          -11.4295981458      -10.3862597320        3.9319411846  CLST          47          1.0000000000
       141        47  TIP3  H2          -10.8068304473      -11.6916883673        3.9456310877  CLST          47          1.0000000000
       142        48  TIP3  OH2         -14.5562153042        9.4388749306        8.5872234389  CLST          48          1.0000000000
       143        48  TIP3  H1          -14.4644278678        9.6705260380        7.6404996658  CLST          48          1.0000000000
       144        48  TIP3  H2          -13.8457777331       10.0511743910        8.8833162748  CLST          48          1.0000000000
       145        49  TIP3  OH2           8.5800202971       -4.2355992528        3.9981095934  CLST          49          1.0000000000
       146        49  TIP3  H1            7.6566523390       -4.4894771225        3.7743614263  CLST          49          1.0000000000
       147        49  TIP3  H2            8.9327898484       -4.0548308275        3.1190388610  CLST          49          1.0000000000
       148        50  TIP3  OH2          11.3055343020        5.6942925907       -5.1356682019  CLST          50          1.0000000000
       149        50  TIP3  H1           11.4423921795        4.9315688727       -4.5081469713  CLST          50          1.0000000000
       150        50  TIP3  H2           10.3225700942        5.5623991744       -5.1639717168  CLST          50          1.0000000000
       151        51  TIP3  OH2          12.9616457236       -1.3076067888      -10.6348504339  CLST          51          1.0000000000
       152        51  TIP3  H1           13.2694223515       -2.0204904466      -11.2608423696  CLST          51          1.0000000000
       153        51  TIP3  H2           12.5786704541       -0.6933167990      -11.3221080903  CLST          51          1.0000000000
       154        52  TIP3  OH2          -1.7606261120       -1.5575161244       10.1045005694  CLST          52          1.0000000000
       155        52  TIP3  H1           -2.5271472389       -1.1094018984       10.5445886282  CLST          52          1.0000000000
       156        52  TIP3  H2           -1.4500951833       -2.0843310426       10.8685743050  CLST          52          1.0000000000
       157        53  TIP3  OH2         -10.9428602842       14.2767585070       -7.0177744892  CLST          53          1.0000000000
       158        53  TIP3  H1          -11.4589911195       15.0710640601       -6.7515521788  CLST          53          1.0000000000
       159        53  TIP3  H2          -10.0687307497       14.7486422256       -7.0248742203  CLST          53          1.0000000000
       160        54  TIP3  OH2         -13.8425187936       -5.3988070370       -8.1688358509  CLST          54          1.0000000000
       161        54  TIP3  H1          -12.8628853708       -5.5158417510       -8.1642577881  CLST          54          1.0000000000
       162        54  TIP3  H2          -13.9673475058       -4.9066387041       -9.0200027733  CLST          54          1.0000000000
       163        55  TIP3  OH2           0.2629029068        9.4099974640      -10.5826469500  CLST          55          1.0000000000
       164        55  TIP3  H1           -0.5548253521        9.7665052058      -10.9993276046  CLST          55          1.0000000000
       165        55  TIP3  H2            0.5928164379       10.1790305147      -10.0546470250  CLST          55          1.0000000000
       166        56  TIP3  OH2          -1.5707537644       -5.0690462733       14.0698372461  CLST          56          1.0000000000
       167        56  TIP3  H1           -2.2755295431       -4.5523579511       14.5209515426  CLST          56          1.0000000000
       168        56  TIP3  H2           -1.8622045270       -6.0027308916       14.1394246730  CLST          56          1.0000000000
       169        57  TIP3  OH2         -10.4633989645       11.4833344127       -1.4582845195  CLST          57          1.0000000000
       170        57  TIP3  H1          -10.9350805298       11.7607828473       -0.6339196664  CLST          57          1.0000000000
       171        57  TIP3  H2          -11.2921004550       11.4810824387       -1.9945945493  CLST          57          1.0000000000
       172        58  TIP3  OH2           9.7191523269        1.4764763458        0.2246592217  CLST          58          1.0000000000
       173        58  TIP3  H1            8.8290606028        1.0554095653        0.3432496992  CLST          58          1.0000000000
       174        58  TIP3  H2            9.4842577834        2.3825794238        0.5660669664  CLST          58          1.0000000000
       175        59  TIP3  OH2         -13.1860132739       12.9935876918        5.2881726078  CLST          59          1.0000000000
       176        59  TIP3  H1          -13.1232756326       13.2712435296        4.3583673638  CLST          59          1.0000000000
       177        59  TIP3  H2          -12.2562128942       12.6936556323        5.3450770991  CLST          59          1.0000000000
       178        60  TIP3  OH2          -3.9304723629        3.1675121426        7.2691225227  CLST          60          1.0000000000
       179        60  TIP3  H1           -3.3868835563        2.4193970981        7.6199945713  CLST          60          1.0000000000
       180        60  TIP3  H2           -3.2948708492        3.8923028283        7.4665399803  CLST          60          1.0000000000
       181        61  TIP3  OH2           0.5559122153       -2.0631005869        0.4504783454  CLST          61          1.0000000000
       182        61  TIP3  H1           -0.0311701998       -1.5659322185        1.0737581467  CLST          61          1.0000000000
       183        61  TIP3  H2            0.2059799906       -2.9812658537        0.5409397256  CLST          61          1.0000000000
       184        62  TIP3  OH2          -3.7940070179        8.8826026702        4.3885561350  CLST          62          1.0000000000
       185        62  TIP3  H1           -3.2921826801        8.2521927296        4.9414811051  CLST          62          1.0000000000
       186        62  TIP3  H2           -3.0653179439        9.4351559627        4.0049177231  CLST          62          1.0000000000
       187        63  TIP3  OH2          -0.3555079901        7.7408487777       -3.0254413516  CLST          63          1.0000000000
       188        63  TIP3  H1           -0.7381703184        8.4112198076       -3.6492000695  CLST          63          1.0000000000
       189        63  TIP3  H2           -0.9371589307        7.9499470889       -2.2403869226  CLST          63          1.0000000000
       190        64  TIP3  OH2         -13.6938062667        3.4722420233       -3.5357329653  CLST          64          1.0000000000
       191        64  TIP3  H1          -12.9793886063        4.1307853268       -3.3356716867  CLST          64          1.0000000000
       192        64  TIP3  H2          -14.4565271806        4.0917005125       -3.4683273758  CLST          64          1.0000000000
       193        65  TIP3  OH2          -9.3400281899      -12.1044875521      -11.7061183760  CLST          65          1.0000000000
       194        65  TIP3  H1           -9.4647539240      -12.3946248503      -10.7536922299  CLST          65          1.0000000000
       195        65  TIP3  H2          -10.3149323766      -11.9111296743      -11.8637697823  CLST          65          1.0000000000
       196        66  TIP3  OH2          13.0446753044       -7.9548264438        3.7004015964  CLST          66          1.0000000000
       197        66  TIP3  H1           13.3430719276       -8.6970983585        3.0861693755  CLST          66          1.0000000000
       198        66  TIP3  H2           12.8516684197       -8.5536970576        4.4777302745  CLST          66          1.0000000000
       199        67  TIP3  OH2           7.4756994532       -0.6899979396       -6.4566182151  CLST          67          1.0000000000
       200        67  TIP3  H1            8.0060667131       -1.4215886383       -6.0880079817  CLST          67          1.0000000000
       201        67  TIP3  H2            8.2084098234       -0.2080381999       -6.9048473464  CLST          67          1.0000000000
       202        68  TIP3  OH2          -7.0407048158        1.1876963298        0.7286003726  CLST          68          1.0000000000
       203        68  TIP3  H1           -7.7053873982        0.6007845278        1.1749858778  CLST          68          1.0000000000
       204        68  TIP3  H2           -6.8838359073        1.9009707040        1.3840378316  CLST          68          1.0000000000
       205        69  TIP3  OH2         -11.7885554186       -0.7717884417        7.1639215402  CLST          69          1.0000000000
       206        69  TIP3  H1          -10.8992848843       -1.1067395208        7.4317105780  CLST          69          1.0000000000
       207        69  TIP3  H2          -11.6567679357        0.2017120567        7.3279775119  CLST          69          1.0000000000
       208        70  TIP3  OH2          -1.7998760578        7.4195396905       -8.3312543562  CLST          70          1.0000000000
       209        70  TIP3  H1           -0.8467455397        7.2186053789       -8.5005586134  CLST          70          1.0000000000
       210        70  TIP3  H2           -1.6017782871        8.2465463236       -7.8147592027  CLST          70          1.0000000000
       211        71  TIP3  OH2         -13.3780639338       -1.7826845377       -5.6188098457  CLST          71          1.0000000000
       212        71  TIP3  H1          -12.9300302699       -1.6485631821       -4.7385653599  CLST          71          1.0000000000
       213        71  TIP3  H2          -13.5288578208       -0.8267999208       -5.8134083120  CLST          71          1.0000000000
       214        72  TIP3  OH2          11.0147751122       -2.6037125205        4.8089772645  CLST          72          1.0000000000
       215        72  TIP3  H1           10.6315704227       -2.5780697981        3.8815222540  CLST          72          1.0000000000
       216        72  TIP3  H2           11.4966575005       -1.7313272995        4.6997290208  CLST          72          1.0000000000
       217        73  TIP3  OH2          -3.6496680069      -13.6310497337       -6.7904781804  CLST          73          1.0000000000
       218        73  TIP3  H1           -3.8163328331      -13.4093330005       -7.7141356730  CLST          73          1.0000000000
       219        73  TIP3  H2           -3.9809598411      -14.5248892844       -6.6178004149  CLST          73          1.0000000000
       220        74  TIP3  OH2          -4.7215405667       12.2608813261       -1.6498832851  CLST          74          1.0000000000
       221        74  TIP3  H1           -5.2951908299       11.5314750015       -2.0034702043  CLST          74          1.0000000000
       222        74  TIP3  H2           -5.3946862601       12.9888925711       -1.5739102192  CLST          74          1.0000000000
       223        75  TIP3  OH2          -9.5874268661        4.8577988798        5.4580605897  CLST          75          1.0000000000
       224        75  TIP3  H1           -8.8406334809        5.4432295322        5.7158720035  CLST          75          1.0000000000
       225        75  TIP3  H2          -10.1390175498        5.0528608062        6.2630023576  CLST          75          1.0000000000
       226        76  TIP3  OH2           8.5349723172       13.5879768147       -9.0939041236  CLST          76          1.0000000000
       227        76  TIP3  H1            8.6621632450       13.7543749938      -10.0811204075  CLST          76          1.0000000000
       228        76  TIP3  H2            9.5127202977       13.2948028689       -8.9844581803  CLST          76          1.0000000000
       229        77  TIP3  OH2           0.4312303152       -5.1303668471       -5.4693374318  CLST          77          1.0000000000
       230        77  TIP3  H1            0.6641548766       -4.9256896846       -6.4026471822  CLST          77          1.0000000000
       231        77  TIP3  H2           -0.4469117503       -5.5288532746       -5.6939176702  CLST          77          1.0000000000
       232        78  TIP3  OH2          -5.5142076940       -8.2307133379        1.4425595310  CLST          78          1.0000000000
       233        78  TIP3  H1           -5.1742025217       -7.8078837027        0.6253771988  CLST          78          1.0000000000
       234        78  TIP3  H2           -6.0778463046       -8.9395589535        1.0355900502  CLST          78          1.0000000000
       235        79  TIP3  OH2           6.9353880225      -14.2531423177       10.3181765048  CLST          79          1.0000000000
       236        79  TIP3  H1            6.5009562044      -14.5169425941       11.1664965177  CLST          79          1.0000000000
       237        79  TIP3  H2            6.1551537637      -13.9819592984        9.7789446908  CLST          79          1.0000000000
       238        80  TIP3  OH2           6.6400882452       -0.1431426910      -13.0086673614  CLST          80          1.0000000000
       239        80  TIP3  H1            6.6715907127        0.1709206442      -13.9458069910  CLST          80          1.0000000000
       240        80  TIP3  H2            7.5994351542        0.0686436685      -12.8288471369  CLST          80          1.0000000000
       241        81  TIP3  OH2          -7.3294062965        0.9478901456        6.0222612931  CLST          81          1.0000000000
       242        81  TIP3  H1           -8.2758861308        1.2788669700        5.8743205964  CLST          81          1.0000000000
       243        81  TIP3  H2           -6.9333024710        1.8118202813        5.7459667254  CLST          81          1.0000000000
       244        82  TIP3  OH2           2.3240913596       -1.8770400901       10.6855033029  CLST          82          1.0000000000
       245        82  TIP3  H1            2.6904584253       -1.0218778995       10.3340320603  CLST          82          1.0000000000
       246        82  TIP3  H2            3.1516304150       -2.4019201000       10.6551062231  CLST          82          1.0000000000
       247        83  TIP3  OH2          10.3918785236        8.3780607817       -5.0024983644  CLST          83          1.0000000000
       248        83  TIP3  H1           10.8199354241        7.5346499991       -5.2809337136  CLST          83          1.0000000000
       249        83  TIP3  H2           10.6363242296        8.2801056500       -4.0326085407  CLST          83          1.0000000000
       250        84  TIP3  OH2         -13.4202741345        7.9798465144       -1.1787244641  CLST          84          1.0000000000
       251        84  TIP3  H1          -14.0905510653        7.3659705687       -0.7763073943  CLST          84          1.0000000000
       252        84  TIP3  H2          -12.6427585679        7.3694593653       -0.9384759940  CLST          84          1.0000000000
       253        85  TIP3  OH2           2.4617249690       -1.4230193072        7.5971164609  CLST          85          1.0000000000
       254        85  TIP3  H1            1.9050194897       -2.0415916404        7.0347326891  CLST          85          1.0000000000
       255        85  TIP3  H2            2.9492942254       -2.1561169008        8.0645505410  CLST          85          1.0000000000
       256        86  TIP3  OH2           8.0333035181       -9.2645286401        9.8403596567  CLST          86          1.0000000000
       257        86  TIP3  H1            8.3257691621       -8.5222258098       10.4238335704  CLST          86          1.0000000000
       258        86  TIP3  H2            7.5224935578       -9.8129781907       10.4900126177  CLST          86          1.0000000000
       259        87  TIP3  OH2           0.4711708505       -1.2921438055       12.8701881766  CLST          87          1.0000000000
       260        87  TIP3  H1            1.0809977010       -1.4080932032       12.0980878121  CLST          87          1.0000000000
       261        87  TIP3  H2            0.3173149028       -0.3135608899       12.8522944342  CLST          87          1.0000000000
       262        88  TIP3  OH2          14.4602399445      -11.3306706891        7.9927705534  CLST          88          1.0000000000
       263        88  TIP3  H1           13.6062541969      -11.6423286045        8.3765119290  CLST          88          1.0000000000
       264        88  TIP3  H2           14.9524096144      -12.0943537994        8.3174368364  CLST          88          1.0000000000
       265        89  TIP3  OH2           6.8460300039       11.7133410468       -4.2031589024  CLST          89          1.0000000000
       266        89  TIP3  H1            5.9475596677       11.9896915122       -3.9536410793  CLST          89          1.0000000000
       267        89  TIP3  H2            6.9884367899       10.9332224179       -3.6114454914  CLST          89          1.0000000000
       268        90  TIP3  OH2          14.4416140405       -4.7139836955       -0.3361237617  CLST          90          1.0000000000
       269        90  TIP3  H1           14.1662339961       -5.1658119204       -1.1855280017  CLST          90          1.0000000000
       270        90  TIP3  H2           14.1378725586       -5.4215818844        0.3080146258  CLST          90          1.0000000000
       271        91  TIP3  OH2          11.5276139997       10.8058108415       -5.8356319356  CLST          91          1.0000000000
       272        91  TIP3  H1           11.1989095968        9.9066776442       -5.5469797824  CLST          91          1.0000000000
       273        91  TIP3  H2           10.6535304177       11.2182011195       -5.9459285612  CLST          91          1.0000000000
       274        92  TIP3  OH2          -6.1688429860        3.5897943367        8.7937895624  CLST          92          1.0000000000
       275        92  TIP3  H1           -5.5110114925        3.4022311522        8.0681735534  CLST          92          1.0000000000
       276        92  TIP3  H2           -6.3653227895        2.6359083538        9.0152254923  CLST          92          1.0000000000
       277        93  TIP3  OH2           5.2610695481       -6.5874153994       12.0637533343  CLST          93          1.0000000000
       278        93  TIP3  H1            5.2115371282       -5.7959567435       12.6580420741  CLST          93          1.0000000000
       279        93  TIP3  H2            6.0483969795       -7.0758881390       12.3156674148  CLST          93          1.0000000000
       280        94  TIP3  OH2          -5.9500981793       12.1232814872        4.4388631861  CLST          94          1.0000000000
       281        94  TIP3  H1           -5.9933076465       11.9659016265        3.4499397668  CLST          94          1.0000000000
       282        94  TIP3  H2           -6.2258102563       11.1806207762        4.6495441708  CLST          94          1.0000000000
       283        95  TIP3  OH2           6.4693289015       11.2363438158       -0.4502573258  CLST          95          1.0000000000
       284        95  TIP3  H1            6.7669980697       10.6220481984       -1.1743192745  CLST          95          1.0000000000
       285        95  TIP3  H2            6.2026928022       10.5284699025        0.1882779728  CLST          95          1.0000000000
       286        96  TIP3  OH2          14.5518330849       -0.6869383778       12.1330799230  CLST          96          1.0000000000
       287        96  TIP3  H1           15.1037045819       -1.4865944197       12.2741988838  CLST          96          1.0000000000
       288        96  TIP3  H2           13.8236012673       -1.0161776544       11.5674665321  CLST          96          1.0000000000
       289        97  TIP3  OH2          -8.5107192675        9.4989848256       12.8581473526  CLST          97          1.0000000000
       290        97  TIP3  H1           -8.3098672300        9.1275088473       11.9510199145  CLST          97          1.0000000000
       291        97  TIP3  H2           -7.5820719989        9.2935459083       13.1760965709  CLST          97          1.0000000000
       292        98  TIP3  OH2           1.6464916349        4.2242641956       13.9615520749  CLST          98          1.0000000000
       293        98  TIP3  H1            2.1757832651        4.6041089898       13.2160094192  CLST          98          1.0000000000
       294        98  TIP3  H2            2.1943058834        3.4230746416       14.1710987769  CLST          98          1.0000000000
       295        99  TIP3  OH2         -12.4824226578       12.3503362886       -5.5178910917  CLST          99          1.0000000000
       296        99  TIP3  H1          -13.1546891264       12.5226540339       -6.2054373624  CLST          99          1.0000000000
       297        99  TIP3  H2          -11.9132368441       12.9738391946       -6.0340753900  CLST          99          1.0000000000
       298       100  TIP3  OH2           9.1623728288       -3.7468531505       -6.7666909791  CLST         100          1.0000000000
       299       100  TIP3  H1            8.4814071288       -3.9271621681       -6.0464358626  CLST         100          1.0000000000
       300       100  TIP3  H2            9.1323862813       -4.7306565125       -6.7189681998  CLST         100          1.0000000000
       301       101  TIP3  OH2          11.4421646915        2.0168314834      -10.1501118336  CLST         101          1.0000000000
       302       101  TIP3  H1           11.5180770109        2.7032961955       -9.4790442934  CLST         101          1.0000000000
       303       101  TIP3  H2           11.7045525417        1.3848637341       -9.4904511864  CLST         101          1.0000000000
       304       102  TIP3  OH2          -7.0261157515        2.4741238560      -12.9098920404  CLST         102          1.0000000000
       305       102  TIP3  H1           -7.8159265999        2.1397255843      -13.2862813995  CLST         102          1.0000000000
       306       102  TIP3  H2           -7.5706499587        3.2534520633      -12.7124026833  CLST         102          1.0000000000
       307       103  TIP3  OH2          -4.3175510989      -13.9781908523      -11.3426122233  CLST         103          1.0000000000
       308       103  TIP3  H1           -4.5208761596      -14.7949665568      -11.8575396719  CLST         103          1.0000000000
       309       103  TIP3  H2           -5.3026630345      -13.9280859042      -11.4341142647  CLST         103          1.0000000000
       310       104  TIP3  OH2         -10.9316029795      -11.4786581357        7.6122822599  CLST         104          1.0000000000
       311       104  TIP3  H1           -9.9339083244      -10.8760300704        7.7075761648  CLST         104          1.0000000000
       312       104  TIP3  H2          -10.4796090709      -11.0609998762        8.5166451149  CLST         104          1.0000000000
       313       105  TIP3  OH2           4.5014053901       -0.4306527986       14.2943485733  CLST         105          1.0000000000
       314       105  TIP3  H1            4.0981380746       -1.3193434674       14.3150639932  CLST         105          1.0000000000
       315       105  TIP3  H2            4.9116116325       -0.7798299683       13.4937619361  CLST         105          1.0000000000
       316       106  TIP3  OH2          14.4275366980       -1.2100919553        4.8331289269  CLST         106          1.0000000000
       317       106  TIP3  H1           14.7826747127       -0.4095405963        5.2081896435  CLST         106          1.0000000000
       318       106  TIP3  H2           13.6220972812       -0.6546614975        4.8165412559  CLST         106          1.0000000000
       319       107  TIP3  OH2           1.6841948436      -12.5733755582       -7.1684048976  CLST         107          1.0000000000
       320       107  TIP3  H1            0.8335965536      -12.1919432654       -6.9039727057  CLST         107          1.0000000000
       321       107  TIP3  H2            1.7378066652      -12.6362293246       -6.1803829438  CLST         107          1.0000000000
       322       108  TIP3  OH2          -7.0495970551       -3.8158254507       14.4012776135  CLST         108          1.0000000000
       323       108  TIP3  H1           -6.8253641483       -4.4284641275       13.6706675092  CLST         108          1.0000000000
       324       108  TIP3  H2           -7.9879272336       -3.8307148188       14.0437800418  CLST         108          1.0000000000
       325       109  TIP3  OH2          -4.1363134142       -1.1026378665       11.4426520081  CLST         109          1.0000000000
       326       109  TIP3  H1           -4.2900711850       -2.0390659923       11.7133218550  CLST         109          1.0000000000
       327       109  TIP3  H2           -4.5608369967       -1.2281495488       10.5359346503  CLST         109          1.0000000000
       328       110  TIP3  OH2           1.2735899270       -3.6782448150       -3.2976388667  CLST         110          1.0000000000
       329       110  TIP3  H1            0.9608428783       -4.2559224086       -4.0438584230  CLST         110          1.0000000000
       330       110  TIP3  H2            0.4137931440       -3.7571072577       -2.8507992063  CLST         110          1.0000000000
       331       111  TIP3  OH2          -5.1599746341       -0.7694307744       -6.0953276780  CLST         111          1.0000000000
       332       111  TIP3  H1           -4.8500610423       -0.4781426789       -7.1420779073  CLST         111          1.0000000000
       333       111  TIP3  H2           -4.5093862740       -1.3568036209       -6.8176511094  CLST         111          1.0000000000
       334       112  TIP3  OH2           2.1692873419      -12.2879414394       -4.5311249319  CLST         112          1.0000000000
       335       112  TIP3  H1            1.8467992216      -12.5489935356       -3.6805300803  CLST         112          1.0000000000
       336       112  TIP3  H2            1.9328416670      -11.4182818595       -4.1605665634  CLST         112          1.0000000000
       337       113  TIP3  OH2          14.1112102533        5.7531675463       12.3686841132  CLST         113          1.0000000000
       338       113  TIP3  H1           14.1600412198        6.6651751266       11.9659629819  CLST         113          1.0000000000
       339       113  TIP3  H2           14.7568888274        5.6239656445       11.6518142754  CLST         113          1.0000000000
       340       114  TIP3  OH2          -5.1358109241      -11.3200425183       -4.7112444257  CLST         114          1.0000000000
       341       114  TIP3  H1           -4.7545338032      -10.4931736997       -5.1087285775  CLST         114          1.0000000000
       342       114  TIP3  H2           -4.5611409564      -11.7628934333       -5.3740961543  CLST         114          1.0000000000
       343       115  TIP3  OH2           4.7345639528      -13.8314110463       -9.1281989138  CLST         115          1.0000000000
       344       115  TIP3  H1            4.2118649594      -14.2935558765      -10.0656362178  CLST         115          1.0000000000
       345       115  TIP3  H2            4.3465357994      -13.3599705534       -9.6904209124  CLST         115          1.0000000000
       346       116  TIP3  OH2           8.3781415144        5.7401088982      -14.1746416222  CLST         116          1.0000000000
       347       116  TIP3  H1            9.2105575783        5.2447884192      -14.0659929121  CLST         116          1.0000000000
       348       116  TIP3  H2            7.9347760263        5.0342835930      -13.6838139810  CLST         116          1.0000000000
       349       117  TIP3  OH2          -0.1484960506        1.4938868194       13.1869538211  CLST         117          1.0000000000
       350       117  TIP3  H1           -0.7222940814        1.5961892199       13.9151283941  CLST         117          1.0000000000
       351       117  TIP3  H2            0.2967364372        2.3350370236       13.2330665911  CLST         117          1.0000000000
       352       118  TIP3  OH2          12.6802579654       -9.8197814104       -6.9023101094  CLST         118          1.0000000000
       353       118  TIP3  H1           12.1979648520       -9.5426002513       -6.1137838299  CLST         118          1.0000000000
       354       118  TIP3  H2           13.1555220469       -8.9938959582       -6.7443545761  CLST         118          1.0000000000
       355       119  TIP3  OH2         -12.0814839302       -1.3191085802        4.4412799892  CLST         119          1.0000000000
       356       119  TIP3  H1          -11.2378253621       -1.7709523405        4.5028933661  CLST         119          1.0000000000
       357       119  TIP3  H2          -12.0150280385       -1.0909453524        5.4142359596  CLST         119          1.0000000000
       358       120  TIP3  OH2         -11.7550740094        4.0598651190       -8.0194781474  CLST         120          1.0000000000
       359       120  TIP3  H1          -12.3207181434        4.6795231325       -8.5609346981  CLST         120          1.0000000000
       360       120  TIP3  H2          -12.6516126566        4.0071689442       -7.6072541054  CLST         120          1.0000000000
       361       121  TIP3  OH2          -5.9560702121       -7.1703197699        4.0076237516  CLST         121          1.0000000000
       362       121  TIP3  H1           -5.7660956277       -7.3568810603        3.0401901944  CLST         121          1.0000000000
       363       121  TIP3  H2           -6.8433436221       -6.8959721898        3.7752403746  CLST         121          1.0000000000
       364       122  TIP3  OH2           9.4446661016       -7.1043799032       -6.4654008770  CLST         122          1.0000000000
       365       122  TIP3  H1            9.1458577503       -7.9459621799       -6.8107928449  CLST         122          1.0000000000
       366       122  TIP3  H2            9.9852682295       -7.1768076519       -7.2692415623  CLST         122          1.0000000000
       367       123  TIP3  OH2          -7.0307684275      -10.4345279987        0.4126038772  CLST         123          1.0000000000
       368       123  TIP3  H1           -7.2114339763      -10.5371888933       -0.4977168108  CLST         123          1.0000000000
       369       123  TIP3  H2           -7.9195862086      -10.1324269537        0.5716870679  CLST         123          1.0000000000
       370       124  TIP3  OH2         -12.9982503659       -2.2062443807       -9.8216933334  CLST         124          1.0000000000
       371       124  TIP3  H1          -13.9520582473       -2.2223040687       -9.7129514809  CLST         124          1.0000000000
       372       124  TIP3  H2          -13.0431041298       -2.9751395985      -10.4096459448  CLST         124          1.0000000000
       373       125  TIP3  OH2           6.6932483680        2.7723581726       -5.3401309431  CLST         125          1.0000000000
       374       125  TIP3  H1            6.3010608235        2.0800341022       -4.7414665300  CLST         125          1.0000000000
       375       125  TIP3  H2            6.0311870552        2.5865923207       -6.0316158999  CLST         125          1.0000000000
       376       126  TIP3  OH2          12.4177600709      -10.0230673599        5.4065898232  CLST         126          1.0000000000
       377       126  TIP3  H1           12.3824896103      -10.9059488192        5.0176111732  CLST         126          1.0000000000
       378       126  TIP3  H2           11.8171754321      -10.3359510949        6.1111343406  CLST         126          1.0000000000
       379       127  TIP3  OH2         -10.3627526700       -5.8518132236       -5.0958923180  CLST         127          1.0000000000
       380       127  TIP3  H1          -10.3410603377       -5.3379408007       -4.2742435587  CLST         127          1.0000000000
       381       127  TIP3  H2           -9.5842623176       -6.2688858426       -4.7188271126  CLST         127          1.0000000000
       382       128  TIP3  OH2          -6.2167045608       -3.4669644378        7.1129728935  CLST         128          1.0000000000
       383       128  TIP3  H1           -5.8139087480       -4.3313545088        7.1654002815  CLST         128          1.0000000000
       384       128  TIP3  H2           -6.0780423740       -3.2475907933        6.2071651614  CLST         128          1.0000000000
       385       129  TIP3  OH2         -12.0241916098      -14.1515126489      -10.6203982752  CLST         129          1.0000000000
       386       129  TIP3  H1          -11.3248448799      -14.1754315025       -9.9425491921  CLST         129          1.0000000000
       387       129  TIP3  H2          -12.0493670417      -15.0932723887      -10.4850054895  CLST         129          1.0000000000
       388       130  TIP3  OH2           8.9782716146       -0.9793338912       13.9829187214  CLST         130          1.0000000000
       389       130  TIP3  H1            8.6585113257       -1.6771563409       14.5313891804  CLST         130          1.0000000000
       390       130  TIP3  H2            8.0953791851       -0.6262091575       14.1853419439  CLST         130          1.0000000000
       391       131  TIP3  OH2          -9.8588968087      -11.2934292918       -1.3385744244  CLST         131          1.0000000000
       392       131  TIP3  H1           -9.4422510569      -11.5611081623       -0.5310937333  CLST         131          1.0000000000
       393       131  TIP3  H2          -10.5493431909      -11.9195747394       -1.0966675732  CLST         131          1.0000000000
       394       132  TIP3  OH2           9.2212333450       -2.4349846146        9.7815312638  CLST         132          1.0000000000
       395       132  TIP3  H1            9.9299292294       -2.1202153360        9.1873869301  CLST         132          1.0000000000
       396       132  TIP3  H2            9.2867779586       -1.5367053511       10.1241141141  CLST         132          1.0000000000
       397       133  TIP3  OH2          -9.6851384265       -7.6765507558        7.6789315097  CLST         133          1.0000000000
       398       133  TIP3  H1           -8.8106954868       -8.0703233270        7.8426458458  CLST         133          1.0000000000
       399       133  TIP3  H2           -9.2154548644       -7.3437401848        6.8819232787  CLST         133          1.0000000000
       400       134  TIP3  OH2          -8.8601088146      -12.3150119610       14.4170498335  CLST         134          1.0000000000
       401       134  TIP3  H1           -9.5169945838      -12.2854201456       13.7541609474  CLST         134          1.0000000000
       402       134  TIP3  H2           -8.8330663795      -11.3714812390       14.6797631799  CLST         134          1.0000000000
       403       135  TIP3  OH2          -9.1281341477       10.8710259137        3.4891685812  CLST         135          1.0000000000
       404       135  TIP3  H1           -8.9717826770       10.3044743968        2.6814459113  CLST         135          1.0000000000
       405       135  TIP3  H2           -8.4056075539       10.3888363461        3.9061421825  CLST         135          1.0000000000
       406       136  TIP3  OH2          -5.1716068512       13.3905601541      -11.3579685509  CLST         136          1.0000000000
       407       136  TIP3  H1           -5.3305153025       13.3966383308      -10.4123861137  CLST         136          1.0000000000
       408       136  TIP3  H2           -5.9174300557       13.9767881815      -11.3362672429  CLST         136          1.0000000000
       409       137  TIP3  OH2          -5.6922883423      -10.9687076233        7.6673465549  CLST         137          1.0000000000
       410       137  TIP3  H1           -4.9669752239      -11.0263055072        6.9580141729  CLST         137          1.0000000000
       411       137  TIP3  H2           -5.1532493109      -11.7755665912        7.9205733428  CLST         137          1.0000000000
       412       138  TIP3  OH2           9.9085348403        8.4383030609       10.9954470759  CLST         138          1.0000000000
       413       138  TIP3  H1            9.9930362311        7.8684185886       11.7881642031  CLST         138          1.0000000000
       414       138  TIP3  H2           10.5189885315        8.9301752480       11.5423996691  CLST         138          1.0000000000
       415       139  TIP3  OH2           2.1135011968        9.8276034152       12.3936684439  CLST         139          1.0000000000
       416       139  TIP3  H1            3.0901479948        9.8311025278       12.3334308573  CLST         139          1.0000000000
       417       139  TIP3  H2            2.3223313580        9.0418507579       12.9377472087  CLST         139          1.0000000000
       418       140  TIP3  OH2          -3.2215684403       -1.2900500586       -7.9793827322  CLST         140          1.0000000000
       419       140  TIP3  H1           -2.4622892256       -0.6979126099       -7.7260019741  CLST         140          1.0000000000
       420       140  TIP3  H2           -2.4860343334       -1.9203429887       -7.8725164684  CLST         140          1.0000000000
       421       141  TIP3  OH2         -13.0719644924        5.4612532812       12.6120625475  CLST         141          1.0000000000
       422       141  TIP3  H1          -12.5863120832        6.2632444959       12.3362336875  CLST         141          1.0000000000
       423       141  TIP3  H2          -12.6355890213        5.6874938826       13.4129744404  CLST         141          1.0000000000
       424       142  TIP3  OH2          14.9934303115       -6.6197450031        5.3704137762  CLST         142          1.0000000000
       425       142  TIP3  H1           14.3095172295       -6.9239749344        4.7062466424  CLST         142          1.0000000000
       426       142  TIP3  H2           14.9181825019       -7.5074419386        5.8001215075  CLST         142          1.0000000000
       427       143  TIP3  OH2           6.4887616747       -6.9314840881        1.8557461852  CLST         143          1.0000000000
       428       143  TIP3  H1            6.8454053364       -6.9164499291        0.9473281576  CLST         143          1.0000000000
       429       143  TIP3  H2            5.6677990542       -6.8775895997        1.3545276317  CLST         143          1.0000000000
       430       144  TIP3  OH2          -1.4184027395      -14.0092373408        7.8131977162  CLST         144          1.0000000000
       431       144  TIP3  H1           -1.2189227092      -14.3402044998        6.9158714367  CLST         144          1.0000000000
       432       144  TIP3  H2           -0.9715455477      -14.8435912013        8.0776570669  CLST         144          1.0000000000
       433       145  TIP3  OH2           2.0526098180        7.4454773920       13.6527551659  CLST         145          1.0000000000
       434       145  TIP3  H1            1.1220706576        7.2139545227       13.8343199973  CLST         145          1.0000000000
       435       145  TIP3  H2            1.9396728583        6.9424470919       12.8477294184  CLST         145          1.0000000000
       436       146  TIP3  OH2          -6.0471395988       10.4247521476       -8.5007343288  CLST         146          1.0000000000
       437       146  TIP3  H1           -5.7173450105       11.3429241628       -8.5666392944  CLST         146          1.0000000000
       438       146  TIP3  H2           -6.7968102893       10.8659937507       -8.0902058167  CLST         146          1.0000000000
       439       147  TIP3  OH2           1.0643430884        2.8436962068       -4.4255751136  CLST         147          1.0000000000
       440       147  TIP3  H1            0.1909813024        3.0324883061       -3.9859730309  CLST         147          1.0000000000
       441       147  TIP3  H2            0.4300666697        3.0117753942       -5.1728173104  CLST         147          1.0000000000
       442       148  TIP3  OH2           7.3181784036        6.5639977343       -3.6132831699  CLST         148          1.0000000000
       443       148  TIP3  H1            7.6942501907        5.8403322481       -3.4488164251  CLST         148          1.0000000000
       444       148  TIP3  H2            7.0243538373        5.8270447083       -2.6893567009  CLST         148          1.0000000000
       445       149  TIP3  OH2          -4.3152525170      -13.2397905517       11.1844329005  CLST         149          1.0000000000
       446       149  TIP3  H1           -4.1922205546      -12.3894726723       11.6377444589  CLST         149          1.0000000000
       447       149  TIP3  H2           -3.7623774200      -13.5259649279       11.9010303679  CLST         149          1.0000000000
       448       150  TIP3  OH2          10.7707513515        1.0928561158       -2.4212631093  CLST         150          1.0000000000
       449       150  TIP3  H1           10.3813204878        1.1077422491       -1.4902917213  CLST         150          1.0000000000
       450       150  TIP3  H2            9.8837296856        0.7858276996       -2.7020043729  CLST         150          1.0000000000
       451       151  TIP3  OH2           3.7564738136      -12.1053952922        4.1989102845  CLST         151          1.0000000000
       452       151  TIP3  H1            4.1160065462      -12.9981882570        3.6120649001  CLST         151          1.0000000000
       453       151  TIP3  H2            3.5530314508      -12.3711033705        3.1538202286  CLST         151          1.0000000000
       454       152  TIP3  OH2           0.4952254070        6.0305335936       -5.9859483509  CLST         152          1.0000000000
       455       152  TIP3  H1            0.6999496999        6.9323813261       -6.2723076868  CLST         152          1.0000000000
       456       152  TIP3  H2            1.3560477615        5.7926571328       -6.3533664834  CLST         152          1.0000000000
       457       153  TIP3  OH2          -1.3202118662       10.1187099081       -7.4962855663  CLST         153          1.0000000000
       458       153  TIP3  H1           -1.6419904722       10.9352547322       -7.0959608895  CLST         153          1.0000000000
       459       153  TIP3  H2           -0.6471122634       10.6863019529       -7.8734271854  CLST         153          1.0000000000
       460       154  TIP3  OH2         -11.9325539717       -7.9157123715       -0.4695099815  CLST         154          1.0000000000
       461       154  TIP3  H1          -12.4756865982       -7.1304277590       -0.1292993903  CLST         154          1.0000000000
       462       154  TIP3  H2          -11.2439908405       -7.2280777855       -0.6467733751  CLST         154          1.0000000000
       463       155  TIP3  OH2          10.3738355318       -4.9490930447       14.3291326373  CLST         155          1.0000000000
       464       155  TIP3  H1           11.0468840663       -4.2190897164       14.2901295995  CLST         155          1.0000000000
       465       155  TIP3  H2           10.5261900445       -4.8616719535       13.3575896959  CLST         155          1.0000000000
       466       156  TIP3  OH2          13.9303465695        2.0160470675        0.1031666122  CLST         156          1.0000000000
       467       156  TIP3  H1           14.5531555809        1.2357858437        0.2623577138  CLST         156          1.0000000000
       468       156  TIP3  H2           13.9440024807        1.6325100113       -0.8192246820  CLST         156          1.0000000000
       469       157  TIP3  OH2           0.1382070741       -5.0791277589       -8.5156753468  CLST         157          1.0000000000
       470       157  TIP3  H1            0.8155631498       -4.7567582664       -9.1079601986  CLST         157          1.0000000000
       471       157  TIP3  H2            0.2273834434       -5.9451586642       -8.9070873009  CLST         157          1.0000000000
       472       158  TIP3  OH2          -6.8597696265       -1.5009135365       -2.3197119970  CLST         158          1.0000000000
       473       158  TIP3  H1           -7.6040932253       -1.7718819245       -2.8642573851  CLST         158          1.0000000000
       474       158  TIP3  H2           -6.4472442634       -2.3450465915       -2.5424085177  CLST         158          1.0000000000
       475       159  TIP3  OH2           8.1242933433      -11.4103088178        8.1556650233  CLST         159          1.0000000000
       476       159  TIP3  H1            7.2440666713      -11.4570011222        7.8345365905  CLST         159          1.0000000000
       477       159  TIP3  H2            8.1518217549      -10.5368086057        8.5542818935  CLST         159          1.0000000000
       478       160  TIP3  OH2           4.6041157046       -9.4057752045        2.0579507518  CLST         160          1.0000000000
       479       160  TIP3  H1            4.2591661004       -9.0141678156        2.8586442248  CLST         160          1.0000000000
       480       160  TIP3  H2            5.0292890696       -9.9938758933        2.6938028498  CLST         160          1.0000000000
       481       161  TIP3  OH2           3.9887180995       -6.8674218845       -3.0463654595  CLST         161          1.0000000000
       482       161  TIP3  H1            4.6523306165       -7.2902023938       -2.5277029907  CLST         161          1.0000000000
       483       161  TIP3  H2            3.3024283599       -7.1173906409       -2.4079648491  CLST         161          1.0000000000
       484       162  TIP3  OH2           6.7013567162      -10.5411206917        3.1166079191  CLST         162          1.0000000000
       485       162  TIP3  H1            7.5411191509      -10.9618276572        3.2465974167  CLST         162          1.0000000000
       486       162  TIP3  H2            7.0678916901       -9.7556956906        3.4573161103  CLST         162          1.0000000000
       487       163  TIP3  OH2         -13.4276734559        0.1644064217        2.7472596660  CLST         163          1.0000000000
       488       163  TIP3  H1          -13.6655095461        0.3034578216        3.7234021378  CLST         163          1.0000000000
       489       163  TIP3  H2          -12.6468280179       -0.2085967912        3.2280019071  CLST         163          1.0000000000
       490       164  TIP3  OH2           8.4844003260        2.9438513214       10.0870130883  CLST         164          1.0000000000
       491       164  TIP3  H1            8.5288532230        3.5755463200        9.5242247355  CLST         164          1.0000000000
       492       164  TIP3  H2            9.4797419756        3.2415650584        9.5770650042  CLST         164          1.0000000000
       493       165  TIP3  OH2          14.1919338212        3.7435981551        5.0763272509  CLST         165          1.0000000000
       494       165  TIP3  H1           13.2556614139        4.1995669167        4.6143583484  CLST         165          1.0000000000
       495       165  TIP3  H2           13.7865660956        3.4735561241        4.3910315370  CLST         165          1.0000000000
       496       166  TIP3  OH2          -6.2033214689      -12.7732782782        5.0832489510  CLST         166          1.0000000000
       497       166  TIP3  H1           -6.1676981691      -12.1368781993        4.3263734485  CLST         166          1.0000000000
       498       166  TIP3  H2           -6.9211928660      -12.1704346973        5.3257592060  CLST         166          1.0000000000
       499       167  TIP3  OH2           0.0793781523       -7.6738576885       -9.4360387749  CLST         167          1.0000000000
       500       167  TIP3  H1            0.0749517342       -8.0789946935      -10.2876917520  CLST         167          1.0000000000
       501       167  TIP3  H2            1.0307945455       -7.9691674649       -9.2604493214  CLST         167          1.0000000000
       502       168  TIP3  OH2          -2.7647120419       -2.4071601006        1.7746681861  CLST         168          1.0000000000
       503       168  TIP3  H1           -2.7212019680       -3.1082583980        2.3997056715  CLST         168          1.0000000000
       504       168  TIP3  H2           -2.9253473235       -3.1671528581        1.1737887222  CLST         168          1.0000000000
       505       169  TIP3  OH2           0.8372717542       12.2390097966       12.5882604236  CLST         169          1.0000000000
       506       169  TIP3  H1            1.5346807785       11.5084867019       12.6373781297  CLST         169          1.0000000000
       507       169  TIP3  H2            1.5857582041       12.7330373631       12.9217741372  CLST         169          1.0000000000
       508       170  TIP3  OH2         -14.6035626254      -12.2887209587        4.9174398008  CLST         170          1.0000000000
       509       170  TIP3  H1          -13.9112029843      -12.7756926068        5.4262771758  CLST         170          1.0000000000
       510       170  TIP3  H2          -14.8276445416      -11.9192087516        5.7610843849  CLST         170          1.0000000000
       511       171  TIP3  OH2          -9.9326178054        2.6044152738        2.6706718571  CLST         171          1.0000000000
       512       171  TIP3  H1           -8.9739240866        2.7563637367        2.5874673183  CLST         171          1.0000000000
       513       171  TIP3  H2           -9.7035047150        2.1745271095        3.4890104614  CLST         171          1.0000000000
       514       172  TIP3  OH2          13.9066609439       -7.1085200033      -11.7985147158  CLST         172          1.0000000000
       515       172  TIP3  H1           13.8729590532       -7.2091962338      -10.8081154859  CLST         172          1.0000000000
       516       172  TIP3  H2           13.2614527680       -7.8640193304      -11.6868597741  CLST         172          1.0000000000
       517       173  TIP3  OH2         -12.6373062390       -5.7023370434        3.0412120184  CLST         173          1.0000000000
       518       173  TIP3  H1          -13.1615781921       -4.9131364783        3.2404076697  CLST         173          1.0000000000
       519       173  TIP3  H2          -12.9866208319       -5.7433833231        2.1192635684  CLST         173          1.0000000000
       520       174  TIP3  OH2           5.6057471728      -14.0826233212        5.8271021945  CLST         174          1.0000000000
       521       174  TIP3  H1            5.2569799717      -14.6271156311        6.5630816133  CLST         174          1.0000000000
       522       174  TIP3  H2            4.7678046496      -13.6392403948        6.0022543019  CLST         174          1.0000000000
       523       175  TIP3  OH2           4.3544934897       -3.6489127155        7.9139291895  CLST         175          1.0000000000
       524       175  TIP3  H1            3.9526233897       -4.2787981768        7.2828913063  CLST         175          1.0000000000
       525       175  TIP3  H2            5.2123950001       -3.7147360902        7.4752681508  CLST         175          1.0000000000
       526       176  TIP3  OH2           8.3886628543        2.6263447032      -10.8474133984  CLST         176          1.0000000000
       527       176  TIP3  H1            9.3521237196        2.6065876112      -10.6644753718  CLST         176          1.0000000000
       528       176  TIP3  H2            8.5908907130        1.8364372918      -11.3842911567  CLST         176          1.0000000000
       529       177  TIP3  OH2          -4.1103926912       11.0020371464        7.3878065465  CLST         177          1.0000000000
       530       177  TIP3  H1           -3.2021829829       11.0681507681        6.9480024332  CLST         177          1.0000000000
       531       177  TIP3  H2           -4.1113026809       10.1076176253        6.9621966107  CLST         177          1.0000000000
       532       178  TIP3  OH2           4.1198159313       -6.3894244060        0.7086787788  CLST         178          1.0000000000
       533       178  TIP3  H1            3.5398868073       -5.7524599580        0.2557649127  CLST         178          1.0000000000
       534       178  TIP3  H2            3.2678266135       -6.7020856075        1.0176417183  CLST         178          1.0000000000
       535       179  TIP3  OH2           2.7210826742      -10.1326862512        0.0328404340  CLST         179          1.0000000000
       536       179  TIP3  H1            2.0142621444       -9.5091179216        0.3707447672  CLST         179          1.0000000000
       537       179  TIP3  H2            3.3248803619       -9.7346690989        0.6969608229  CLST         179          1.0000000000
       538       180  TIP3  OH2          -1.7453670418       -3.5464098080        8.2409694018  CLST         180          1.0000000000
       539       180  TIP3  H1           -1.8235585707       -2.7466656684        8.7991127366  CLST         180          1.0000000000
       540       180  TIP3  H2           -2.4635838022       -3.2738647150        7.6372643947  CLST         180          1.0000000000
       541       181  TIP3  OH2         -12.2993389030       -0.0342364883      -11.2654512023  CLST         181          1.0000000000
       542       181  TIP3  H1          -11.3687782281       -0.2025021224      -10.8806952893  CLST         181          1.0000000000
       543       181  TIP3  H2          -12.4237969927       -0.7813346382      -10.6588859386  CLST         181          1.0000000000
       544       182  TIP3  OH2         -10.3011607720      -12.6672280425        5.3722666994  CLST         182          1.0000000000
       545       182  TIP3  H1          -10.7925966498      -12.2571871854        6.0798992710  CLST         182          1.0000000000
       546       182  TIP3  H2           -9.5781560718      -12.3955194082        5.9126504159  CLST         182          1.0000000000
       547       183  TIP3  OH2          11.8458829696        5.4843278250        4.2636378926  CLST         183          1.0000000000
       548       183  TIP3  H1           11.6025292217        5.4184967587        3.3121422704  CLST         183          1.0000000000
       549       183  TIP3  H2           11.4379797548        6.3464244520        4.1138616079  CLST         183          1.0000000000
       550       184  TIP3  OH2          -0.2662908995       -0.5400098694        8.0081552443  CLST         184          1.0000000000
       551       184  TIP3  H1            0.6710494438       -0.7943346697        7.9437286746  CLST         184          1.0000000000
       552       184  TIP3  H2           -0.6689053742       -0.9750134366        8.7635401739  CLST         184          1.0000000000
       553       185  TIP3  OH2           9.3130230390       13.0656242225       -3.7855383665  CLST         185          1.0000000000
       554       185  TIP3  H1            8.4573901494       12.5890078867       -3.9641468902  CLST         185          1.0000000000
       555       185  TIP3  H2            8.9181535457       13.7677104606       -4.3402776865  CLST         185          1.0000000000
       556       186  TIP3  OH2          12.0534187157       -0.1081104940        4.1929232074  CLST         186          1.0000000000
       557       186  TIP3  H1           12.0882714114        0.0174559387        3.2434145788  CLST         186          1.0000000000
       558       186  TIP3  H2           11.3083163607        0.5367786540        4.2025852753  CLST         186          1.0000000000
       559       187  TIP3  OH2         -10.0312128072       -7.6296990629      -11.5542766229  CLST         187          1.0000000000
       560       187  TIP3  H1          -10.4184551819       -7.5155324758      -10.6525616581  CLST         187          1.0000000000
       561       187  TIP3  H2           -9.9344931564       -6.6712355664      -11.4236033223  CLST         187          1.0000000000
       562       188  TIP3  OH2         -15.1037045819       -0.3069006393        0.8135412531  CLST         188          1.0000000000
       563       188  TIP3  H1          -14.9282182022       -0.4187498388        1.7266058364  CLST         188          1.0000000000
       564       188  TIP3  H2          -15.0339203803       -0.9774220014        0.1019067807  CLST         188          1.0000000000
       565       189  TIP3  OH2          14.0189367640        0.5812074611       14.7924366935  CLST         189          1.0000000000
       566       189  TIP3  H1           14.8993689845        0.7452540410       15.0915770486  CLST         189          1.0000000000
       567       189  TIP3  H2           14.3341759671        0.2145650206       13.9518284084  CLST         189          1.0000000000
       568       190  TIP3  OH2           0.4523448988       -7.9990763328        3.8961425900  CLST         190          1.0000000000
       569       190  TIP3  H1            0.8641203381       -8.1661231163        4.7639861412  CLST         190          1.0000000000
       570       190  TIP3  H2            0.9928650338       -7.1563365601        3.8224737653  CLST         190          1.0000000000
       571       191  TIP3  OH2          -0.7669455321       14.1777586305       -4.0671373458  CLST         191          1.0000000000
       572       191  TIP3  H1           -1.6677939004       13.8562334728       -4.0104525160  CLST         191          1.0000000000
       573       191  TIP3  H2           -1.2137525193       15.0211313585       -4.0442057678  CLST         191          1.0000000000
       574       192  TIP3  OH2          -5.1246343452       -0.2119464812       -0.8657433419  CLST         192          1.0000000000
       575       192  TIP3  H1           -5.9286245391       -0.3741594578       -1.3582756421  CLST         192          1.0000000000
       576       192  TIP3  H2           -5.7323312616        0.3990441283       -0.3260898170  CLST         192          1.0000000000
       577       193  TIP3  OH2         -12.9883816953      -13.0480098404        6.9302505209  CLST         193          1.0000000000
       578       193  TIP3  H1          -12.1060359597      -13.4161657055        6.9060619642  CLST         193          1.0000000000
       579       193  TIP3  H2          -12.5234064660      -12.3157338016        7.3870909239  CLST         193          1.0000000000
       580       194  TIP3  OH2          12.7075527492       12.4560357904      -11.2729497906  CLST         194          1.0000000000
       581       194  TIP3  H1           12.8029792610       13.3291584623      -11.6509454438  CLST         194          1.0000000000
       582       194  TIP3  H2           13.5905278375       12.2711979478      -11.4670188810  CLST         194          1.0000000000
       583       195  TIP3  OH2           4.8629051424        2.5548443782        3.6134272698  CLST         195          1.0000000000
       584       195  TIP3  H1            4.1729598009        2.9571579802        3.1259425142  CLST         195          1.0000000000
       585       195  TIP3  H2            5.0670073354        1.7880953730        3.0709396724  CLST         195          1.0000000000
       586       196  TIP3  OH2           7.3308744955        6.3893553445       11.7169525507  CLST         196          1.0000000000
       587       196  TIP3  H1            8.1337209138        6.0537157986       12.0441345073  CLST         196          1.0000000000
       588       196  TIP3  H2            7.1374692034        6.9347989289       12.4977091961  CLST         196          1.0000000000
       589       197  TIP3  OH2          -4.4617387906       -9.3303272037        3.8460442848  CLST         197          1.0000000000
       590       197  TIP3  H1           -4.7309589893       -8.9581918143        2.9551778567  CLST         197          1.0000000000
       591       197  TIP3  H2           -3.8222612803       -8.5896097923        3.9036976002  CLST         197          1.0000000000
       592       198  TIP3  OH2          -4.4686690620       -8.9854904090       -6.0880330972  CLST         198          1.0000000000
       593       198  TIP3  H1           -3.9237210956       -8.7596379551       -6.8740792664  CLST         198          1.0000000000
       594       198  TIP3  H2           -5.1826557373       -8.8771205441       -6.7412607585  CLST         198          1.0000000000
       595       199  TIP3  OH2          11.2669105800        7.6762344663       -2.2202636452  CLST         199          1.0000000000
       596       199  TIP3  H1           11.1641986985        8.5174093272       -1.7320507072  CLST         199          1.0000000000
       597       199  TIP3  H2           12.1179525240        7.6606496089       -1.7040597546  CLST         199          1.0000000000
       598       200  TIP3  OH2          -4.8095259204       -7.5573119161       -1.2017702152  CLST         200          1.0000000000
       599       200  TIP3  H1           -3.9217675580       -7.7546819411       -1.4733661260  CLST         200          1.0000000000
       600       200  TIP3  H2           -4.7547054731       -6.6981023317       -1.6362085508  CLST         200          1.0000000000
       601       201  TIP3  OH2          13.8219526028      -10.5233755118       11.7768304011  CLST         201          1.0000000000
       602       201  TIP3  H1           14.4524491332       -9.8785550337       11.5577463631  CLST         201          1.0000000000
       603       201  TIP3  H2           13.0843519765      -10.1136367109       11.2612649782  CLST         201          1.0000000000
       604       202  TIP3  OH2          -2.8310316595       -9.6719672508        7.8423562648  CLST         202          1.0000000000
       605       202  TIP3  H1           -2.2255805716      -10.0420968599        8.4771895417  CLST         202          1.0000000000
       606       202  TIP3  H2           -2.5153098270      -10.4049969417        7.2808004312  CLST         202          1.0000000000
       607       203  TIP3  OH2          10.4345122719        4.2468492656       13.8185220655  CLST         203          1.0000000000
       608       203  TIP3  H1            9.6439370108        3.9860639103       13.6259886595  CLST         203          1.0000000000
       609       203  TIP3  H2           10.2145035745        3.1675179845       13.9861232045  CLST         203          1.0000000000
       610       204  TIP3  OH2          -5.2137960432        6.1171803265        5.9278987049  CLST         204          1.0000000000
       611       204  TIP3  H1           -6.0601565833        6.5858345654        6.0138454123  CLST         204          1.0000000000
       612       204  TIP3  H2           -4.8719222704        6.8117880028        6.5503469834  CLST         204          1.0000000000
       613       205  TIP3  OH2          -2.2911291181        1.4460143721       -4.8442576458  CLST         205          1.0000000000
       614       205  TIP3  H1           -1.6311041583        1.9226759126       -5.3276051844  CLST         205          1.0000000000
       615       205  TIP3  H2           -2.8917318271        2.0184658631       -5.3596796231  CLST         205          1.0000000000
       616       206  TIP3  OH2          -8.4849715875       -1.2146584508        4.6212265391  CLST         206          1.0000000000
       617       206  TIP3  H1           -8.7217096819       -1.4970749421        5.5321055690  CLST         206          1.0000000000
       618       206  TIP3  H2           -7.8813874475       -0.5789434842        5.1136282341  CLST         206          1.0000000000
       619       207  TIP3  OH2          -7.6507834956        9.5387035368        0.4960044835  CLST         207          1.0000000000
       620       207  TIP3  H1           -7.1361677382        8.6909482358        0.4441443253  CLST         207          1.0000000000
       621       207  TIP3  H2           -8.2482236598        8.9208371689        1.0190505436  CLST         207          1.0000000000
       622       208  TIP3  OH2           9.4513531493       14.1992338951      -11.6707489965  CLST         208          1.0000000000
       623       208  TIP3  H1            9.4957910041       13.6487864739      -12.4285438631  CLST         208          1.0000000000
       624       208  TIP3  H2           10.2459270299       14.6914068632      -11.8444468699  CLST         208          1.0000000000
       625       209  TIP3  OH2          -6.5893378344       -6.4062596103      -14.5235878456  CLST         209          1.0000000000
       626       209  TIP3  H1           -7.5389989552       -6.3815631209      -14.6852166021  CLST         209          1.0000000000
       627       209  TIP3  H2           -6.7937023220       -6.9679558391      -13.7848004460  CLST         209          1.0000000000
       628       210  TIP3  OH2          -2.1797295161        1.2763008690        8.2368112067  CLST         210          1.0000000000
       629       210  TIP3  H1           -1.6801326491        0.4928780730        8.3489613430  CLST         210          1.0000000000
       630       210  TIP3  H2           -2.0771145594        1.4560500639        9.2017239037  CLST         210          1.0000000000
       631       211  TIP3  OH2          -0.7243104802        0.0650693260       -3.0745306350  CLST         211          1.0000000000
       632       211  TIP3  H1           -1.4737959447       -0.5066095844       -2.8335298564  CLST         211          1.0000000000
       633       211  TIP3  H2           -1.2860786542        0.6785115734       -3.5381305840  CLST         211          1.0000000000
       634       212  TIP3  OH2           6.9654643091        3.0577487964        5.6002938011  CLST         212          1.0000000000
       635       212  TIP3  H1            6.2916367668        2.0852247062        5.7027474309  CLST         212          1.0000000000
       636       212  TIP3  H2            6.1991283718        2.9173449385        5.0483106583  CLST         212          1.0000000000
       637       213  TIP3  OH2           2.0799848772       -5.0248872373       -0.3598169880  CLST         213          1.0000000000
       638       213  TIP3  H1            1.9883451894       -4.2293026787       -0.9391094009  CLST         213          1.0000000000
       639       213  TIP3  H2            2.0684449946       -5.5225528777       -1.2113572641  CLST         213          1.0000000000
       640       214  TIP3  OH2           2.2223667064       -7.1270822473      -11.6782606498  CLST         214          1.0000000000
       641       214  TIP3  H1            2.6559100030       -7.9865389345      -11.4821885433  CLST         214          1.0000000000
       642       214  TIP3  H2            2.9121869697       -6.7588889075      -11.0845824307  CLST         214          1.0000000000
       643       215  TIP3  OH2         -12.5591343965        2.8126501471      -10.9406419643  CLST         215          1.0000000000
       644       215  TIP3  H1          -12.3293692511        1.9472583500      -10.5638430357  CLST         215          1.0000000000
       645       215  TIP3  H2          -13.2031481406        2.2104119492      -11.3499918954  CLST         215          1.0000000000
       646       216  TIP3  OH2          11.6557944352       -6.4946098476       -4.5054740400  CLST         216          1.0000000000
       647       216  TIP3  H1           11.3353593310       -7.4198930144       -4.4541053214  CLST         216          1.0000000000
       648       216  TIP3  H2           10.8361420339       -6.4452733994       -5.0617471103  CLST         216          1.0000000000
       649       217  TIP3  OH2          -6.5911608632        9.3997033579        4.1857863103  CLST         217          1.0000000000
       650       217  TIP3  H1           -5.6556967068        9.0676997099        4.1554277009  CLST         217          1.0000000000
       651       217  TIP3  H2           -6.9071004654        8.5421419988        3.8462449425  CLST         217          1.0000000000
       652       218  TIP3  OH2           5.8457419521       -7.4729193568       -8.4622986344  CLST         218          1.0000000000
       653       218  TIP3  H1            6.0202930701       -8.4525703230       -8.2867370370  CLST         218          1.0000000000
       654       218  TIP3  H2            5.7039954696       -7.4791748648       -7.4867782336  CLST         218          1.0000000000
       655       219  TIP3  OH2           2.6852875523      -13.4957434897        7.4903242043  CLST         219          1.0000000000
       656       219  TIP3  H1            2.3608127949      -12.8344995672        8.2154461525  CLST         219          1.0000000000
       657       219  TIP3  H2            3.3630624707      -13.5859517355        8.1722155795  CLST         219          1.0000000000
       658       220  TIP3  OH2           2.2986008828        1.4940802876      -11.1658650142  CLST         220          1.0000000000
       659       220  TIP3  H1            2.6953847310        1.7566352203      -12.0430376403  CLST         220          1.0000000000
       660       220  TIP3  H2            3.2242787440        1.1113288508      -11.1311204497  CLST         220          1.0000000000
       661       221  TIP3  OH2           1.6967319241       -0.4410540688        3.0726296186  CLST         221          1.0000000000
       662       221  TIP3  H1            0.8733298487       -0.1638665894        2.6301024529  CLST         221          1.0000000000
       663       221  TIP3  H2            1.4689027523        0.2041849551        3.7390588849  CLST         221          1.0000000000
       664       222  TIP3  OH2          12.0954323480        0.6301770952        1.5930026303  CLST         222          1.0000000000
       665       222  TIP3  H1           12.4418397445        0.4065997280        0.7157264724  CLST         222          1.0000000000
       666       222  TIP3  H2           11.2264835893        0.7667771189        1.0887882275  CLST         222          1.0000000000
       667       223  TIP3  OH2           1.3053356028      -10.7175102970      -13.0311659445  CLST         223          1.0000000000
       668       223  TIP3  H1            1.0408464790      -10.7351155830      -12.0918318244  CLST         223          1.0000000000
       669       223  TIP3  H2            0.7217267488       -9.9620863508      -12.9782099453  CLST         223          1.0000000000
       670       224  TIP3  OH2          -9.2867098859        6.8682284903      -12.6546011816  CLST         224          1.0000000000
       671       224  TIP3  H1          -10.0081431863        6.2185790991      -12.7299841958  CLST         224          1.0000000000
       672       224  TIP3  H2           -8.7946858538        5.9721528771      -12.7027093949  CLST         224          1.0000000000
       673       225  TIP3  OH2          13.1624774812        3.7714889004       -7.5628244162  CLST         225          1.0000000000
       674       225  TIP3  H1           12.1879078301        3.8620513305       -7.6117699033  CLST         225          1.0000000000
       675       225  TIP3  H2           12.9761892137        3.0510267281       -6.9114699970  CLST         225          1.0000000000
       676       226  TIP3  OH2           5.1194517833        5.0839659201       10.7205803381  CLST         226          1.0000000000
       677       226  TIP3  H1            5.9139113392        5.6344832736       10.8765197805  CLST         226          1.0000000000
       678       226  TIP3  H2            5.4210991855        4.7042403767       11.6010561912  CLST         226          1.0000000000
       679       227  TIP3  OH2          -6.2230559356        1.0230398121        9.8263278858  CLST         227          1.0000000000
       680       227  TIP3  H1           -6.7432765848        0.7149370413       10.5272861680  CLST         227          1.0000000000
       681       227  TIP3  H2           -5.8114470901        0.1725240923        9.5343429159  CLST         227          1.0000000000
       682       228  TIP3  OH2          -8.7536496703       -5.3037614452       10.5332979849  CLST         228          1.0000000000
       683       228  TIP3  H1           -8.8116903336       -5.1549126824        9.6203435169  CLST         228          1.0000000000
       684       228  TIP3  H2           -7.8128626178       -5.4975493315       10.3900258753  CLST         228          1.0000000000
       685       229  TIP3  OH2          11.2943715561        8.1046248498      -15.1037045819  CLST         229          1.0000000000
       686       229  TIP3  H1           11.2352826953        8.2039986646      -14.1218578896  CLST         229          1.0000000000
       687       229  TIP3  H2           11.8545375291        7.3436447882      -14.7878811903  CLST         229          1.0000000000
       688       230  TIP3  OH2         -10.7643956476       -3.5617828576        8.7657614831  CLST         230          1.0000000000
       689       230  TIP3  H1          -11.2420007656       -4.3629877172        8.6254976138  CLST         230          1.0000000000
       690       230  TIP3  H2          -11.5240922123       -3.2809063362        9.3045571627  CLST         230          1.0000000000
       691       231  TIP3  OH2          -0.2239107629        3.1298023945      -11.9877000808  CLST         231          1.0000000000
       692       231  TIP3  H1            0.2732699662        2.5063858794      -11.4835859430  CLST         231          1.0000000000
       693       231  TIP3  H2            0.2866908369        2.8656937388      -12.7370156305  CLST         231          1.0000000000
       694       232  TIP3  OH2           1.7011397263      -15.1037045819      -12.1375141088  CLST         232          1.0000000000
       695       232  TIP3  H1            1.6624865292      -14.4722998531      -11.4108661050  CLST         232          1.0000000000
       696       232  TIP3  H2            2.0196870819      -14.3133129401      -12.5723660531  CLST         232          1.0000000000
       697       233  TIP3  OH2         -12.2863400608        9.7910037324        2.0518623111  CLST         233          1.0000000000
       698       233  TIP3  H1          -12.8645781038        9.5330726977        2.7912768502  CLST         233          1.0000000000
       699       233  TIP3  H2          -13.1256877730        9.9615738766        1.6072669717  CLST         233          1.0000000000
       700       234  TIP3  OH2          -2.2470745528        4.4408409876       -8.2718485162  CLST         234          1.0000000000
       701       234  TIP3  H1           -2.2171484438        5.4102151121       -8.2825853009  CLST         234          1.0000000000
       702       234  TIP3  H2           -2.3508708411        4.4572962153       -9.2184558593  CLST         234          1.0000000000
       703       235  TIP3  OH2         -10.5081970433        5.2088602134       -5.8136191336  CLST         235          1.0000000000
       704       235  TIP3  H1          -11.0290130793        4.9144278451       -6.5571590953  CLST         235          1.0000000000
       705       235  TIP3  H2           -9.5650496737        4.8901824065       -6.0386546644  CLST         235          1.0000000000
       706       236  TIP3  OH2         -12.2918649003      -10.6352212433       13.5863747048  CLST         236          1.0000000000
       707       236  TIP3  H1          -11.5499337788      -10.7054516300       12.9697717851  CLST         236          1.0000000000
       708       236  TIP3  H2          -12.3662054210       -9.9951050430       12.6031342649  CLST         236          1.0000000000
       709       237  TIP3  OH2          -6.2436022270       -6.4354315715       10.5099185101  CLST         237          1.0000000000
       710       237  TIP3  H1           -5.6063358946       -6.8661741731        9.9558983126  CLST         237          1.0000000000
       711       237  TIP3  H2           -5.6858172655       -6.5165267373       11.2673370488  CLST         237          1.0000000000
       712       238  TIP3  OH2          -0.8666581775        3.7464030363       -2.6969566462  CLST         238          1.0000000000
       713       238  TIP3  H1           -1.4974070765        4.2547302078       -3.2067767635  CLST         238          1.0000000000
       714       238  TIP3  H2           -1.6870065752        3.2928218487       -2.4047080920  CLST         238          1.0000000000
       715       239  TIP3  OH2           8.0503296378        7.3712740722       -0.0556209883  CLST         239          1.0000000000
       716       239  TIP3  H1            8.5689675306        6.7097616617       -0.5779459496  CLST         239          1.0000000000
       717       239  TIP3  H2            8.8984155119        7.5200113815        0.3462049542  CLST         239          1.0000000000
       718       240  TIP3  OH2          -9.8061678183        8.7076225410        1.9154786983  CLST         240          1.0000000000
       719       240  TIP3  H1          -10.7593603813        8.8747561383        1.7193783312  CLST         240          1.0000000000
       720       240  TIP3  H2          -10.1764532520        7.8050187569        1.9447541552  CLST         240          1.0000000000
       721       241  TIP3  OH2          11.0935065182       -4.4478001846       -1.7941290849  CLST         241          1.0000000000
       722       241  TIP3  H1           10.6296398517       -4.7915118690       -2.5961607371  CLST         241          1.0000000000
       723       241  TIP3  H2           11.8636927442       -4.6014657514       -2.3640266804  CLST         241          1.0000000000
       724       242  TIP3  OH2           9.5688231941       -1.6889336336       -4.4403611130  CLST         242          1.0000000000
       725       242  TIP3  H1           10.2838023437       -1.2835639159       -3.8824372842  CLST         242          1.0000000000
       726       242  TIP3  H2            9.4118186912       -2.1442469489       -3.6075133648  CLST         242          1.0000000000
       727       243  TIP3  OH2           5.0683281700        9.5800561357      -12.1800483714  CLST         243          1.0000000000
       728       243  TIP3  H1            4.3943835741       10.2197695704      -11.8378428825  CLST         243          1.0000000000
       729       243  TIP3  H2            4.8087121066        9.1130635365      -11.3748474164  CLST         243          1.0000000000
       730       244  TIP3  OH2          -9.2682842185       -6.6727103196      -14.3089786829  CLST         244          1.0000000000
       731       244  TIP3  H1           -9.4769268939       -6.1653473258      -13.5369353889  CLST         244          1.0000000000
       732       244  TIP3  H2          -10.1592945307       -6.5853921825      -14.5940892072  CLST         244          1.0000000000
       733       245  TIP3  OH2         -13.3044137212        6.1447645499        2.3199041989  CLST         245          1.0000000000
       734       245  TIP3  H1          -13.1534836864        6.8594550977        3.0081076574  CLST         245          1.0000000000
       735       245  TIP3  H2          -12.3556239993        6.0476850432        2.5565834913  CLST         245          1.0000000000
       736       246  TIP3  OH2          -9.2335259132        6.3245499380       -1.8237762216  CLST         246          1.0000000000
       737       246  TIP3  H1          -10.0980092058        6.2246607574       -2.1694744844  CLST         246          1.0000000000
       738       246  TIP3  H2           -9.2391956395        7.2515147438       -2.1030112310  CLST         246          1.0000000000
       739       247  TIP3  OH2          -4.4566263743        8.0866183913        7.7944702712  CLST         247          1.0000000000
       740       247  TIP3  H1           -3.6390649136        8.2975788033        8.3314545675  CLST         247          1.0000000000
       741       247  TIP3  H2           -4.7649625408        7.7807079596        8.6789662029  CLST         247          1.0000000000
       742       248  TIP3  OH2           9.8415637275       -7.8440809891        8.0903772162  CLST         248          1.0000000000
       743       248  TIP3  H1            9.0942930246       -8.4318372459        8.2637493500  CLST         248          1.0000000000
       744       248  TIP3  H2            9.7481548191       -7.7036601421        7.1556403928  CLST         248          1.0000000000
       745       249  TIP3  OH2           9.8641580313        5.7223078742       -1.1965060849  CLST         249          1.0000000000
       746       249  TIP3  H1           10.4912703484        5.0135369403       -1.3239661247  CLST         249          1.0000000000
       747       249  TIP3  H2           10.4721250991        6.2073075024       -1.7081679933  CLST         249          1.0000000000
       748       250  TIP3  OH2           5.9353493339       -4.7478286099        3.4110729031  CLST         250          1.0000000000
       749       250  TIP3  H1            6.0210030373       -5.5233371799        2.8851886080  CLST         250          1.0000000000
       750       250  TIP3  H2            5.3616766680       -5.1787665294        4.0545145798  CLST         250          1.0000000000
       751       251  TIP3  OH2         -14.6914130623      -11.6304531815        1.8789044756  CLST         251          1.0000000000
       752       251  TIP3  H1          -14.5320218293      -12.4016523346        1.3384165265  CLST         251          1.0000000000
       753       251  TIP3  H2          -14.3667049234      -12.0176827565        2.6864705019  CLST         251          1.0000000000
       754       252  TIP3  OH2          -6.9619111468      -15.0450269385      -11.9256402226  CLST         252          1.0000000000
       755       252  TIP3  H1           -7.8555759104      -14.7141431383      -11.7707570542  CLST         252          1.0000000000
       756       252  TIP3  H2           -7.0507721027      -14.4498648970      -12.7158090544  CLST         252          1.0000000000
       757       253  TIP3  OH2           0.6933870221        7.5039085872        7.9603274439  CLST         253          1.0000000000
       758       253  TIP3  H1            0.7128332469        7.2657863750        7.0503311319  CLST         253          1.0000000000
       759       253  TIP3  H2            1.6528924830        7.4829401885        7.8722675236  CLST         253          1.0000000000
       760       254  TIP3  OH2         -11.4221065389        1.4258063850      -14.4757716261  CLST         254          1.0000000000
       761       254  TIP3  H1          -11.8033172062        0.5585333585      -14.2978086335  CLST         254          1.0000000000
       762       254  TIP3  H2          -12.3525847907        1.6850382485      -14.4998293171  CLST         254          1.0000000000
       763       255  TIP3  OH2           4.2283998003        0.1363538539       -0.8496862278  CLST         255          1.0000000000
       764       255  TIP3  H1            4.0371655224       -0.4592851206       -0.0627127648  CLST         255          1.0000000000
       765       255  TIP3  H2            3.3370635032       -0.1703810380       -1.1094282364  CLST         255          1.0000000000
       766       256  TIP3  OH2          14.1292505232       -3.3087799407      -12.2411929779  CLST         256          1.0000000000
       767       256  TIP3  H1           14.6750326837       -3.0793320706      -12.9707697674  CLST         256          1.0000000000
       768       256  TIP3  H2           13.5968725785       -3.9764180178      -12.6190623285  CLST         256          1.0000000000
       769       257  TIP3  OH2          -6.4625270441      -13.3939411594       10.1518959343  CLST         257          1.0000000000
       770       257  TIP3  H1           -6.7542524359      -14.3376607918        9.8699938605  CLST         257          1.0000000000
       771       257  TIP3  H2           -5.6956549763      -13.9344299533       10.3489963988  CLST         257          1.0000000000
       772       258  TIP3  OH2         -10.4336851719      -11.7589867158       -6.5695338284  CLST         258          1.0000000000
       773       258  TIP3  H1           -9.8420196536      -11.6655247031       -5.7976508059  CLST         258          1.0000000000
       774       258  TIP3  H2          -10.4126715768      -10.8133347948       -6.5992132625  CLST         258          1.0000000000
       775       259  TIP3  OH2           3.0737681264        1.7590739424       14.1536473567  CLST         259          1.0000000000
       776       259  TIP3  H1            3.1919824853        0.7792606690       14.1098205227  CLST         259          1.0000000000
       777       259  TIP3  H2            2.9539613306        1.5471717188       15.1037045819  CLST         259          1.0000000000
       778       260  TIP3  OH2         -10.7524256422      -10.2482699730       -9.5951099960  CLST         260          1.0000000000
       779       260  TIP3  H1          -11.4112039019      -10.6306314850      -10.1420321739  CLST         260          1.0000000000
       780       260  TIP3  H2          -11.2528835145       -9.4644317592       -9.4518356571  CLST         260          1.0000000000
       781       261  TIP3  OH2           6.9739695763        1.0048497568       -0.2029458051  CLST         261          1.0000000000
       782       261  TIP3  H1            7.0186486951        1.6186352397       -0.9771543555  CLST         261          1.0000000000
       783       261  TIP3  H2            6.0260884448        1.1923050905       -0.2230538574  CLST         261          1.0000000000
       784       262  TIP3  OH2          -1.7068113861       14.2949390396        2.9968289495  CLST         262          1.0000000000
       785       262  TIP3  H1           -2.1182766033       13.9362538172        3.8050524164  CLST         262          1.0000000000
       786       262  TIP3  H2           -1.0593774086       13.5984373506        3.2670254170  CLST         262          1.0000000000
       787       263  TIP3  OH2           6.6094267661        3.9403083626        1.6210436692  CLST         263          1.0000000000
       788       263  TIP3  H1            6.0126363914        3.4793699882        0.9906711174  CLST         263          1.0000000000
       789       263  TIP3  H2            6.1504958562        3.3424753578        2.2213209129  CLST         263          1.0000000000
       790       264  TIP3  OH2          -3.1341013293       10.3165132098       10.2497749911  CLST         264          1.0000000000
       791       264  TIP3  H1           -2.4559349577       10.9320926053       10.5542959611  CLST         264          1.0000000000
       792       264  TIP3  H2           -2.5953299058       10.3054257975        9.4322195858  CLST         264          1.0000000000
       793       265  TIP3  OH2         -12.7335725764       12.6687776997       -0.2087016706  CLST         265          1.0000000000
       794       265  TIP3  H1          -13.0883841781       12.9107484338       -1.0740788787  CLST         265          1.0000000000
       795       265  TIP3  H2          -13.4615952925       12.0447892036       -0.1722946296  CLST         265          1.0000000000
       796       266  TIP3  OH2          -4.0435549863        1.6173176285        4.1372600768  CLST         266          1.0000000000
       797       266  TIP3  H1           -3.9728192744        0.8768312432        3.4921852707  CLST         266          1.0000000000
       798       266  TIP3  H2           -4.1423813446        2.1207685028        3.3234355027  CLST         266          1.0000000000
       799       267  TIP3  OH2          -6.9139738372       11.3856069609       -5.3107354251  CLST         267          1.0000000000
       800       267  TIP3  H1           -7.5883469523       11.1244029732       -5.9661331355  CLST         267          1.0000000000
       801       267  TIP3  H2           -7.6637518749       11.8899264484       -4.9384946351  CLST         267          1.0000000000
       802       268  TIP3  OH2           4.8360005853        3.7830068979      -14.0865815977  CLST         268          1.0000000000
       803       268  TIP3  H1            5.6087671857        4.0181378888      -13.5684605422  CLST         268          1.0000000000
       804       268  TIP3  H2            4.8788201529        4.6736561760      -14.5100182203  CLST         268          1.0000000000
       805       269  TIP3  OH2           9.3410387526       -0.2922483553       11.3639682556  CLST         269          1.0000000000
       806       269  TIP3  H1           10.1962382811        0.0525380883       11.5915790286  CLST         269          1.0000000000
       807       269  TIP3  H2            9.3663590204       -0.5190289664       12.3305902226  CLST         269          1.0000000000
       808       270  TIP3  OH2          -8.1743969493       -6.0074263721        6.3737128051  CLST         270          1.0000000000
       809       270  TIP3  H1           -8.1174915415       -5.9544194345        5.4179841183  CLST         270          1.0000000000
       810       270  TIP3  H2           -7.2343138090       -5.9374848818        6.5348155478  CLST         270          1.0000000000
       811       271  TIP3  OH2         -11.8012320242       12.1875821240       11.5285153624  CLST         271          1.0000000000
       812       271  TIP3  H1          -11.3048472897       12.3729287523       12.3756099951  CLST         271          1.0000000000
       813       271  TIP3  H2          -11.1766746748       12.8713603909       11.2456490074  CLST         271          1.0000000000
       814       272  TIP3  OH2           6.8369469590      -14.2167819195        3.3918031388  CLST         272          1.0000000000
       815       272  TIP3  H1            7.5012698578      -13.5452178900        3.6079989465  CLST         272          1.0000000000
       816       272  TIP3  H2            6.6185947204      -14.0416393202        4.3455942144  CLST         272          1.0000000000
       817       273  TIP3  OH2          -8.4611330623       10.9193984376       -7.5242899922  CLST         273          1.0000000000
       818       273  TIP3  H1           -9.2155409041       11.3931392266       -8.0072815153  CLST         273          1.0000000000
       819       273  TIP3  H2           -9.2146951784       10.2941949816       -7.3350857887  CLST         273          1.0000000000
       820       274  TIP3  OH2          -6.6354323540        0.4873368655       14.0211910989  CLST         274          1.0000000000
       821       274  TIP3  H1           -7.5208634814        0.7330960497       14.4316467837  CLST         274          1.0000000000
       822       274  TIP3  H2           -7.2246601087        0.5700432280       13.1996804472  CLST         274          1.0000000000
       823       275  TIP3  OH2           3.7924255063      -15.1037045819       -0.8749491850  CLST         275          1.0000000000
       824       275  TIP3  H1            3.1099311480      -14.6029532968       -0.4468353581  CLST         275          1.0000000000
       825       275  TIP3  H2            4.0041820573      -14.3827999414       -1.4589871710  CLST         275          1.0000000000
       826       276  TIP3  OH2           2.3533663514       -9.9067568678        7.2784822027  CLST         276          1.0000000000
       827       276  TIP3  H1            2.4430666120      -10.2167884626        8.2005617602  CLST         276          1.0000000000
       828       276  TIP3  H2            3.3014140403       -9.7069265584        7.4277199040  CLST         276          1.0000000000
       829       277  TIP3  OH2          -7.1500158329        7.0909593123        2.8368521643  CLST         277          1.0000000000
       830       277  TIP3  H1           -7.7170753831        6.6220840837        2.1725749259  CLST         277          1.0000000000
       831       277  TIP3  H2           -6.4949088619        6.4725397706        2.4617711130  CLST         277          1.0000000000
       832       278  TIP3  OH2           5.0494436590      -10.5072221150        9.9961652203  CLST         278          1.0000000000
       833       278  TIP3  H1            5.2948687875       -9.7985886087        9.3564568907  CLST         278          1.0000000000
       834       278  TIP3  H2            4.2835033436       -9.9206876711       10.1665472456  CLST         278          1.0000000000
       835       279  TIP3  OH2          12.0575346212       -5.7244255604        7.4212900050  CLST         279          1.0000000000
       836       279  TIP3  H1           11.5152030155       -6.0192931948        6.6680665550  CLST         279          1.0000000000
       837       279  TIP3  H2           12.3901883505       -5.1545787113        6.6770718999  CLST         279          1.0000000000
       838       280  TIP3  OH2           6.9983171440       -9.0007068455       12.8646932422  CLST         280          1.0000000000
       839       280  TIP3  H1            7.2651782406       -9.9319373298       12.8995085094  CLST         280          1.0000000000
       840       280  TIP3  H2            7.8592554000       -8.6586344258       12.7594767831  CLST         280          1.0000000000
       841       281  TIP3  OH2          -1.5940850645        4.8364811263       10.7389814428  CLST         281          1.0000000000
       842       281  TIP3  H1           -2.2396705706        4.1205016868       10.8876791342  CLST         281          1.0000000000
       843       281  TIP3  H2           -1.5264044201        4.9270201880       11.7042376742  CLST         281          1.0000000000
       844       282  TIP3  OH2          10.7514998834       10.6672300658      -10.8696571439  CLST         282          1.0000000000
       845       282  TIP3  H1           11.3912197197        9.9768438587      -11.0673343774  CLST         282          1.0000000000
       846       282  TIP3  H2           11.4842346491       11.1767112682      -11.2608849936  CLST         282          1.0000000000
       847       283  TIP3  OH2          -2.9303205606       -4.3453544228       -0.1269762419  CLST         283          1.0000000000
       848       283  TIP3  H1           -3.6640708598       -4.6482635492       -0.7293673716  CLST         283          1.0000000000
       849       283  TIP3  H2           -3.0270967505       -5.2984869132        0.1702972641  CLST         283          1.0000000000
       850       284  TIP3  OH2           3.9358263645       10.7345095953        2.1133036307  CLST         284          1.0000000000
       851       284  TIP3  H1            4.1874460739        9.7834318146        2.1020193546  CLST         284          1.0000000000
       852       284  TIP3  H2            3.1939760888       10.3078939900        2.6346006234  CLST         284          1.0000000000
       853       285  TIP3  OH2         -11.7091826433       -6.1065854346        8.3667678692  CLST         285          1.0000000000
       854       285  TIP3  H1          -10.8122141977       -6.4108743382        8.1136170322  CLST         285          1.0000000000
       855       285  TIP3  H2          -11.9277956262       -6.1974716800        7.3774291453  CLST         285          1.0000000000
       856       286  TIP3  OH2          -2.5483348785       -9.5943561823      -10.6760186059  CLST         286          1.0000000000
       857       286  TIP3  H1           -2.4737734609       -9.3034837402      -11.5744392289  CLST         286          1.0000000000
       858       286  TIP3  H2           -3.3487486797      -10.0614378727      -10.8433376040  CLST         286          1.0000000000
       859       287  TIP3  OH2           2.7342747094       -0.7721125462       -7.8077810163  CLST         287          1.0000000000
       860       287  TIP3  H1            2.6497400884        0.2115256254       -7.7961364823  CLST         287          1.0000000000
       861       287  TIP3  H2            3.6440409074       -0.5307311154       -8.1132322122  CLST         287          1.0000000000
       862       288  TIP3  OH2          13.7250859882      -14.4170430315       -8.3853084852  CLST         288          1.0000000000
       863       288  TIP3  H1           13.4122654735      -13.5955572301       -8.0009544755  CLST         288          1.0000000000
       864       288  TIP3  H2           14.1328408220      -14.6769599856       -7.6074071173  CLST         288          1.0000000000
       865       289  TIP3  OH2          14.1728217962        3.8256607706      -10.1683800896  CLST         289          1.0000000000
       866       289  TIP3  H1           13.8072805208        3.8942931061       -9.2770863828  CLST         289          1.0000000000
       867       289  TIP3  H2           14.8917502095        3.3642180598       -9.7656199550  CLST         289          1.0000000000
       868       290  TIP3  OH2          11.5563020359        1.0718158738       11.9882989274  CLST         290          1.0000000000
       869       290  TIP3  H1           11.5741928045        1.2728253359       12.9419578528  CLST         290          1.0000000000
       870       290  TIP3  H2           11.6933798698        1.9944545284       11.9110827004  CLST         290          1.0000000000
       871       291  TIP3  OH2         -11.3183171502       -9.4823726054       -2.7395185702  CLST         291          1.0000000000
       872       291  TIP3  H1          -10.6868519732       -9.9660731678       -2.1660862733  CLST         291          1.0000000000
       873       291  TIP3  H2          -11.4165410571       -8.9727102540       -1.8576326852  CLST         291          1.0000000000
       874       292  TIP3  OH2           9.0531292884       -1.9617565229      -11.7674276780  CLST         292          1.0000000000
       875       292  TIP3  H1            8.4673208427       -2.7118722112      -11.7498830641  CLST         292          1.0000000000
       876       292  TIP3  H2            9.1287867275       -2.1727771799      -10.7934289984  CLST         292          1.0000000000
       877       293  TIP3  OH2           2.3506072886        2.7223124866      -13.5452687936  CLST         293          1.0000000000
       878       293  TIP3  H1            2.1245123671        3.6655627637      -13.5833920097  CLST         293          1.0000000000
       879       293  TIP3  H2            3.2531513203        3.0125786156      -13.7476440117  CLST         293          1.0000000000
       880       294  TIP3  OH2           1.8194763557        8.0875787345        1.1270093059  CLST         294          1.0000000000
       881       294  TIP3  H1            1.2697469841        7.2980432004        1.3252010001  CLST         294          1.0000000000
       882       294  TIP3  H2            2.2892510198        8.2876658590        1.9761999631  CLST         294          1.0000000000
       883       295  TIP3  OH2           3.7564524681       12.8349749348       -4.3931003666  CLST         295          1.0000000000
       884       295  TIP3  H1            3.0131883142       13.2486202451       -3.9316809338  CLST         295          1.0000000000
       885       295  TIP3  H2            3.8887012613       13.7168777567       -4.8277588593  CLST         295          1.0000000000
       886       296  TIP3  OH2           2.7938770673        5.4373256634      -11.0272018019  CLST         296          1.0000000000
       887       296  TIP3  H1            2.3810178356        5.3476451327      -11.9139091847  CLST         296          1.0000000000
       888       296  TIP3  H2            1.9310743521        5.0009089010      -10.8550454001  CLST         296          1.0000000000
       889       297  TIP3  OH2          13.4934515025        0.1324599806        9.1085092324  CLST         297          1.0000000000
       890       297  TIP3  H1           13.6590760513        1.0591265431        8.9768351030  CLST         297          1.0000000000
       891       297  TIP3  H2           14.4261729574       -0.0032683826        8.9572745927  CLST         297          1.0000000000
       892       298  TIP3  OH2          12.1914462712       -5.1148907884      -12.4822064473  CLST         298          1.0000000000
       893       298  TIP3  H1           11.5274178456       -5.7208929421      -12.8525177910  CLST         298          1.0000000000
       894       298  TIP3  H2           12.6657314367       -5.9912825959      -12.4611626579  CLST         298          1.0000000000
       895       299  TIP3  OH2           3.3716135650       -5.8570214222       -7.5040879498  CLST         299          1.0000000000
       896       299  TIP3  H1            2.9177391899       -4.9894894397       -7.5398202899  CLST         299          1.0000000000
       897       299  TIP3  H2            3.9584338999       -5.4205519950       -6.8885790966  CLST         299          1.0000000000
       898       300  TIP3  OH2          10.2905147205       -6.6737141998      -13.7285809535  CLST         300          1.0000000000
       899       300  TIP3  H1           10.1776970613       -6.1022559130      -14.5430772505  CLST         300          1.0000000000
       900       300  TIP3  H2            9.2893377199       -6.5050213166      -13.6701944106  CLST         300          1.0000000000
       901       301  TIP3  OH2          11.0475912178       -6.7392522821        0.3744174288  CLST         301          1.0000000000
       902       301  TIP3  H1           11.1919739794       -6.1432010776       -0.3723576529  CLST         301          1.0000000000
       903       301  TIP3  H2           10.5740940288       -7.1866288951       -0.3517817463  CLST         301          1.0000000000
       904       302  TIP3  OH2          11.4227317807       -7.2518537855       11.8306768377  CLST         302          1.0000000000
       905       302  TIP3  H1           12.0230723677       -6.7213054466       11.2588880000  CLST         302          1.0000000000
       906       302  TIP3  H2           11.5339858024       -8.1251447786       11.3997848045  CLST         302          1.0000000000
       907       303  TIP3  OH2          -8.9609902705       11.5846155522        6.8304367698  CLST         303          1.0000000000
       908       303  TIP3  H1           -9.6175811074       11.6809629602        6.0814759122  CLST         303          1.0000000000
       909       303  TIP3  H2           -8.7656213281       12.5068868106        6.4786409596  CLST         303          1.0000000000
       910       304  TIP3  OH2          -2.0187103314        8.3689849272       -0.7223873942  CLST         304          1.0000000000
       911       304  TIP3  H1           -2.5523853489        7.8962169815       -0.0681036309  CLST         304          1.0000000000
       912       304  TIP3  H2           -2.8343296517        8.8660891614       -0.9333791628  CLST         304          1.0000000000
       913       305  TIP3  OH2          -2.3778042787       -6.2832107426      -10.5272191222  CLST         305          1.0000000000
       914       305  TIP3  H1           -1.9017293972       -5.4698300282      -10.6782252895  CLST         305          1.0000000000
       915       305  TIP3  H2           -1.5542608134       -6.6547660631      -10.8718689100  CLST         305          1.0000000000
       916       306  TIP3  OH2          -8.4757462080      -14.4929119202       -7.0843644110  CLST         306          1.0000000000
       917       306  TIP3  H1           -7.5694021904      -14.7986625741       -7.1440239809  CLST         306          1.0000000000
       918       306  TIP3  H2           -8.1348108872      -14.0154730009       -6.2854755262  CLST         306          1.0000000000
       919       307  TIP3  OH2           0.8508538604       10.1880816771      -14.2990079460  CLST         307          1.0000000000
       920       307  TIP3  H1            1.3257468684       10.6565811663      -13.6350124068  CLST         307          1.0000000000
       921       307  TIP3  H2            1.5186467024        9.4782203826      -14.1335013397  CLST         307          1.0000000000
       922       308  TIP3  OH2          12.4092867123       -3.2617599138       13.4988925276  CLST         308          1.0000000000
       923       308  TIP3  H1           12.5003734902       -3.0077401766       12.5549010357  CLST         308          1.0000000000
       924       308  TIP3  H2           13.1893777958       -3.7949180643       13.5008657231  CLST         308          1.0000000000
       925       309  TIP3  OH2          13.0574651444       12.5645609149       15.0197125408  CLST         309          1.0000000000
       926       309  TIP3  H1           12.7556146567       11.7745257757       14.6385186098  CLST         309          1.0000000000
       927       309  TIP3  H2           13.0553127571       12.9579615935       14.1822406409  CLST         309          1.0000000000
       928       310  TIP3  OH2           4.1426437799       14.6049093310       -6.4392651673  CLST         310          1.0000000000
       929       310  TIP3  H1            3.7678870228       14.9040219443       -7.2780860487  CLST         310          1.0000000000
       930       310  TIP3  H2            3.5193478534       13.9183594571       -7.1754978309  CLST         310          1.0000000000
       931       311  TIP3  OH2          -5.8504601334        5.9740444173       -5.3397518447  CLST         311          1.0000000000
       932       311  TIP3  H1           -6.7546034500        5.5148559873       -5.3119633534  CLST         311          1.0000000000
       933       311  TIP3  H2           -5.9943403419        5.7966527638       -6.3020367764  CLST         311          1.0000000000
       934       312  TIP3  OH2           5.1156649954       -8.6921469817        7.9066821802  CLST         312          1.0000000000
       935       312  TIP3  H1            4.9552707019       -7.8303941367        8.3826316982  CLST         312          1.0000000000
       936       312  TIP3  H2            5.9687597384       -8.2416937378        7.6116050374  CLST         312          1.0000000000
       937       313  TIP3  OH2          -2.4377650213        7.9307427683       11.2103453871  CLST         313          1.0000000000
       938       313  TIP3  H1           -3.0888181295        8.6988065473       11.1232573238  CLST         313          1.0000000000
       939       313  TIP3  H2           -3.2397247881        7.4345744565       10.9842340596  CLST         313          1.0000000000
       940       314  TIP3  OH2           9.6064156845       -2.4501034852       -1.9106981239  CLST         314          1.0000000000
       941       314  TIP3  H1            9.5948587260       -3.3993055726       -1.7137332051  CLST         314          1.0000000000
       942       314  TIP3  H2            8.8451598903       -2.4685404064       -1.3162608049  CLST         314          1.0000000000
       943       315  TIP3  OH2           4.4067839146       10.0005789893       -2.8574812264  CLST         315          1.0000000000
       944       315  TIP3  H1            3.7752554589        9.3742346410       -2.5651300599  CLST         315          1.0000000000
       945       315  TIP3  H2            4.1480932281       10.7426640894       -2.2771127344  CLST         315          1.0000000000
       946       316  TIP3  OH2          13.8721374525       -6.5259650019       -5.9413240593  CLST         316          1.0000000000
       947       316  TIP3  H1           12.9594048918       -6.2467779848       -5.7275667516  CLST         316          1.0000000000
       948       316  TIP3  H2           13.7507043034       -5.7914647383       -6.6131709121  CLST         316          1.0000000000
       949       317  TIP3  OH2          -3.0163862251      -10.0605171928       -2.6680197248  CLST         317          1.0000000000
       950       317  TIP3  H1           -2.9428198567      -10.1496567188       -3.6407921519  CLST         317          1.0000000000
       951       317  TIP3  H2           -2.1886972170       -9.5466331060       -2.8782607553  CLST         317          1.0000000000
       952       318  TIP3  OH2          -1.2979368333        9.7811993350       -4.9013805820  CLST         318          1.0000000000
       953       318  TIP3  H1           -2.1259020262        9.5105871976       -5.3362843698  CLST         318          1.0000000000
       954       318  TIP3  H2           -1.3099551881       10.7014203546       -5.0701234146  CLST         318          1.0000000000
       955       319  TIP3  OH2           6.2139355170       -8.0123356407       -1.9885167639  CLST         319          1.0000000000
       956       319  TIP3  H1            6.8389171703       -8.3956871493       -2.6366718477  CLST         319          1.0000000000
       957       319  TIP3  H2            6.5077883318       -8.7372802817       -1.4005174765  CLST         319          1.0000000000
       958       320  TIP3  OH2           5.7388862681       12.7425729469      -12.2452371810  CLST         320          1.0000000000
       959       320  TIP3  H1            5.8376590562       12.3862403960      -13.1657811084  CLST         320          1.0000000000
       960       320  TIP3  H2            6.4356383201       12.0134461624      -12.1410521012  CLST         320          1.0000000000
       961       321  TIP3  OH2           1.5232605839      -11.4611828015        9.1845604300  CLST         321          1.0000000000
       962       321  TIP3  H1            1.6665376060      -12.0440463459        9.9329390937  CLST         321          1.0000000000
       963       321  TIP3  H2            1.7655873446      -10.7997491157        9.8351983498  CLST         321          1.0000000000
       964       322  TIP3  OH2           0.9462951752        5.8067732729        9.9034324873  CLST         322          1.0000000000
       965       322  TIP3  H1            0.4300326936        6.4291927458        9.3689938699  CLST         322          1.0000000000
       966       322  TIP3  H2            0.1064487942        5.3375852388       10.1193701654  CLST         322          1.0000000000
       967       323  TIP3  OH2           8.1118275416        3.1579791798       12.8317628360  CLST         323          1.0000000000
       968       323  TIP3  H1            7.1472747344        2.9945329765       12.6769102520  CLST         323          1.0000000000
       969       323  TIP3  H2            8.1091859127        2.9122916595       11.8789770689  CLST         323          1.0000000000
       970       324  TIP3  OH2           6.5192987901        3.1985406597       -1.5937617913  CLST         324          1.0000000000
       971       324  TIP3  H1            6.1193103579        4.0488548870       -1.4372870629  CLST         324          1.0000000000
       972       324  TIP3  H2            6.0129890137        3.1760110618       -2.4138270915  CLST         324          1.0000000000
       973       325  TIP3  OH2         -12.4839511938       -8.4444140526       11.7817198566  CLST         325          1.0000000000
       974       325  TIP3  H1          -12.7122072818       -7.5709785196       11.3037770332  CLST         325          1.0000000000
       975       325  TIP3  H2          -11.7036762339       -7.8407512661       11.9385872681  CLST         325          1.0000000000
       976       326  TIP3  OH2         -12.2582054740        9.3120325077       -5.1398115614  CLST         326          1.0000000000
       977       326  TIP3  H1          -12.2473385024       10.2767466472       -5.1202678529  CLST         326          1.0000000000
       978       326  TIP3  H2          -11.6431503439        9.2319717183       -5.8728732246  CLST         326          1.0000000000
       979       327  TIP3  OH2          12.5928708470       -5.6650134100        9.9656616455  CLST         327          1.0000000000
       980       327  TIP3  H1           12.3840847905       -6.0806515853        9.0914472494  CLST         327          1.0000000000
       981       327  TIP3  H2           13.0289589467       -5.0572812672        9.3120840105  CLST         327          1.0000000000
       982       328  TIP3  OH2         -12.3717179799       -8.0333906481      -12.8788873104  CLST         328          1.0000000000
       983       328  TIP3  H1          -11.4602113909       -7.9030785869      -12.5618658321  CLST         328          1.0000000000
       984       328  TIP3  H2          -12.1287194687       -8.9533169757      -12.6819957757  CLST         328          1.0000000000
       985       329  TIP3  OH2           6.7109190972       -4.4928103018       -1.7795072473  CLST         329          1.0000000000
       986       329  TIP3  H1            5.9694476238       -4.0219408028       -1.0911002064  CLST         329          1.0000000000
       987       329  TIP3  H2            5.9906070551       -4.2292510020       -2.0663301379  CLST         329          1.0000000000
       988       330  TIP3  OH2          12.8474286692        6.0025157936      -14.3388752060  CLST         330          1.0000000000
       989       330  TIP3  H1           13.5938865381        5.9201053863      -14.8770574671  CLST         330          1.0000000000
       990       330  TIP3  H2           13.3523926978        6.0520607130      -13.5625599743  CLST         330          1.0000000000
       991       331  TIP3  OH2          -4.6552453648       -0.0572927267        6.2886894567  CLST         331          1.0000000000
       992       331  TIP3  H1           -4.4072029539        0.6844064022        5.7235022050  CLST         331          1.0000000000
       993       331  TIP3  H2           -5.6151936915        0.1738415850        6.2590392986  CLST         331          1.0000000000
       994       332  TIP3  OH2          -8.8225879856        9.0840547248       -2.0637001359  CLST         332          1.0000000000
       995       332  TIP3  H1           -9.3706613872        9.8686487770       -1.7744508385  CLST         332          1.0000000000
       996       332  TIP3  H2           -8.2703384494        9.3736268264       -1.2865867359  CLST         332          1.0000000000
       997       333  TIP3  OH2          -6.9345764064       -8.7637131917       -6.9188420128  CLST         333          1.0000000000
       998       333  TIP3  H1           -7.4216547024       -9.1589108798       -7.6480118996  CLST         333          1.0000000000
       999       333  TIP3  H2           -7.5624500190       -7.9994046483       -6.8863224514  CLST         333          1.0000000000
      1000       334  TIP3  OH2         -10.5630955772        8.1787862679       -9.4221407545  CLST         334          1.0000000000
      1001       334  TIP3  H1           -9.9594066694        8.9159261350       -9.6651215275  CLST         334          1.0000000000
      1002       334  TIP3  H2          -10.2568361918        8.4105943298       -8.5385708876  CLST         334          1.0000000000
      1003       335  TIP3  OH2           1.5968380887        0.0700816147       -1.1236348966  CLST         335          1.0000000000
      1004       335  TIP3  H1            1.2875012481       -0.7860202783       -0.6836875964  CLST         335          1.0000000000
      1005       335  TIP3  H2            0.7957025587        0.0437355020       -1.6979897669  CLST         335          1.0000000000
      1006       336  TIP3  OH2          11.5849561316        5.4569593437        1.4114107911  CLST         336          1.0000000000
      1007       336  TIP3  H1           10.7455562680        5.0645207723        1.0621368650  CLST         336          1.0000000000
      1008       336  TIP3  H2           11.0747532297        6.2655868831        1.0651005570  CLST         336          1.0000000000
      1009       337  TIP3  OH2           2.0556180537      -14.8047514980        5.4396359576  CLST         337          1.0000000000
      1010       337  TIP3  H1            2.1082416087      -13.9522398366        5.8215313761  CLST         337          1.0000000000
      1011       337  TIP3  H2            1.7269893192      -14.3389839919        4.6764558963  CLST         337          1.0000000000
      1012       338  TIP3  OH2          -4.5726641003        2.6490663333      -11.6766819079  CLST         338          1.0000000000
      1013       338  TIP3  H1           -5.5364144937        2.6652431212      -11.8517597269  CLST         338          1.0000000000
      1014       338  TIP3  H2           -4.6456873953        2.2275519132      -12.5686015761  CLST         338          1.0000000000
      1015       339  TIP3  OH2           5.0687363649        2.1515370957       -7.9735777342  CLST         339          1.0000000000
      1016       339  TIP3  H1            4.1273324728        2.3637515842       -7.8800052190  CLST         339          1.0000000000
      1017       339  TIP3  H2            4.9658647617        2.8202895071       -8.6719600898  CLST         339          1.0000000000
      1018       340  TIP3  OH2         -10.6638182011       12.0847920305       -8.7701728160  CLST         340          1.0000000000
      1019       340  TIP3  H1          -11.6424753786       11.9997874850       -8.9051973870  CLST         340          1.0000000000
      1020       340  TIP3  H2          -10.8970711536       12.8570826947       -8.1547625429  CLST         340          1.0000000000
      1021       341  TIP3  OH2          -1.8045189881       13.9498632987       -0.7696963524  CLST         341          1.0000000000
      1022       341  TIP3  H1           -1.1657709601       13.2727209756       -1.0886622992  CLST         341          1.0000000000
      1023       341  TIP3  H2           -2.3506181388       13.5688490563       -1.4792420711  CLST         341          1.0000000000
      1024       342  TIP3  OH2         -11.6805925733        3.4354119412        9.6658718233  CLST         342          1.0000000000
      1025       342  TIP3  H1          -12.2933237756        2.8739910874       10.1042541510  CLST         342          1.0000000000
      1026       342  TIP3  H2          -11.4456660663        3.7973370887       10.5156225331  CLST         342          1.0000000000
      1027       343  TIP3  OH2          -0.7512637037       -1.5609957744      -14.1739137896  CLST         343          1.0000000000
      1028       343  TIP3  H1           -1.2861417122       -0.7873314150      -13.9797863557  CLST         343          1.0000000000
      1029       343  TIP3  H2           -0.7757318121       -1.2638375818      -15.0678191136  CLST         343          1.0000000000
      1030       344  TIP3  OH2           9.0070948629        3.9956030889        4.1886537410  CLST         344          1.0000000000
      1031       344  TIP3  H1            8.7376626957        4.8738419795        4.5080788520  CLST         344          1.0000000000
      1032       344  TIP3  H2            8.0524015540        3.8568946502        4.4560302833  CLST         344          1.0000000000
      1033       345  TIP3  OH2           0.1071839960        9.9037427134       -0.2769098322  CLST         345          1.0000000000
      1034       345  TIP3  H1            0.6809985939        9.2291282617        0.1053837899  CLST         345          1.0000000000
      1035       345  TIP3  H2           -0.5781629208        9.2535494525       -0.1949554436  CLST         345          1.0000000000
      1036       346  TIP3  OH2          -4.8143098793      -14.8940841412        6.1659209134  CLST         346          1.0000000000
      1037       346  TIP3  H1           -5.2016983518      -14.0357043715        5.8211451126  CLST         346          1.0000000000
      1038       346  TIP3  H2           -4.4922066004      -14.1603592266        6.8104838854  CLST         346          1.0000000000
      1039       347  TIP3  OH2         -13.8519407452      -11.6133564478       -2.0415121181  CLST         347          1.0000000000
      1040       347  TIP3  H1          -14.0036673110      -10.9670146658       -2.7617710328  CLST         347          1.0000000000
      1041       347  TIP3  H2          -13.5960154772      -10.9093298356       -1.4312105091  CLST         347          1.0000000000
      1042       348  TIP3  OH2           4.3096733309        7.6354000567       -7.3807075068  CLST         348          1.0000000000
      1043       348  TIP3  H1            5.2094014368        7.2819669760       -7.1951705015  CLST         348          1.0000000000
      1044       348  TIP3  H2            4.2947135231        7.8189469009       -6.4617723373  CLST         348          1.0000000000
      1045       349  TIP3  OH2           8.2858072389       10.0902976874        2.5855558878  CLST         349          1.0000000000
      1046       349  TIP3  H1            8.6162857478       10.0634175472        1.6323714201  CLST         349          1.0000000000
      1047       349  TIP3  H2            7.4837119656        9.7535813180        2.1162359468  CLST         349          1.0000000000
      1048       350  TIP3  OH2          -8.6943725567        1.1571006746      -14.5766747381  CLST         350          1.0000000000
      1049       350  TIP3  H1           -9.0774246647        0.2875027280      -14.3180380219  CLST         350          1.0000000000
      1050       350  TIP3  H2           -9.6548189041        1.3300429691      -14.7637950669  CLST         350          1.0000000000
      1051       351  TIP3  OH2          10.1647837749        3.1783704890        6.1443007920  CLST         351          1.0000000000
      1052       351  TIP3  H1           10.6192924778        3.8413093019        5.5873740341  CLST         351          1.0000000000
      1053       351  TIP3  H2            9.9653664334        2.9063440445        5.2333469076  CLST         351          1.0000000000
      1054       352  TIP3  OH2           5.4042697942       -0.4624545136       -8.3689679720  CLST         352          1.0000000000
      1055       352  TIP3  H1            6.0957051128       -0.6905396832       -7.6495433223  CLST         352          1.0000000000
      1056       352  TIP3  H2            5.5286894874        0.4483756995       -8.0444941707  CLST         352          1.0000000000
      1057       353  TIP3  OH2          -1.5693129182        9.5954266952      -12.8269668108  CLST         353          1.0000000000
      1058       353  TIP3  H1           -0.8046135866        9.6108235764      -13.4675083076  CLST         353          1.0000000000
      1059       353  TIP3  H2           -1.5450310828        8.6540314107      -12.8947195961  CLST         353          1.0000000000
      1060       354  TIP3  OH2         -11.7479482510      -10.8608880836      -14.1616383198  CLST         354          1.0000000000
      1061       354  TIP3  H1          -12.3082860919      -10.8683821593      -14.9502660474  CLST         354          1.0000000000
      1062       354  TIP3  H2          -11.1581525932      -11.3585860570      -14.7167544238  CLST         354          1.0000000000
      1063       355  TIP3  OH2           1.8144673804      -13.7593514555       -9.7426159012  CLST         355          1.0000000000
      1064       355  TIP3  H1            1.6464721364      -13.3335914131       -8.8507167904  CLST         355          1.0000000000
      1065       355  TIP3  H2            1.4485893865      -12.9178358941      -10.0287864648  CLST         355          1.0000000000
      1066       356  TIP3  OH2         -12.8455682188       -5.0450220386       -3.1512649076  CLST         356          1.0000000000
      1067       356  TIP3  H1          -13.0761998639       -5.8617371923       -3.6367169554  CLST         356          1.0000000000
      1068       356  TIP3  H2          -13.4840579304       -4.6575996890       -3.7985489282  CLST         356          1.0000000000
      1069       357  TIP3  OH2          -6.8355537319       -9.5884062839        4.9539166644  CLST         357          1.0000000000
      1070       357  TIP3  H1           -5.9448706487       -9.8212774297        4.6688013850  CLST         357          1.0000000000
      1071       357  TIP3  H2           -6.5632860198       -8.7485972476        4.5468427443  CLST         357          1.0000000000
      1072       358  TIP3  OH2          -2.3353342196       -7.5583763186        4.0202262064  CLST         358          1.0000000000
      1073       358  TIP3  H1           -1.3410895707       -7.6557231457        4.0581168329  CLST         358          1.0000000000
      1074       358  TIP3  H2           -2.2319781581       -7.3261375320        4.9698063282  CLST         358          1.0000000000
      1075       359  TIP3  OH2          10.3012531050       10.0659636902       -1.7672605265  CLST         359          1.0000000000
      1076       359  TIP3  H1           10.1755339189       10.3321859047       -0.8806125312  CLST         359          1.0000000000
      1077       359  TIP3  H2           10.5611357222       10.9590415702       -1.9007569269  CLST         359          1.0000000000
      1078       360  TIP3  OH2           7.5366975468       12.9582397436       12.9866084763  CLST         360          1.0000000000
      1079       360  TIP3  H1            8.3697348806       13.3376649011       12.7504987191  CLST         360          1.0000000000
      1080       360  TIP3  H2            7.1858549110       12.9059105218       12.0713033239  CLST         360          1.0000000000
      1081       361  TIP3  OH2          -6.0443001008      -10.6741310310       10.3819566718  CLST         361          1.0000000000
      1082       361  TIP3  H1           -6.3058430986      -11.4485483768        9.6913769017  CLST         361          1.0000000000
      1083       361  TIP3  H2           -5.8670065042      -11.7862492769       10.4923867648  CLST         361          1.0000000000
      1084       362  TIP3  OH2           4.5703830740       -3.4930251304       10.2851378487  CLST         362          1.0000000000
      1085       362  TIP3  H1            5.0336683020       -3.0917741939        9.5240900960  CLST         362          1.0000000000
      1086       362  TIP3  H2            5.4295960661       -3.8199231034       10.6269219536  CLST         362          1.0000000000
      1087       363  TIP3  OH2           4.9681982818       -4.6482362645       14.1203406945  CLST         363          1.0000000000
      1088       363  TIP3  H1            5.0240376002       -4.9960664216       14.9807207776  CLST         363          1.0000000000
      1089       363  TIP3  H2            5.7677764791       -4.1512870214       14.2606899186  CLST         363          1.0000000000
      1090       364  TIP3  OH2          -1.0503944705        4.8304654273       13.3605544070  CLST         364          1.0000000000
      1091       364  TIP3  H1           -0.1311810268        4.6522071607       13.6690116824  CLST         364          1.0000000000
      1092       364  TIP3  H2           -0.8953790904        5.7908067201       13.3801767075  CLST         364          1.0000000000
      1093       365  TIP3  OH2          -7.7602497314        4.8144088059      -11.8059424796  CLST         365          1.0000000000
      1094       365  TIP3  H1           -8.0515038185        5.0799394556      -10.9029224254  CLST         365          1.0000000000
      1095       365  TIP3  H2           -6.9247673802        5.2064317228      -11.4237936334  CLST         365          1.0000000000
      1096       366  TIP3  OH2         -10.0774122858       -2.7578225153        0.7943066434  CLST         366          1.0000000000
      1097       366  TIP3  H1          -11.1132776754       -2.2207213070        0.6508000544  CLST         366          1.0000000000
      1098       366  TIP3  H2          -10.5748029095       -2.9094406272       -0.0469920063  CLST         366          1.0000000000
      1099       367  TIP3  OH2          13.7614508604       10.5497533717       11.8880764209  CLST         367          1.0000000000
      1100       367  TIP3  H1           13.2075718110       11.1588044054       11.6624361124  CLST         367          1.0000000000
      1101       367  TIP3  H2           12.7794346138       10.6916085676       12.4415029284  CLST         367          1.0000000000
      1102       368  TIP3  OH2          -9.8490275242       -1.1768788611       12.8275344234  CLST         368          1.0000000000
      1103       368  TIP3  H1          -10.6988246494       -1.1774445180       12.4101326704  CLST         368          1.0000000000
      1104       368  TIP3  H2           -9.6904898023       -2.1256964143       12.8871565291  CLST         368          1.0000000000
      1105       369  TIP3  OH2           7.7396532005        9.5238821676       -2.4925048885  CLST         369          1.0000000000
      1106       369  TIP3  H1            8.7053265577        9.5970031878       -2.4745862929  CLST         369          1.0000000000
      1107       369  TIP3  H2            7.8007655346        8.6272273673       -2.1852697293  CLST         369          1.0000000000
      1108       370  TIP3  OH2          -6.9077568939      -12.9118105349       -0.9554239822  CLST         370          1.0000000000
      1109       370  TIP3  H1           -6.0503361742      -13.2949458705       -0.5759790427  CLST         370          1.0000000000
      1110       370  TIP3  H2           -7.1425708439      -13.1509431160       -0.0371523109  CLST         370          1.0000000000
      1111       371  TIP3  OH2           8.6162885165       12.1942249748        9.8812182290  CLST         371          1.0000000000
      1112       371  TIP3  H1            8.7112841702       11.6669004102        9.0910043869  CLST         371          1.0000000000
      1113       371  TIP3  H2            7.6676099806       12.2486073983        9.9259904354  CLST         371          1.0000000000
      1114       372  TIP3  OH2          -1.1489732843       11.6922600705       -1.9132122002  CLST         372          1.0000000000
      1115       372  TIP3  H1           -1.8584397732       11.1199354549       -2.2956053177  CLST         372          1.0000000000
      1116       372  TIP3  H2           -0.9517522612       10.8308072897       -1.4654384919  CLST         372          1.0000000000
      1117       373  TIP3  OH2           8.7999393856       -5.5074439355        8.3229877134  CLST         373          1.0000000000
      1118       373  TIP3  H1            8.9184796794       -6.3889545030        8.7086703093  CLST         373          1.0000000000
      1119       373  TIP3  H2            9.5816679081       -5.8089037503        7.8348648656  CLST         373          1.0000000000
      1120       374  TIP3  OH2          11.3042428920       -9.6904582298       -4.6066585873  CLST         374          1.0000000000
      1121       374  TIP3  H1           11.1961727220       -9.9414460135       -3.6762112893  CLST         374          1.0000000000
      1122       374  TIP3  H2           11.0271977790      -10.6071657370       -4.7884648480  CLST         374          1.0000000000
      1123       375  TIP3  OH2           1.5979272571       13.4661203248       -2.8864265640  CLST         375          1.0000000000
      1124       375  TIP3  H1            1.5289194581       14.1405781052       -2.1654941915  CLST         375          1.0000000000
      1125       375  TIP3  H2            0.7339199033       13.8850027075       -3.1162340139  CLST         375          1.0000000000
      1126       376  TIP3  OH2          10.8737355652        4.2878866698       -8.7835827915  CLST         376          1.0000000000
      1127       376  TIP3  H1            9.9140197601        4.4682316166       -8.7042374868  CLST         376          1.0000000000
      1128       376  TIP3  H2           10.9738997472        4.8474726599       -9.6018840465  CLST         376          1.0000000000
      1129       377  TIP3  OH2           8.0046379788       11.1478840412      -11.9367607948  CLST         377          1.0000000000
      1130       377  TIP3  H1            8.5659612165       10.9958158862      -12.5949132692  CLST         377          1.0000000000
      1131       377  TIP3  H2            9.0786712070       10.7115426646      -11.7482272084  CLST         377          1.0000000000
      1132       378  TIP3  OH2           6.3736775777        9.3791618315        7.4534421421  CLST         378          1.0000000000
      1133       378  TIP3  H1            6.7182418507        8.5512384397        7.8021742015  CLST         378          1.0000000000
      1134       378  TIP3  H2            5.7482492358        9.4966910688        8.1814371908  CLST         378          1.0000000000
      1135       379  TIP3  OH2          -6.7770907505      -10.6732123648       -2.2405020786  CLST         379          1.0000000000
      1136       379  TIP3  H1           -6.2677879338      -10.9178109319       -3.0271888701  CLST         379          1.0000000000
      1137       379  TIP3  H2           -6.9497102514      -11.6390300493       -2.2078299455  CLST         379          1.0000000000
      1138       380  TIP3  OH2           7.5907418695       11.5182663682        4.7800213761  CLST         380          1.0000000000
      1139       380  TIP3  H1            6.6507317491       11.7036752704        4.5838938757  CLST         380          1.0000000000
      1140       380  TIP3  H2            7.6078043679       10.9644076064        3.9937680321  CLST         380          1.0000000000
      1141       381  TIP3  OH2          -7.5927345380       -6.9317191540      -10.3316311914  CLST         381          1.0000000000
      1142       381  TIP3  H1           -8.0023941992       -6.4741657867      -11.0821352723  CLST         381          1.0000000000
      1143       381  TIP3  H2           -6.7254808548       -6.5366663609      -10.5318812730  CLST         381          1.0000000000
      1144       382  TIP3  OH2          -3.6054256285        2.3691114526       -2.1233876304  CLST         382          1.0000000000
      1145       382  TIP3  H1           -4.1823746681        2.5150255575       -2.8835205648  CLST         382          1.0000000000
      1146       382  TIP3  H2           -3.8389719979        1.4415329870       -2.3769323334  CLST         382          1.0000000000
      1147       383  TIP3  OH2          -7.5862080165       -9.3617159496        8.6094911319  CLST         383          1.0000000000
      1148       383  TIP3  H1           -6.5959230094       -9.2944967354        8.7127276639  CLST         383          1.0000000000
      1149       383  TIP3  H2           -7.2349644451      -10.0964652122        8.0469969175  CLST         383          1.0000000000
      1150       384  TIP3  OH2         -11.6751110114       -5.4335548581       13.3697137155  CLST         384          1.0000000000
      1151       384  TIP3  H1          -11.5725973948       -6.3890790924       13.4958117537  CLST         384          1.0000000000
      1152       384  TIP3  H2          -12.1861070420       -5.6077410947       12.6062358924  CLST         384          1.0000000000
      1153       385  TIP3  OH2           7.7506638166        0.4446547612        9.1063446363  CLST         385          1.0000000000
      1154       385  TIP3  H1            8.1060816772        1.3066575305        9.4821038996  CLST         385          1.0000000000
      1155       385  TIP3  H2            8.5016277120        0.5041445968        9.9442618325  CLST         385          1.0000000000
      1156       386  TIP3  OH2         -12.3907665990       -8.8178720721        8.2546151167  CLST         386          1.0000000000
      1157       386  TIP3  H1          -12.2080035671       -7.8689927599        8.3214504492  CLST         386          1.0000000000
      1158       386  TIP3  H2          -11.7594830012       -8.8205910013        8.9902827596  CLST         386          1.0000000000
      1159       387  TIP3  OH2          -0.9996974734      -12.7873793923       -1.0444602400  CLST         387          1.0000000000
      1160       387  TIP3  H1           -1.1836517957      -13.3609083967       -0.3349512683  CLST         387          1.0000000000
      1161       387  TIP3  H2           -1.6006703292      -12.1872668962       -0.2729542768  CLST         387          1.0000000000
      1162       388  TIP3  OH2           3.2920359661        7.1889353621        7.1320806396  CLST         388          1.0000000000
      1163       388  TIP3  H1            2.7973326165        7.3662817206        6.2727490550  CLST         388          1.0000000000
      1164       388  TIP3  H2            4.0000692525        7.0744497357        6.4666019734  CLST         388          1.0000000000
      1165       389  TIP3  OH2          -3.7526265800      -11.0332819891       -0.2039428547  CLST         389          1.0000000000
      1166       389  TIP3  H1           -4.6794707213      -10.7536713834       -0.3448060886  CLST         389          1.0000000000
      1167       389  TIP3  H2           -3.6895774557      -10.7248299272       -1.1601721400  CLST         389          1.0000000000
      1168       390  TIP3  OH2          -1.1157410786        4.7690828692        4.3826516929  CLST         390          1.0000000000
      1169       390  TIP3  H1           -0.5184956661        4.6046740457        5.1455524277  CLST         390          1.0000000000
      1170       390  TIP3  H2           -0.5844230923        4.2351388849        3.7288709527  CLST         390          1.0000000000
      1171       391  TIP3  OH2          -6.1461179779       -4.8556470502        1.6681398654  CLST         391          1.0000000000
      1172       391  TIP3  H1           -6.2678302990       -3.9404149074        1.4748475658  CLST         391          1.0000000000
      1173       391  TIP3  H2           -7.0472279002       -4.9436401069        1.9553436361  CLST         391          1.0000000000
      1174       392  TIP3  OH2           4.8578163235        9.1274677110       -5.3872155406  CLST         392          1.0000000000
      1175       392  TIP3  H1            5.7179081465        8.8183480514       -5.0498255356  CLST         392          1.0000000000
      1176       392  TIP3  H2            4.7798711411        9.4401713211       -4.4489810402  CLST         392          1.0000000000
      1177       393  TIP3  OH2          13.3176426783       11.1229158438       -7.9658611742  CLST         393          1.0000000000
      1178       393  TIP3  H1           13.0691411935       10.2355295705       -8.3117201924  CLST         393          1.0000000000
      1179       393  TIP3  H2           12.8122324742       10.9252056011       -7.1417045208  CLST         393          1.0000000000
      1180       394  TIP3  OH2           1.3588779065        6.8345944235        5.4161599367  CLST         394          1.0000000000
      1181       394  TIP3  H1            0.7992318860        7.0131975497        4.6088277180  CLST         394          1.0000000000
      1182       394  TIP3  H2            1.5397480890        6.0296490792        4.8586703200  CLST         394          1.0000000000
      1183       395  TIP3  OH2          -6.0494219827        7.2673566442        0.1382593210  CLST         395          1.0000000000
      1184       395  TIP3  H1           -5.7928121986        6.4373369170        0.5339178580  CLST         395          1.0000000000
      1185       395  TIP3  H2           -5.1741233461        7.5113207800        0.4000894864  CLST         395          1.0000000000
      1186       396  TIP3  OH2          -3.4755032614        9.3953729775       -2.4588864052  CLST         396          1.0000000000
      1187       396  TIP3  H1           -3.4588219327        8.6671000670       -3.1145692553  CLST         396          1.0000000000
      1188       396  TIP3  H2           -4.3943420380        9.4909713117       -2.7629997460  CLST         396          1.0000000000
      1189       397  TIP3  OH2           2.4253462630      -12.8761945730      -13.5502830324  CLST         397          1.0000000000
      1190       397  TIP3  H1            1.6580137177      -12.3275487081      -13.7118054674  CLST         397          1.0000000000
      1191       397  TIP3  H2            2.6755638881      -12.1374397404      -13.0163901853  CLST         397          1.0000000000
      1192       398  TIP3  OH2           9.1331813268       -4.7108345321        0.6707280861  CLST         398          1.0000000000
      1193       398  TIP3  H1            8.8170119066       -5.5884215569        0.3538204208  CLST         398          1.0000000000
      1194       398  TIP3  H2            8.3726139943       -4.1010677017        0.5656798607  CLST         398          1.0000000000
      1195       399  TIP3  OH2         -14.2714657836       -2.8970159151       13.1838400442  CLST         399          1.0000000000
      1196       399  TIP3  H1          -14.7691545738       -3.6674033095       13.4567966361  CLST         399          1.0000000000
      1197       399  TIP3  H2          -14.0207526636       -2.7358129714       14.0746747992  CLST         399          1.0000000000
      1198       400  TIP3  OH2         -13.3369038829        8.6152817101        4.2981423061  CLST         400          1.0000000000
      1199       400  TIP3  H1          -13.6681939774        9.1076896225        5.0743348654  CLST         400          1.0000000000
      1200       400  TIP3  H2          -13.2363164438        7.9183935843        4.9649913178  CLST         400          1.0000000000
      1201       401  TIP3  OH2           1.5602061237        5.3446760177      -13.6721542885  CLST         401          1.0000000000
      1202       401  TIP3  H1            1.6147064616        5.2525142506      -14.6443252873  CLST         401          1.0000000000
      1203       401  TIP3  H2            1.0369074227        6.1515656574      -13.7066599816  CLST         401          1.0000000000
      1204       402  TIP3  OH2          14.4624074167       -5.0047286594       14.1827747113  CLST         402          1.0000000000
      1205       402  TIP3  H1           13.8074149351       -5.7779402014       14.2182763999  CLST         402          1.0000000000
      1206       402  TIP3  H2           14.9932692638       -5.5359399510       14.7865214886  CLST         402          1.0000000000
      1207       403  TIP3  OH2         -13.1025741721       12.2339955598       -2.7477075744  CLST         403          1.0000000000
      1208       403  TIP3  H1          -13.8141672411       11.7005220453       -3.0603091985  CLST         403          1.0000000000
      1209       403  TIP3  H2          -12.9496368053       12.3369781427       -3.7167631905  CLST         403          1.0000000000
      1210       404  TIP3  OH2           5.2904715942       -3.2060974016        0.4256175744  CLST         404          1.0000000000
      1211       404  TIP3  H1            4.5282201141       -2.6793154493        0.8185245409  CLST         404          1.0000000000
      1212       404  TIP3  H2            5.3796919160       -3.3668153522        1.3898525483  CLST         404          1.0000000000
      1213       405  TIP3  OH2           2.3486765861        8.3917700706       -3.2933746853  CLST         405          1.0000000000
      1214       405  TIP3  H1            1.9677682870        9.3003618126       -3.2457253024  CLST         405          1.0000000000
      1215       405  TIP3  H2            1.3954170331        8.0721627759       -3.1075762072  CLST         405          1.0000000000
      1216       406  TIP3  OH2          -9.0396739438       -2.5494558903       -7.3382455767  CLST         406          1.0000000000
      1217       406  TIP3  H1           -8.6119200860       -1.8285561743       -6.8050135647  CLST         406          1.0000000000
      1218       406  TIP3  H2           -9.8341536076       -2.0024226379       -7.1145565044  CLST         406          1.0000000000
      1219       407  TIP3  OH2           5.4869547756        5.6939273487        4.8991007169  CLST         407          1.0000000000
      1220       407  TIP3  H1            6.3352357021        5.7966670578        5.3300780526  CLST         407          1.0000000000
      1221       407  TIP3  H2            6.0827439315        5.7520005149        4.1316015794  CLST         407          1.0000000000
      1222       408  TIP3  OH2         -14.0262673401       -4.5280211059       -5.5121800140  CLST         408          1.0000000000
      1223       408  TIP3  H1          -13.9494965695       -3.5450485493       -5.5746416140  CLST         408          1.0000000000
      1224       408  TIP3  H2          -14.1615099820       -4.6616233507       -6.4850839659  CLST         408          1.0000000000
      1225       409  TIP3  OH2          -2.1075885501      -12.8238810210        1.3426638785  CLST         409          1.0000000000
      1226       409  TIP3  H1           -2.6564556347      -13.1270211238        2.1103731706  CLST         409          1.0000000000
      1227       409  TIP3  H2           -1.6253814789      -12.2579984165        2.0349581926  CLST         409          1.0000000000
      1228       410  TIP3  OH2          12.5443434332       -2.1717065296       10.9178528299  CLST         410          1.0000000000
      1229       410  TIP3  H1           12.3512217302       -1.5202973842       10.1869908041  CLST         410          1.0000000000
      1230       410  TIP3  H2           13.0421066213       -2.6016703083       10.1911700792  CLST         410          1.0000000000
      1231       411  TIP3  OH2           8.5697685695      -13.5691794102       -2.3755532333  CLST         411          1.0000000000
      1232       411  TIP3  H1            8.5028758469      -13.8281746779       -1.4745509799  CLST         411          1.0000000000
      1233       411  TIP3  H2            7.7036177536      -13.7792115325       -2.6658904395  CLST         411          1.0000000000
      1234       412  TIP3  OH2          13.3714438664       -4.3559914841       -7.5500598190  CLST         412          1.0000000000
      1235       412  TIP3  H1           12.7090475965       -4.2814463901       -8.2508863411  CLST         412          1.0000000000
      1236       412  TIP3  H2           12.6416762407       -3.9748948957       -7.0376598457  CLST         412          1.0000000000
      1237       413  TIP3  OH2           7.3853508592        8.2959769939       -5.2190724405  CLST         413          1.0000000000
      1238       413  TIP3  H1            7.6130311855        8.1026688150       -4.3117692691  CLST         413          1.0000000000
      1239       413  TIP3  H2            8.3273919582        8.4148174714       -5.4208569200  CLST         413          1.0000000000
      1240       414  TIP3  OH2          -9.0692998888       -5.2274198507      -11.9266848626  CLST         414          1.0000000000
      1241       414  TIP3  H1           -8.4138363031       -4.4782519287      -12.1620268448  CLST         414          1.0000000000
      1242       414  TIP3  H2           -9.2971948655       -4.4928916967      -11.2965400368  CLST         414          1.0000000000
      1243       415  TIP3  OH2         -14.4652492481        0.9237097933        5.3633144295  CLST         415          1.0000000000
      1244       415  TIP3  H1          -14.7364321135        1.8294314536        5.4607542571  CLST         415          1.0000000000
      1245       415  TIP3  H2          -13.8744942208        1.0744829574        6.0636743388  CLST         415          1.0000000000
      1246       416  TIP3  OH2          11.6637378208       12.4011028923       -1.9280567998  CLST         416          1.0000000000
      1247       416  TIP3  H1           12.0355845939       12.7348531808       -2.9300869941  CLST         416          1.0000000000
      1248       416  TIP3  H2           11.1004155706       12.9571360246       -2.7202864000  CLST         416          1.0000000000
      1249       417  TIP3  OH2          10.6149435358      -12.5489499316       -5.2068737997  CLST         417          1.0000000000
      1250       417  TIP3  H1           10.1733746159      -13.1025506292       -4.5885523626  CLST         417          1.0000000000
      1251       417  TIP3  H2            9.8789321569      -12.5979571470       -5.7832614287  CLST         417          1.0000000000
      1252       418  TIP3  OH2          -1.8788463412        5.3388553343        1.0733413459  CLST         418          1.0000000000
      1253       418  TIP3  H1           -2.3531438364        5.1625774697        0.2346573887  CLST         418          1.0000000000
      1254       418  TIP3  H2           -2.8165178030        5.5880345386        1.2915612658  CLST         418          1.0000000000
      1255       419  TIP3  OH2          -8.3345322158        9.3842303366        8.1942984139  CLST         419          1.0000000000
      1256       419  TIP3  H1           -8.1088843585       10.1230776399        7.6128284101  CLST         419          1.0000000000
      1257       419  TIP3  H2           -9.1404328241        9.9536106725        8.2707148328  CLST         419          1.0000000000
      1258       420  TIP3  OH2           3.3136860720        9.1127516077      -14.1985887894  CLST         420          1.0000000000
      1259       420  TIP3  H1            4.0500317587        9.0046973113      -13.5555184098  CLST         420          1.0000000000
      1260       420  TIP3  H2            3.5006951067        8.1688417323      -14.4136776360  CLST         420          1.0000000000
      1261       421  TIP3  OH2          -4.0018055027        7.0651813958       -3.6825249649  CLST         421          1.0000000000
      1262       421  TIP3  H1           -4.7430070884        6.5101190237       -4.0519947729  CLST         421          1.0000000000
      1263       421  TIP3  H2           -3.8374989697        6.2389417474       -3.1947571288  CLST         421          1.0000000000
      1264       422  TIP3  OH2           3.0969354789      -10.5546725975       -2.5943291200  CLST         422          1.0000000000
      1265       422  TIP3  H1            2.3583776013      -10.9654415672       -2.0613721362  CLST         422          1.0000000000
      1266       422  TIP3  H2            3.2469151483      -10.1818550704       -1.6887485767  CLST         422          1.0000000000
      1267       423  TIP3  OH2          -5.5796801867        5.1741212018        1.7916569674  CLST         423          1.0000000000
      1268       423  TIP3  H1           -4.9653202540        4.3024552344        1.5856929313  CLST         423          1.0000000000
      1269       423  TIP3  H2           -4.6832030560        4.7588066440        2.3800903509  CLST         423          1.0000000000
      1270       424  TIP3  OH2          -9.6156429730        8.4828425639        4.6204486062  CLST         424          1.0000000000
      1271       424  TIP3  H1           -9.7231094868        8.7926728728        3.7184302931  CLST         424          1.0000000000
      1272       424  TIP3  H2          -10.0218105291        7.7312262962        4.1640978446  CLST         424          1.0000000000
      1273       425  TIP3  OH2          -9.7928340237        2.4910369663       -9.1339028111  CLST         425          1.0000000000
      1274       425  TIP3  H1          -10.1788035321        1.7358994034       -8.7098277262  CLST         425          1.0000000000
      1275       425  TIP3  H2          -10.5618915205        2.9592086887       -8.8398947066  CLST         425          1.0000000000
      1276       426  TIP3  OH2          -0.9111834685       -9.0161523425       -4.2816135036  CLST         426          1.0000000000
      1277       426  TIP3  H1            0.0341785417       -9.2641684652       -4.3378954989  CLST         426          1.0000000000
      1278       426  TIP3  H2           -0.9015447669       -9.1586622532       -5.2511501498  CLST         426          1.0000000000
      1279       427  TIP3  OH2          -9.8053239162        2.0239174653        5.2813698067  CLST         427          1.0000000000
      1280       427  TIP3  H1           -9.7908476078        3.0303265894        5.2736650991  CLST         427          1.0000000000
      1281       427  TIP3  H2          -10.5827999800        1.9752492155        5.8198380406  CLST         427          1.0000000000
      1282       428  TIP3  OH2          -6.6568197983       13.5927536255        6.7822214132  CLST         428          1.0000000000
      1283       428  TIP3  H1           -6.1410524889       14.3137016926        6.4628169432  CLST         428          1.0000000000
      1284       428  TIP3  H2           -6.4186482751       13.0359515805        6.0042867759  CLST         428          1.0000000000
      1285       429  TIP3  OH2           0.2083329284      -11.8342247886      -10.7623552921  CLST         429          1.0000000000
      1286       429  TIP3  H1           -0.6757989074      -12.2991307949      -10.9921350338  CLST         429          1.0000000000
      1287       429  TIP3  H2           -0.0907955039      -11.4053495879       -9.9484918507  CLST         429          1.0000000000
      1288       430  TIP3  OH2           0.6493905847        9.9684553326       10.0637494660  CLST         430          1.0000000000
      1289       430  TIP3  H1            0.0496852042       10.5195287284       10.5449854319  CLST         430          1.0000000000
      1290       430  TIP3  H2            0.9984320745        9.8797065195       10.9612629214  CLST         430          1.0000000000
      1291       431  TIP3  OH2          -6.2327993755       -3.4485600364       -3.9397042983  CLST         431          1.0000000000
      1292       431  TIP3  H1           -5.8095957025       -3.1987200479       -4.7404668285  CLST         431          1.0000000000
      1293       431  TIP3  H2           -6.7482297336       -4.0656951906       -4.5003518027  CLST         431          1.0000000000
      1294       432  TIP3  OH2          -5.2876353211        3.6109094290       -3.6995763423  CLST         432          1.0000000000
      1295       432  TIP3  H1           -6.3568300849        3.5920892500       -4.0219632813  CLST         432          1.0000000000
      1296       432  TIP3  H2           -6.1676216732        4.2812040152       -3.3976244559  CLST         432          1.0000000000
      1297       433  TIP3  OH2          -8.8855101733        3.2112163942       10.2503909368  CLST         433          1.0000000000
      1298       433  TIP3  H1           -8.0722938086        3.6533956352       10.0230653909  CLST         433          1.0000000000
      1299       433  TIP3  H2           -9.1334113099        3.9154869074       10.8391796337  CLST         433          1.0000000000
      1300       434  TIP3  OH2           0.8371851779       -4.1154865684        9.6987298255  CLST         434          1.0000000000
      1301       434  TIP3  H1            0.0687972582       -3.8992672806       10.2994866149  CLST         434          1.0000000000
      1302       434  TIP3  H2            1.2405602844       -3.2066493286        9.7471012644  CLST         434          1.0000000000
      1303       435  TIP3  OH2           7.5885885200       -8.2353058277        6.2518211279  CLST         435          1.0000000000
      1304       435  TIP3  H1            7.7064183538       -8.8416793673        5.4903206021  CLST         435          1.0000000000
      1305       435  TIP3  H2            6.9620425648       -7.6085271642        5.8684198956  CLST         435          1.0000000000
      1306       436  TIP3  OH2          -7.0381143202       14.1715981172       -1.8565520289  CLST         436          1.0000000000
      1307       436  TIP3  H1           -6.7712679425       15.0818953534       -1.8836474308  CLST         436          1.0000000000
      1308       436  TIP3  H2           -7.3834585053       14.4158476481       -1.0118749384  CLST         436          1.0000000000
      1309       437  TIP3  OH2          -0.9191700426      -13.2895329891        5.5045237657  CLST         437          1.0000000000
      1310       437  TIP3  H1           -1.6373968211      -12.6412484292        5.5911892363  CLST         437          1.0000000000
      1311       437  TIP3  H2           -0.2760089798      -12.5269249652        5.5381464859  CLST         437          1.0000000000
      1312       438  TIP3  OH2         -12.1219880418       -1.1695612136       -3.1686435405  CLST         438          1.0000000000
      1313       438  TIP3  H1          -12.0279429375       -1.8656201086       -2.5028312597  CLST         438          1.0000000000
      1314       438  TIP3  H2          -12.5810347113       -0.6889705579       -2.4709340701  CLST         438          1.0000000000
      1315       439  TIP3  OH2          -3.9429770058       -3.8467852234        3.4133801557  CLST         439          1.0000000000
      1316       439  TIP3  H1           -4.7458916944       -3.6240256584        3.9114922176  CLST         439          1.0000000000
      1317       439  TIP3  H2           -4.6376325827       -4.2922233267        2.8702486308  CLST         439          1.0000000000
      1318       440  TIP3  OH2         -10.0420092054      -11.4832808901       12.1532663449  CLST         440          1.0000000000
      1319       440  TIP3  H1          -10.4504550821      -11.4273968280       11.2653157162  CLST         440          1.0000000000
      1320       440  TIP3  H2           -9.2883835996      -11.2595055161       11.5447880339  CLST         440          1.0000000000
      1321       441  TIP3  OH2         -14.3730424629        3.5159261120        7.2186853663  CLST         441          1.0000000000
      1322       441  TIP3  H1          -14.5812471061        4.4864519429        7.3681285795  CLST         441          1.0000000000
      1323       441  TIP3  H2          -14.9953625045        3.7365624695        6.4791182490  CLST         441          1.0000000000
      1324       442  TIP3  OH2           9.3524707651        0.5460780967      -12.3838055246  CLST         442          1.0000000000
      1325       442  TIP3  H1            9.6153111611       -0.3087134423      -11.9471543994  CLST         442          1.0000000000
      1326       442  TIP3  H2           10.2167129956        0.3860659064      -12.8097066327  CLST         442          1.0000000000
      1327       443  TIP3  OH2           7.9373770760       -8.2742094639        3.7685987487  CLST         443          1.0000000000
      1328       443  TIP3  H1            8.7848724169       -7.8220930488        3.4092531632  CLST         443          1.0000000000
      1329       443  TIP3  H2            7.6718925514       -7.7482550377        2.9370919650  CLST         443          1.0000000000
      1330       444  TIP3  OH2          12.8923130244        8.3004582085       -0.2962218115  CLST         444          1.0000000000
      1331       444  TIP3  H1           13.2907266827        9.1557882490       -0.0432094862  CLST         444          1.0000000000
      1332       444  TIP3  H2           13.7005457788        7.9520062339        0.1247373968  CLST         444          1.0000000000
      1333       445  TIP3  OH2          -8.9168905631       -9.7635655743       14.2813566313  CLST         445          1.0000000000
      1334       445  TIP3  H1           -8.3518140924       -9.6412601837       13.5789094603  CLST         445          1.0000000000
      1335       445  TIP3  H2           -8.8096086474       -8.8890824298       14.5918866356  CLST         445          1.0000000000
      1336       446  TIP3  OH2          12.8656497184       10.8910298468        0.0433265565  CLST         446          1.0000000000
      1337       446  TIP3  H1           12.4331768342       11.4886549742        0.6880353663  CLST         446          1.0000000000
      1338       446  TIP3  H2           12.4405329860       11.5504327137       -0.5688292963  CLST         446          1.0000000000
      1339       447  TIP3  OH2          -3.4750871171       13.4107783247        4.9306386361  CLST         447          1.0000000000
      1340       447  TIP3  H1           -4.0296516317       14.2063697458        5.0591726325  CLST         447          1.0000000000
      1341       447  TIP3  H2           -4.2910212875       12.8664500609        4.7631744415  CLST         447          1.0000000000
      1342       448  TIP3  OH2         -10.6597333879        9.1698897087      -12.8027467760  CLST         448          1.0000000000
      1343       448  TIP3  H1          -10.0431403326        9.4814229334      -12.1909001688  CLST         448          1.0000000000
      1344       448  TIP3  H2          -10.0924401977        8.4271884217      -12.9326305688  CLST         448          1.0000000000
      1345       449  TIP3  OH2           5.1196614133       -7.8261754645       -5.8783794189  CLST         449          1.0000000000
      1346       449  TIP3  H1            5.2103732088       -8.6763446960       -5.4472416982  CLST         449          1.0000000000
      1347       449  TIP3  H2            4.6899789508       -7.5623942889       -5.0750816750  CLST         449          1.0000000000
      1348       450  TIP3  OH2           4.8905931799       10.2204661410       11.4844979951  CLST         450          1.0000000000
      1349       450  TIP3  H1            5.7778796114        9.8086275082       11.5883296144  CLST         450          1.0000000000
      1350       450  TIP3  H2            4.7127543362        9.7785316890       10.6002826033  CLST         450          1.0000000000
      1351       451  TIP3  OH2         -12.5686862877       11.1095529847      -12.6099392233  CLST         451          1.0000000000
      1352       451  TIP3  H1          -12.3384271259       11.4517689186      -13.5023517248  CLST         451          1.0000000000
      1353       451  TIP3  H2          -11.7563303080       10.5616820995      -12.8310941564  CLST         451          1.0000000000
      1354       452  TIP3  OH2          -9.9517317517       14.6349264733        1.7205655603  CLST         452          1.0000000000
      1355       452  TIP3  H1          -10.7069995425       14.1124717795        2.0682634835  CLST         452          1.0000000000
      1356       452  TIP3  H2          -10.6215558477       14.9627200049        1.1109832203  CLST         452          1.0000000000
      1357       453  TIP3  OH2          -3.1521476372       -8.5580757383      -13.5229443881  CLST         453          1.0000000000
      1358       453  TIP3  H1           -4.0664125972       -8.8475042258      -13.4056978646  CLST         453          1.0000000000
      1359       453  TIP3  H2           -3.1462575938       -9.0568653358      -14.3890889061  CLST         453          1.0000000000
      1360       454  TIP3  OH2          13.6313847246      -13.0798161797       11.2032350801  CLST         454          1.0000000000
      1361       454  TIP3  H1           14.2882512966      -13.2914687334       11.9084940996  CLST         454          1.0000000000
      1362       454  TIP3  H2           13.9909631350      -12.2042131278       11.3727347189  CLST         454          1.0000000000
      1363       455  TIP3  OH2         -13.4937243286       -9.7651287066       -4.3725300487  CLST         455          1.0000000000
      1364       455  TIP3  H1          -13.5842182745       -8.8034863162       -4.3509727026  CLST         455          1.0000000000
      1365       455  TIP3  H2          -12.6955556573       -9.5634718753       -3.8825737707  CLST         455          1.0000000000
      1366       456  TIP3  OH2          -7.9947451441        7.1332672785        6.5658380134  CLST         456          1.0000000000
      1367       456  TIP3  H1           -8.2424988516        7.8717739720        7.1856541186  CLST         456          1.0000000000
      1368       456  TIP3  H2           -8.3422241968        7.8096947593        5.8868761920  CLST         456          1.0000000000
      1369       457  TIP3  OH2          -3.9170421383      -13.0107724779        8.3484747800  CLST         457          1.0000000000
      1370       457  TIP3  H1           -3.8041061963      -13.1374248479        9.2622513184  CLST         457          1.0000000000
      1371       457  TIP3  H2           -3.0116392401      -13.2679662639        8.3010952131  CLST         457          1.0000000000
      1372       458  TIP3  OH2          -2.4487921912       12.2496633664      -11.6122834138  CLST         458          1.0000000000
      1373       458  TIP3  H1           -3.3935700162       12.4745311674      -11.6253274007  CLST         458          1.0000000000
      1374       458  TIP3  H2           -2.6510141817       11.5119982248      -12.1449997702  CLST         458          1.0000000000
      1375       459  TIP3  OH2         -13.5748975874        7.2427057679       -3.9222539188  CLST         459          1.0000000000
      1376       459  TIP3  H1          -13.5883572082        7.7790667211       -3.0694707509  CLST         459          1.0000000000
      1377       459  TIP3  H2          -13.2408774896        7.9655949330       -4.4671918610  CLST         459          1.0000000000
      1378       460  TIP3  OH2           7.2590784665        9.6761817212      -13.8990177175  CLST         460          1.0000000000
      1379       460  TIP3  H1            6.7144627964        9.7484960980      -13.0792055751  CLST         460          1.0000000000
      1380       460  TIP3  H2            6.7583808203       10.4555373241      -14.1052042219  CLST         460          1.0000000000
      1381       461  TIP3  OH2           0.3939962746        7.6510188425      -12.8620752800  CLST         461          1.0000000000
      1382       461  TIP3  H1           -0.3912312554        7.2861691171      -12.4603007270  CLST         461          1.0000000000
      1383       461  TIP3  H2            0.5829469515        8.1820941866      -12.0513618532  CLST         461          1.0000000000
      1384       462  TIP3  OH2           4.3613110557        7.8229621688      -10.2029509840  CLST         462          1.0000000000
      1385       462  TIP3  H1            3.6714538914        7.1349376679      -10.3779895771  CLST         462          1.0000000000
      1386       462  TIP3  H2            4.2118388090        7.6883856556       -9.2699354350  CLST         462          1.0000000000
      1387       463  TIP3  OH2          -1.2629364522      -11.4109231057       -8.2533496828  CLST         463          1.0000000000
      1388       463  TIP3  H1           -2.1139219624      -11.7022075042       -8.6390135213  CLST         463          1.0000000000
      1389       463  TIP3  H2           -1.6067041276      -11.6174088859       -7.3954246872  CLST         463          1.0000000000
      1390       464  TIP3  OH2          -2.1170079094        2.6026965416       14.3599285921  CLST         464          1.0000000000
      1391       464  TIP3  H1           -2.8368919937        2.5235568019       13.6721207662  CLST         464          1.0000000000
      1392       464  TIP3  H2           -2.0598432350        3.4970761567       13.9784456409  CLST         464          1.0000000000
      1393       465  TIP3  OH2         -14.6837903209        6.0201997174        8.2463946423  CLST         465          1.0000000000
      1394       465  TIP3  H1          -14.8098482459        5.7372836330        9.1460012335  CLST         465          1.0000000000
      1395       465  TIP3  H2          -14.8226902095        6.9412082718        8.4546783100  CLST         465          1.0000000000
      1396       466  TIP3  OH2          -4.1144324803      -13.3805893881        3.1188666774  CLST         466          1.0000000000
      1397       466  TIP3  H1           -4.6824116469      -14.1622621513        3.2117265564  CLST         466          1.0000000000
      1398       466  TIP3  H2           -4.9453713618      -13.0302939727        2.7271724997  CLST         466          1.0000000000
      1399       467  TIP3  OH2           4.4753953139       14.8312908379        8.1953551322  CLST         467          1.0000000000
      1400       467  TIP3  H1            5.2098109519       14.4167230515        8.6943744183  CLST         467          1.0000000000
      1401       467  TIP3  H2            4.0272022064       14.9081203899        9.0811522470  CLST         467          1.0000000000
      1402       468  TIP3  OH2          -8.5199645903       -0.8945488234        1.9615276831  CLST         468          1.0000000000
      1403       468  TIP3  H1           -8.7560172499       -1.0423709858        2.8726482314  CLST         468          1.0000000000
      1404       468  TIP3  H2           -9.2084826596       -1.4183093800        1.6138977327  CLST         468          1.0000000000
      1405       469  TIP3  OH2           7.0712113529        0.7627156815       14.5732409396  CLST         469          1.0000000000
      1406       469  TIP3  H1            6.2721228622        0.7459730427       14.0381406250  CLST         469          1.0000000000
      1407       469  TIP3  H2            7.2275324398        1.6647962672       14.2735579867  CLST         469          1.0000000000
      1408       470  TIP3  OH2           1.1145878696       11.5809718195       -8.7641423811  CLST         470          1.0000000000
      1409       470  TIP3  H1            1.5010588986       12.4489007649       -8.8130089793  CLST         470          1.0000000000
      1410       470  TIP3  H2            1.8887900634       11.3322791126       -8.2499947056  CLST         470          1.0000000000
      1411       471  TIP3  OH2           5.3743767636        5.4472968567       -2.1802903340  CLST         471          1.0000000000
      1412       471  TIP3  H1            4.7981255566        5.9508047936       -2.8209373752  CLST         471          1.0000000000
      1413       471  TIP3  H2            4.6419121065        5.8681533108       -1.6102326437  CLST         471          1.0000000000
      1414       472  TIP3  OH2           5.2898379102      -12.2774336914       -7.0460491192  CLST         472          1.0000000000
      1415       472  TIP3  H1            4.9512886626      -13.0748839608       -7.4006432320  CLST         472          1.0000000000
      1416       472  TIP3  H2            5.5793572551      -12.8666893610       -6.3357862308  CLST         472          1.0000000000
      1417       473  TIP3  OH2          -4.0113664860        2.8593058736        1.3507537179  CLST         473          1.0000000000
      1418       473  TIP3  H1           -3.0549851713        2.6821655509        1.2144600482  CLST         473          1.0000000000
      1419       473  TIP3  H2           -4.1217373937        2.1823823595        0.6500272209  CLST         473          1.0000000000
      1420       474  TIP3  OH2           8.4685020110        4.4976056700        7.7831648594  CLST         474          1.0000000000
      1421       474  TIP3  H1            7.8763858522        3.9434029182        6.9868233867  CLST         474          1.0000000000
      1422       474  TIP3  H2            8.8862683499        4.1548509444        7.1154442758  CLST         474          1.0000000000
      1423       475  TIP3  OH2           6.1635373824       -4.0424640973       -7.8144101468  CLST         475          1.0000000000
      1424       475  TIP3  H1            5.9183312402       -3.4685801435       -8.5535829137  CLST         475          1.0000000000
      1425       475  TIP3  H2            6.9574436545       -4.1946589127       -8.3179156814  CLST         475          1.0000000000
      1426       476  TIP3  OH2           3.2493749375       10.1373009086       -7.9679573566  CLST         476          1.0000000000
      1427       476  TIP3  H1            3.6480368125        9.3227038158       -7.6059503836  CLST         476          1.0000000000
      1428       476  TIP3  H2            3.2235883528       10.3114052427       -7.0132234058  CLST         476          1.0000000000
      1429       477  TIP3  OH2          -7.2516956389       -3.5127107684       -9.8414434658  CLST         477          1.0000000000
      1430       477  TIP3  H1           -6.5982618560       -2.9062972640      -10.1604746574  CLST         477          1.0000000000
      1431       477  TIP3  H2           -6.6752102020       -3.8409653081       -9.1512618937  CLST         477          1.0000000000
      1432       478  TIP3  OH2           0.7557765506       -5.1017336072      -12.6011269857  CLST         478          1.0000000000
      1433       478  TIP3  H1            1.1375636801       -6.0010116341      -12.4121571896  CLST         478          1.0000000000
      1434       478  TIP3  H2            1.3561209490       -4.8971769540      -11.8344159588  CLST         478          1.0000000000
      1435       479  TIP3  OH2           0.1853424532       -1.5292918399       -7.4505393265  CLST         479          1.0000000000
      1436       479  TIP3  H1            0.5528142028       -1.3897015453       -6.5081361402  CLST         479          1.0000000000
      1437       479  TIP3  H2            1.1377417157       -1.6232951576       -7.6685152673  CLST         479          1.0000000000
      1438       480  TIP3  OH2           5.6577993753       -0.9852716969        9.2175169417  CLST         480          1.0000000000
      1439       480  TIP3  H1            6.5597532687       -1.3077032139        9.1175421561  CLST         480          1.0000000000
      1440       480  TIP3  H2            6.0867849712       -0.1346062083        9.0196708314  CLST         480          1.0000000000
      1441       481  TIP3  OH2          -6.8038754695        2.1953241948       -5.8302778911  CLST         481          1.0000000000
      1442       481  TIP3  H1           -7.0076884711        2.9719564401       -6.4149845589  CLST         481          1.0000000000
      1443       481  TIP3  H2           -5.9094583629        2.5172492079       -6.0100928443  CLST         481          1.0000000000
      1444       482  TIP3  OH2           3.7124215788       -8.0109922549        4.2532237842  CLST         482          1.0000000000
      1445       482  TIP3  H1            4.2411582633       -7.5012232372        4.8719326209  CLST         482          1.0000000000
      1446       482  TIP3  H2            3.2314375023       -7.1289410373        4.2257330751  CLST         482          1.0000000000
      1447       483  TIP3  OH2         -15.1037045819        0.2565894636       -8.1498709987  CLST         483          1.0000000000
      1448       483  TIP3  H1          -14.7956248522       -0.6597651431       -8.1410456118  CLST         483          1.0000000000
      1449       483  TIP3  H2          -14.1908407983        0.4578445883       -7.8776362712  CLST         483          1.0000000000
      1450       484  TIP3  OH2          14.8421710703       -2.2154313153       -8.8086801880  CLST         484          1.0000000000
      1451       484  TIP3  H1           14.4036731812       -2.9418198895       -8.3522723995  CLST         484          1.0000000000
      1452       484  TIP3  H2           14.1163208091       -1.8403722870       -9.3461461508  CLST         484          1.0000000000
      1453       485  TIP3  OH2          -3.5714317813        5.5589758125        3.7640696190  CLST         485          1.0000000000
      1454       485  TIP3  H1           -2.8197260179        5.4296537214        4.3513912413  CLST         485          1.0000000000
      1455       485  TIP3  H2           -4.0632069226        5.8667029029        4.5454735976  CLST         485          1.0000000000
      1456       486  TIP3  OH2          11.3052970268       13.0113184767       -8.9483823479  CLST         486          1.0000000000
      1457       486  TIP3  H1           12.0068176477       12.4578608304       -8.5240370725  CLST         486          1.0000000000
      1458       486  TIP3  H2           11.6357999465       12.6072279783       -9.7950442630  CLST         486          1.0000000000
      1459       487  TIP3  OH2           2.2557173423       -5.8945790333        3.4181537246  CLST         487          1.0000000000
      1460       487  TIP3  H1            2.6813413656       -5.0983410295        3.8634523783  CLST         487          1.0000000000
      1461       487  TIP3  H2            1.9119520129       -5.1893919257        2.8264739420  CLST         487          1.0000000000
      1462       488  TIP3  OH2         -11.6506162582       -0.6869989185       11.0076629070  CLST         488          1.0000000000
      1463       488  TIP3  H1          -11.9522481467        0.2520401595       11.0948862357  CLST         488          1.0000000000
      1464       488  TIP3  H2          -11.1058797247       -0.2824160587       10.3119992996  CLST         488          1.0000000000
      1465       489  TIP3  OH2          -8.5291074746        7.9575912470       -4.5826580395  CLST         489          1.0000000000
      1466       489  TIP3  H1           -8.5178318888        8.4268859200       -3.7371478616  CLST         489          1.0000000000
      1467       489  TIP3  H2           -7.8561634478        7.3829700192       -4.2743780693  CLST         489          1.0000000000
      1468       490  TIP3  OH2         -11.0773349890       11.2317609485        5.1490404866  CLST         490          1.0000000000
      1469       490  TIP3  H1          -11.0250389544       10.2697123468        5.3306198512  CLST         490          1.0000000000
      1470       490  TIP3  H2          -10.7328326985       11.1273310087        4.2757667560  CLST         490          1.0000000000
      1471       491  TIP3  OH2          -1.1979918288       -9.9065815710       10.9120395643  CLST         491          1.0000000000
      1472       491  TIP3  H1           -0.5628433705       -9.7240402957       10.2389067047  CLST         491          1.0000000000
      1473       491  TIP3  H2           -0.6586690112       -9.3106194995       11.4276604280  CLST         491          1.0000000000
      1474       492  TIP3  OH2          -2.0276040437       10.2124515521        2.7579868493  CLST         492          1.0000000000
      1475       492  TIP3  H1           -1.4132173417       10.9212492463        2.7717682312  CLST         492          1.0000000000
      1476       492  TIP3  H2           -2.6054513278       10.6256154774        2.1072601685  CLST         492          1.0000000000
      1477       493  TIP3  OH2          -6.2530278079       10.3640981502       -3.0499787196  CLST         493          1.0000000000
      1478       493  TIP3  H1           -5.9734823039       10.6487450237       -3.9570301401  CLST         493          1.0000000000
      1479       493  TIP3  H2           -7.0762638567       10.8748066414       -3.3467838476  CLST         493          1.0000000000
      1480       494  TIP3  OH2         -13.9210810573       10.8149370531       12.3745261148  CLST         494          1.0000000000
      1481       494  TIP3  H1          -14.8264352029       11.0336132809       12.2059930520  CLST         494          1.0000000000
      1482       494  TIP3  H2          -13.4543629949       11.5017907716       11.9592809475  CLST         494          1.0000000000
      1483       495  TIP3  OH2           3.2171859413      -12.8312146886       13.7985665703  CLST         495          1.0000000000
      1484       495  TIP3  H1            2.8860799190      -12.8304909837       14.6716830113  CLST         495          1.0000000000
      1485       495  TIP3  H2            3.4005935090      -11.8539602900       13.7909947590  CLST         495          1.0000000000
      1486       496  TIP3  OH2         -15.1037045819        6.5113648666        0.4122078722  CLST         496          1.0000000000
      1487       496  TIP3  H1          -14.6553014086        6.5988806694        1.3097531689  CLST         496          1.0000000000
      1488       496  TIP3  H2          -14.7343951519        5.5853113535        0.5563974169  CLST         496          1.0000000000
      1489       497  TIP3  OH2         -13.3238210067       -8.7132876676        3.3145644522  CLST         497          1.0000000000
      1490       497  TIP3  H1          -14.0860903617       -8.1446972754        3.2672706667  CLST         497          1.0000000000
      1491       497  TIP3  H2          -13.7669092832       -9.2812204087        3.9454985778  CLST         497          1.0000000000
      1492       498  TIP3  OH2           4.2648913582       13.9441206570      -10.6384201302  CLST         498          1.0000000000
      1493       498  TIP3  H1            4.5603150067       13.9305574732      -11.5858292956  CLST         498          1.0000000000
      1494       498  TIP3  H2            4.9860290746       13.3647276447      -10.2893047783  CLST         498          1.0000000000
      1495       499  TIP3  OH2           1.3849806697       10.9845010779       -3.0118017566  CLST         499          1.0000000000
      1496       499  TIP3  H1            0.6003441148       11.4299004279       -2.7584592217  CLST         499          1.0000000000
      1497       499  TIP3  H2            1.8845071342       11.7137777698       -2.5999432421  CLST         499          1.0000000000
      1498       500  TIP3  OH2          -6.0591131558       -2.4550261283        4.3006936377  CLST         500          1.0000000000
      1499       500  TIP3  H1           -6.9768191503       -2.1061547202        4.1068293588  CLST         500          1.0000000000
      1500       500  TIP3  H2           -5.8310905750       -1.6882218301        3.7723848826  CLST         500          1.0000000000
      1501       501  TIP3  OH2         -12.4975126741      -13.4509603422       -6.0676255562  CLST         501          1.0000000000
      1502       501  TIP3  H1          -13.2086274958      -13.1243392583       -6.5565233201  CLST         501          1.0000000000
      1503       501  TIP3  H2          -11.8635949380      -12.7960811929       -6.3907683308  CLST         501          1.0000000000
      1504       502  TIP3  OH2          -1.4993358376       -4.0382902347      -11.6864551506  CLST         502          1.0000000000
      1505       502  TIP3  H1           -1.0584137433       -3.1885626144      -11.7439608563  CLST         502          1.0000000000
      1506       502  TIP3  H2           -0.7608973923       -4.2587311421      -12.3156025496  CLST         502          1.0000000000
      1507       503  TIP3  OH2          -0.2846192722       -4.9529662811        1.0473902374  CLST         503          1.0000000000
      1508       503  TIP3  H1            0.2500314461       -5.4078135720        0.3608104019  CLST         503          1.0000000000
      1509       503  TIP3  H2           -0.9868839077       -5.6251944532        0.8889292090  CLST         503          1.0000000000
      1510       504  TIP3  OH2          -4.1593974665       -3.6535620920       12.7008334638  CLST         504          1.0000000000
      1511       504  TIP3  H1           -4.3250913987       -4.5102700900       13.1412428793  CLST         504          1.0000000000
      1512       504  TIP3  H2           -3.9928412431       -3.1944217747       13.5269877032  CLST         504          1.0000000000
      1513       505  TIP3  OH2           5.8717197030       12.1996989719       -9.2971452244  CLST         505          1.0000000000
      1514       505  TIP3  H1            6.1162552822       11.8466286107       -8.4257033357  CLST         505          1.0000000000
      1515       505  TIP3  H2            6.8167373358       12.5187512767       -9.3358057640  CLST         505          1.0000000000
      1516       506  TIP3  OH2          -3.9385364918        3.7593026062       10.5384801853  CLST         506          1.0000000000
      1517       506  TIP3  H1           -4.7173019551        3.5494866845        9.9606052412  CLST         506          1.0000000000
      1518       506  TIP3  H2           -3.8881096404        2.8917173423       10.9588710983  CLST         506          1.0000000000
      1519       507  TIP3  OH2          -2.1360172083        7.0040475337      -12.4813386548  CLST         507          1.0000000000
      1520       507  TIP3  H1           -2.4290818142        6.1735858782      -12.1044718637  CLST         507          1.0000000000
      1521       507  TIP3  H2           -3.0137657558        7.1619612861      -12.7948381958  CLST         507          1.0000000000
      1522       508  TIP3  OH2         -11.4526919318        4.9941347677      -11.4847207277  CLST         508          1.0000000000
      1523       508  TIP3  H1          -12.3781779163        4.7488126827      -11.3368804237  CLST         508          1.0000000000
      1524       508  TIP3  H2          -11.4315565269        4.0399557503      -11.5733237450  CLST         508          1.0000000000
      1525       509  TIP3  OH2           4.8681878120        0.3909856878      -10.9652747738  CLST         509          1.0000000000
      1526       509  TIP3  H1            5.4021802083        0.6353786385      -10.2541990138  CLST         509          1.0000000000
      1527       509  TIP3  H2            5.5483752833        0.3119190860      -11.6618303326  CLST         509          1.0000000000
      1528       510  TIP3  OH2          -4.3350870610        0.3071311233       -3.6249393521  CLST         510          1.0000000000
      1529       510  TIP3  H1           -4.4081627002       -0.3984638798       -4.5599469302  CLST         510          1.0000000000
      1530       510  TIP3  H2           -3.7630019226        0.3031763109       -4.2117869194  CLST         510          1.0000000000
      1531       511  TIP3  OH2         -10.6053697354        1.7245376805       -1.0213628127  CLST         511          1.0000000000
      1532       511  TIP3  H1          -11.1484384228        2.2190127853       -0.3762045798  CLST         511          1.0000000000
      1533       511  TIP3  H2          -11.2458297473        1.0493069068       -0.7275937507  CLST         511          1.0000000000
      1534       512  TIP3  OH2          -3.2241251638       -8.0980452094       -8.6194997398  CLST         512          1.0000000000
      1535       512  TIP3  H1           -2.5995083696       -8.6442794802       -9.1798264037  CLST         512          1.0000000000
      1536       512  TIP3  H2           -2.9635252671       -7.3949025647       -9.2751013131  CLST         512          1.0000000000
      1537       513  TIP3  OH2           9.6555099201       13.9287926111       11.5366569982  CLST         513          1.0000000000
      1538       513  TIP3  H1            9.4121417541       14.7866392463       11.1618982024  CLST         513          1.0000000000
      1539       513  TIP3  H2            9.3786874496       13.6071098714       10.6435461214  CLST         513          1.0000000000
      1540       514  TIP3  OH2          -4.7435276018        7.6319737955      -12.8518621581  CLST         514          1.0000000000
      1541       514  TIP3  H1           -5.3393185425        7.7551173696      -13.6126956498  CLST         514          1.0000000000
      1542       514  TIP3  H2           -5.4859111823        8.0486175363      -12.3685163806  CLST         514          1.0000000000
      1543       515  TIP3  OH2           6.0326211321        6.1989913360       -6.0371277696  CLST         515          1.0000000000
      1544       515  TIP3  H1            5.6918326766        6.0400051741       -5.1185734555  CLST         515          1.0000000000
      1545       515  TIP3  H2            6.6845134322        6.7053645991       -5.4865407777  CLST         515          1.0000000000
      1546       516  TIP3  OH2           9.5773615274        0.1104343646       -8.0168070479  CLST         516          1.0000000000
      1547       516  TIP3  H1           10.5196236525        0.1540072383       -7.8051162434  CLST         516          1.0000000000
      1548       516  TIP3  H2            9.4906241624        1.0621950499       -8.0074034241  CLST         516          1.0000000000
      1549       517  TIP3  OH2          14.0943141841       -7.2328033676       -8.9494407565  CLST         517          1.0000000000
      1550       517  TIP3  H1           14.7523646963       -6.5867519386       -8.5490472370  CLST         517          1.0000000000
      1551       517  TIP3  H2           14.7625643618       -7.8853192963       -8.6800378067  CLST         517          1.0000000000
      1552       518  TIP3  OH2          -0.6916625860       12.0970653593       -5.9321133120  CLST         518          1.0000000000
      1553       518  TIP3  H1            0.2227473017       12.0247293231       -5.6563411601  CLST         518          1.0000000000
      1554       518  TIP3  H2           -0.5878080454       12.9504574145       -5.4415237837  CLST         518          1.0000000000
      1555       519  TIP3  OH2           0.7816140920        5.0436300520        1.1012549111  CLST         519          1.0000000000
      1556       519  TIP3  H1            0.2683778813        4.3205354221        0.7176002263  CLST         519          1.0000000000
      1557       519  TIP3  H2           -0.0957031808        5.4328870654        1.1661222249  CLST         519          1.0000000000
      1558       520  TIP3  OH2           6.8180669229        6.7255133923      -10.5949908115  CLST         520          1.0000000000
      1559       520  TIP3  H1            5.9541614847        7.0649196650      -10.7302017910  CLST         520          1.0000000000
      1560       520  TIP3  H2            6.9127990415        7.4396230999       -9.9671713078  CLST         520          1.0000000000
      1561       521  TIP3  OH2          -5.7434286359       10.1547744871        9.4389605690  CLST         521          1.0000000000
      1562       521  TIP3  H1           -4.8781112633       10.2900405170        9.8091367079  CLST         521          1.0000000000
      1563       521  TIP3  H2           -5.3706020188       10.5579460249        8.6580664816  CLST         521          1.0000000000
      1564       522  TIP3  OH2           3.1436535746        3.9221154607        2.2018551032  CLST         522          1.0000000000
      1565       522  TIP3  H1            2.2616505846        4.2103680119        1.8330669937  CLST         522          1.0000000000
      1566       522  TIP3  H2            3.2197988468        3.6703987132        1.2288193390  CLST         522          1.0000000000
      1567       523  TIP3  OH2           8.3378534267        0.6930780816       -3.5888181658  CLST         523          1.0000000000
      1568       523  TIP3  H1            7.3360920522        0.7086914031       -3.6280861338  CLST         523          1.0000000000
      1569       523  TIP3  H2            8.4355746894        0.0068290184       -4.2338868310  CLST         523          1.0000000000
      1570       524  TIP3  OH2          -5.3254383852        5.4737898701      -10.7946384391  CLST         524          1.0000000000
      1571       524  TIP3  H1           -4.9058366651        6.2588738282      -11.1734060243  CLST         524          1.0000000000
      1572       524  TIP3  H2           -4.4235794127        5.0851418721      -10.8683199512  CLST         524          1.0000000000
      1573       525  TIP3  OH2          -5.7614185452        5.8022078635       -8.0667960650  CLST         525          1.0000000000
      1574       525  TIP3  H1           -5.1157864573        6.5460296774       -8.2310490711  CLST         525          1.0000000000
      1575       525  TIP3  H2           -5.6052120964        5.5823150886       -8.9985412099  CLST         525          1.0000000000
      1576       526  TIP3  OH2           9.4574852118      -11.1004699792      -12.9238293210  CLST         526          1.0000000000
      1577       526  TIP3  H1            9.6182631051      -10.6412259848      -13.7664047834  CLST         526          1.0000000000
      1578       526  TIP3  H2            8.5422085783      -11.0441037653      -13.3257117934  CLST         526          1.0000000000
      1579       527  TIP3  OH2         -11.4771562202       -3.2541407434       -1.5408549367  CLST         527          1.0000000000
      1580       527  TIP3  H1          -12.0272523908       -3.9479482567       -1.9758314477  CLST         527          1.0000000000
      1581       527  TIP3  H2          -10.7682308302       -3.7036424637       -2.0028773221  CLST         527          1.0000000000
      1582       528  TIP3  OH2           4.4992499787      -12.0041165047      -11.1509917296  CLST         528          1.0000000000
      1583       528  TIP3  H1            4.1972289725      -11.0453559247      -11.1530244667  CLST         528          1.0000000000
      1584       528  TIP3  H2            5.3583942956      -11.5558426951      -11.1252527744  CLST         528          1.0000000000
      1585       529  TIP3  OH2          -5.9907441295       -7.1187469114       -4.7632441658  CLST         529          1.0000000000
      1586       529  TIP3  H1           -5.3649460974       -7.8224933920       -4.9670102732  CLST         529          1.0000000000
      1587       529  TIP3  H2           -5.6983529537       -6.7136234160       -5.5636797862  CLST         529          1.0000000000
      1588       530  TIP3  OH2           3.0045299770       -5.8334623391        6.4624921880  CLST         530          1.0000000000
      1589       530  TIP3  H1            2.5468327937       -6.3482774839        7.1848970232  CLST         530          1.0000000000
      1590       530  TIP3  H2            2.0835425069       -5.8002208444        6.0315919167  CLST         530          1.0000000000
      1591       531  TIP3  OH2          -3.3647435076       -3.2434575296      -15.1030037746  CLST         531          1.0000000000
      1592       531  TIP3  H1           -4.1346516228       -2.7502969821      -14.8011609615  CLST         531          1.0000000000
      1593       531  TIP3  H2           -2.9130893591       -2.8567564197      -14.3640982899  CLST         531          1.0000000000
      1594       532  TIP3  OH2          -1.2179096243       -3.6015016545       -2.0167763661  CLST         532          1.0000000000
      1595       532  TIP3  H1           -1.8209068317       -2.8600118025       -2.2417363693  CLST         532          1.0000000000
      1596       532  TIP3  H2           -1.6843596738       -3.5789899463       -1.1620572927  CLST         532          1.0000000000
      1597       533  TIP3  OH2          -3.2151269713       13.3714965059        7.8309706046  CLST         533          1.0000000000
      1598       533  TIP3  H1           -3.9090508131       13.9000008929        7.3636271718  CLST         533          1.0000000000
      1599       533  TIP3  H2           -3.9668881927       12.7136839914        7.8145999217  CLST         533          1.0000000000
      1600       534  TIP3  OH2           7.0146842472       -4.3752713962       -5.2595167011  CLST         534          1.0000000000
      1601       534  TIP3  H1            6.1203249605       -4.2259381527       -4.8529879790  CLST         534          1.0000000000
      1602       534  TIP3  H2            6.4768580920       -4.1976061589       -6.0729514176  CLST         534          1.0000000000
      1603       535  TIP3  OH2           7.1514390828       -3.8649682777      -11.4607699158  CLST         535          1.0000000000
      1604       535  TIP3  H1            6.3859246876       -3.3391602526      -11.0839629728  CLST         535          1.0000000000
      1605       535  TIP3  H2            7.1318489742       -4.1900746068      -10.5362830519  CLST         535          1.0000000000
      1606       536  TIP3  OH2          14.5098157281        8.1449524760       10.8196943284  CLST         536          1.0000000000
      1607       536  TIP3  H1           14.3226374197        9.0463452578       11.1670960145  CLST         536          1.0000000000
      1608       536  TIP3  H2           14.8917979647        8.6547243188       10.0553622288  CLST         536          1.0000000000
      1609       537  TIP3  OH2           4.7098419167       -4.5379702682       -3.7252608196  CLST         537          1.0000000000
      1610       537  TIP3  H1            3.8252009369       -4.9001818548       -3.5885182001  CLST         537          1.0000000000
      1611       537  TIP3  H2            4.9089229554       -5.4924614826       -3.7140039297  CLST         537          1.0000000000
      1612       538  TIP3  OH2          -0.5020886149        7.5390484360       13.1408400194  CLST         538          1.0000000000
      1613       538  TIP3  H1           -1.2193156336        7.7388306732       12.5143077969  CLST         538          1.0000000000
      1614       538  TIP3  H2           -0.4596235675        8.4843428238       13.2691748491  CLST         538          1.0000000000
      1615       539  TIP3  OH2           6.2235610963        8.8418328673        1.2654623536  CLST         539          1.0000000000
      1616       539  TIP3  H1            6.7040294775        8.1577003645        0.8022759129  CLST         539          1.0000000000
      1617       539  TIP3  H2            5.6614099827        8.0773227533        1.5237393911  CLST         539          1.0000000000
      1618       540  TIP3  OH2          12.0553711825       -1.2286547385       -3.9624798896  CLST         540          1.0000000000
      1619       540  TIP3  H1           12.8496894952       -0.6685385235       -3.9924385253  CLST         540          1.0000000000
      1620       540  TIP3  H2           12.2684725128       -1.2681277928       -3.0121749600  CLST         540          1.0000000000
      1621       541  TIP3  OH2          10.4252268078        7.3930005324        8.5905558533  CLST         541          1.0000000000
      1622       541  TIP3  H1           10.5832999605        7.6939742643        9.5017736802  CLST         541          1.0000000000
      1623       541  TIP3  H2           10.9983304832        6.6539475684        8.9373791394  CLST         541          1.0000000000
      1624       542  TIP3  OH2          13.3090996740        0.6643331808       -5.1249964154  CLST         542          1.0000000000
      1625       542  TIP3  H1           12.5308558864        0.9755402990       -5.6461775247  CLST         542          1.0000000000
      1626       542  TIP3  H2           13.7349117166        0.7949968907       -5.9753037458  CLST         542          1.0000000000
      1627       543  TIP3  OH2          10.0488284222       -6.2945819041        5.6980133300  CLST         543          1.0000000000
      1628       543  TIP3  H1           10.3748570554       -6.6894350548        4.8548833346  CLST         543          1.0000000000
      1629       543  TIP3  H2            9.5339118404       -5.6588499473        5.1554154183  CLST         543          1.0000000000
      1630       544  TIP3  OH2           6.8848639406        4.4213318489      -12.3240009722  CLST         544          1.0000000000
      1631       544  TIP3  H1            7.3592297439        3.8687603883      -11.6588333786  CLST         544          1.0000000000
      1632       544  TIP3  H2            6.7226422617        4.9875217882      -11.5513051996  CLST         544          1.0000000000
      1633       545  TIP3  OH2         -11.9990551273        2.0932622235        7.3245967290  CLST         545          1.0000000000
      1634       545  TIP3  H1          -12.7880640729        2.7115589595        7.4382998411  CLST         545          1.0000000000
      1635       545  TIP3  H2          -11.7061870093        2.6170462949        8.0852055267  CLST         545          1.0000000000
      1636       546  TIP3  OH2          -1.0284674939       11.9574534596       10.7233165650  CLST         546          1.0000000000
      1637       546  TIP3  H1           -0.6391326842       12.5949099489       10.1144604610  CLST         546          1.0000000000
      1638       546  TIP3  H2           -0.4129633383       12.3380592473       11.3211627936  CLST         546          1.0000000000
      1639       547  TIP3  OH2          -1.9289126118        7.1265117818        5.8532124468  CLST         547          1.0000000000
      1640       547  TIP3  H1           -2.1243688324        6.6095286849        6.6675390530  CLST         547          1.0000000000
      1641       547  TIP3  H2           -1.3965816517        6.4068327803        5.4947258988  CLST         547          1.0000000000
      1642       548  TIP3  OH2           2.8386688253       -7.9763968013       12.4630437838  CLST         548          1.0000000000
      1643       548  TIP3  H1            2.4816983894       -7.0546645418       12.4546331447  CLST         548          1.0000000000
      1644       548  TIP3  H2            3.7684220322       -7.5924039522       12.3295158541  CLST         548          1.0000000000
      1645       549  TIP3  OH2          -6.6183202714       14.5363787358        3.1303136978  CLST         549          1.0000000000
      1646       549  TIP3  H1           -7.2701089681       15.0715745172        3.4529251113  CLST         549          1.0000000000
      1647       549  TIP3  H2           -6.5852718720       13.8623463243        3.8449173141  CLST         549          1.0000000000
      1648       550  TIP3  OH2          -7.7401083784        4.4934163773       -4.1081380531  CLST         550          1.0000000000
      1649       550  TIP3  H1           -8.5931714084        3.7943756662       -4.1664869210  CLST         550          1.0000000000
      1650       550  TIP3  H2           -8.3878379021        4.6349963143       -3.5526254471  CLST         550          1.0000000000
      1651       551  TIP3  OH2          -2.2558046663      -13.5681169397       -3.3624532584  CLST         551          1.0000000000
      1652       551  TIP3  H1           -1.6966201739      -13.1842975140       -2.6694168052  CLST         551          1.0000000000
      1653       551  TIP3  H2           -2.9836187874      -13.4041173946       -2.7825677846  CLST         551          1.0000000000
      1654       552  TIP3  OH2          -2.3183033631       -7.7224984136       13.7110359232  CLST         552          1.0000000000
      1655       552  TIP3  H1           -2.4551567357       -8.6182407867       14.0395138765  CLST         552          1.0000000000
      1656       552  TIP3  H2           -1.7311871505       -7.9284673617       12.9905244381  CLST         552          1.0000000000
      1657       553  TIP3  OH2           8.1667953919      -13.9346888595        0.2664039170  CLST         553          1.0000000000
      1658       553  TIP3  H1            8.6384744363      -13.2358705622        0.7422468484  CLST         553          1.0000000000
      1659       553  TIP3  H2            8.4929597432      -14.5518535421        0.9672056892  CLST         553          1.0000000000
      1660       554  TIP3  OH2          -9.1325113495      -12.1838433700       -3.7184431710  CLST         554          1.0000000000
      1661       554  TIP3  H1           -9.1436425997      -11.6031466972       -2.9524357352  CLST         554          1.0000000000
      1662       554  TIP3  H2          -10.0058645556      -12.5617899248       -3.3973228293  CLST         554          1.0000000000
      1663       555  TIP3  OH2         -11.1153789587       -5.2590357466       -7.4870875516  CLST         555          1.0000000000
      1664       555  TIP3  H1          -11.0045669398       -4.2885813508       -7.3058169013  CLST         555          1.0000000000
      1665       555  TIP3  H2          -11.1996695513       -5.3526566849       -6.5279360959  CLST         555          1.0000000000
      1666       556  TIP3  OH2         -10.6138857144       11.2106301535       13.5608847897  CLST         556          1.0000000000
      1667       556  TIP3  H1          -11.1931653792       10.4334129382       13.7178922531  CLST         556          1.0000000000
      1668       556  TIP3  H2           -9.8054420263       10.6706383605       13.3729330171  CLST         556          1.0000000000
      1669       557  TIP3  OH2          -2.5243542066       -6.6540494925        1.2519564262  CLST         557          1.0000000000
      1670       557  TIP3  H1           -2.6570446299       -6.8857163163        2.2075348494  CLST         557          1.0000000000
      1671       557  TIP3  H2           -2.5341749543       -7.6140197187        1.1361923707  CLST         557          1.0000000000
      1672       558  TIP3  OH2         -10.4025988965        6.3915074219        2.9704409274  CLST         558          1.0000000000
      1673       558  TIP3  H1          -10.1919517651        5.7245866830        3.7008596763  CLST         558          1.0000000000
      1674       558  TIP3  H2           -9.8223169066        5.8474431985        2.4092957966  CLST         558          1.0000000000
      1675       559  TIP3  OH2           1.0165570413        2.5086179664       -0.0906057249  CLST         559          1.0000000000
      1676       559  TIP3  H1            1.4647338505        2.9464525285       -0.8134433289  CLST         559          1.0000000000
      1677       559  TIP3  H2            1.5005617515        1.7179544996       -0.4090267629  CLST         559          1.0000000000
      1678       560  TIP3  OH2          12.6565431606      -11.7387384647        1.1662132158  CLST         560          1.0000000000
      1679       560  TIP3  H1           12.5577257409      -12.6638316156        0.5002658891  CLST         560          1.0000000000
      1680       560  TIP3  H2           11.8040818497      -12.5034437460        1.1825919351  CLST         560          1.0000000000
      1681       561  TIP3  OH2         -12.8127027989        8.7433963282      -10.8528353658  CLST         561          1.0000000000
      1682       561  TIP3  H1          -11.9723034742        8.7247795594      -11.3737081916  CLST         561          1.0000000000
      1683       561  TIP3  H2          -12.2168539610        8.5302596121      -10.1182222307  CLST         561          1.0000000000
      1684       562  TIP3  OH2           9.7726274717        6.8249961000       13.2104529076  CLST         562          1.0000000000
      1685       562  TIP3  H1           10.2316813915        7.2612134091       13.9577026191  CLST         562          1.0000000000
      1686       562  TIP3  H2           10.0107381443        6.0153354131       13.6648494361  CLST         562          1.0000000000
      1687       563  TIP3  OH2           3.1016751709      -10.3415424317       -6.7324593637  CLST         563          1.0000000000
      1688       563  TIP3  H1            4.0179273070      -10.6776125530       -6.6158323616  CLST         563          1.0000000000
      1689       563  TIP3  H2            2.8341009717      -11.1839284968       -7.0451035855  CLST         563          1.0000000000
      1690       564  TIP3  OH2           4.7576532218      -13.3638415886       -2.8984416780  CLST         564          1.0000000000
      1691       564  TIP3  H1            5.1706056790      -13.6808982870       -3.6938910028  CLST         564          1.0000000000
      1692       564  TIP3  H2            3.9661286068      -13.0446713674       -3.3026327266  CLST         564          1.0000000000
      1693       565  TIP3  OH2           1.3428683082       12.3060830328        0.5339386621  CLST         565          1.0000000000
      1694       565  TIP3  H1            1.0020034046       11.4722845169        0.1705728888  CLST         565          1.0000000000
      1695       565  TIP3  H2            2.1969516951       12.1620867936        0.0147934111  CLST         565          1.0000000000
      1696       566  TIP3  OH2          -8.8276265548        5.5807205802        0.9512836901  CLST         566          1.0000000000
      1697       566  TIP3  H1           -8.9552413707        5.0898942228        0.2703065161  CLST         566          1.0000000000
      1698       566  TIP3  H2           -8.8618463249        6.0184853443       -0.1426514403  CLST         566          1.0000000000
      1699       567  TIP3  OH2          12.2554952856        0.1500450593       -8.3202804872  CLST         567          1.0000000000
      1700       567  TIP3  H1           13.2713693882        0.2078178188       -8.3330372905  CLST         567          1.0000000000
      1701       567  TIP3  H2           12.4550163595       -0.5630495503       -9.0279355679  CLST         567          1.0000000000
      1702       568  TIP3  OH2           8.8191037671       -7.1615375789       11.4382726403  CLST         568          1.0000000000
      1703       568  TIP3  H1            9.6442616016       -7.0880511213       11.9160689897  CLST         568          1.0000000000
      1704       568  TIP3  H2            8.9821870105       -6.2252006732       11.1651109118  CLST         568          1.0000000000
      1705       569  TIP3  OH2          -8.5081107309       -6.3365299017        3.7091513710  CLST         569          1.0000000000
      1706       569  TIP3  H1           -8.7138442027       -6.0338808010        2.8137283527  CLST         569          1.0000000000
      1707       569  TIP3  H2           -9.3541388487       -6.7581640587        3.5795261209  CLST         569          1.0000000000
      1708       570  TIP3  OH2           6.1382103023       11.6872345049       15.1037045819  CLST         570          1.0000000000
      1709       570  TIP3  H1            5.2684893801       11.7313054286       14.7250861031  CLST         570          1.0000000000
      1710       570  TIP3  H2            6.4339515626       12.1197350351       14.2820245290  CLST         570          1.0000000000
      1711       571  TIP3  OH2           9.5954242609        1.0887071872        4.5690709478  CLST         571          1.0000000000
      1712       571  TIP3  H1            8.6937787334        1.4461040894        4.6842164010  CLST         571          1.0000000000
      1713       571  TIP3  H2            9.1350305706        0.5130716003        3.8560623030  CLST         571          1.0000000000
      1714       572  TIP3  OH2           5.1573272127        0.2991983708        2.3916425418  CLST         572          1.0000000000
      1715       572  TIP3  H1            5.2168599126       -0.6136236665        2.6290069811  CLST         572          1.0000000000
      1716       572  TIP3  H2            6.0665109356        0.3389205987        2.0704938899  CLST         572          1.0000000000
      1717       573  TIP3  OH2          -1.7770028168       -6.5962862135       -6.4702849929  CLST         573          1.0000000000
      1718       573  TIP3  H1           -1.2390516531       -7.3593510555       -6.6741959229  CLST         573          1.0000000000
      1719       573  TIP3  H2           -2.3621616130       -6.9553367532       -7.1818812621  CLST         573          1.0000000000
      1720       574  TIP3  OH2          -9.8465429027        0.7986782400        9.6565286581  CLST         574          1.0000000000
      1721       574  TIP3  H1           -9.8262237042        1.7923575013        9.6881220264  CLST         574          1.0000000000
      1722       574  TIP3  H2           -9.0730709383        0.9448022234        9.1013376528  CLST         574          1.0000000000
      1723       575  TIP3  OH2          -3.9411902075       10.8383578815        0.9132434250  CLST         575          1.0000000000
      1724       575  TIP3  H1           -4.0915258599       11.3445187296        0.0655617568  CLST         575          1.0000000000
      1725       575  TIP3  H2           -4.7281833411       11.2962167430        1.2342095063  CLST         575          1.0000000000
      1726       576  TIP3  OH2          -3.3332573251       -2.4502590390        6.2931325173  CLST         576          1.0000000000
      1727       576  TIP3  H1           -3.7493358780       -1.6296073389        5.9475393290  CLST         576          1.0000000000
      1728       576  TIP3  H2           -3.2438250615       -2.6458805136        5.3238904780  CLST         576          1.0000000000
      1729       577  TIP3  OH2         -12.0995570101       11.3452746534        8.5498178500  CLST         577          1.0000000000
      1730       577  TIP3  H1          -11.8729718593       12.2127183996        8.8449800204  CLST         577          1.0000000000
      1731       577  TIP3  H2          -11.5682526572       11.4193458176        7.7871751142  CLST         577          1.0000000000
      1732       578  TIP3  OH2          -1.6770857378        0.9727693700        5.3790324979  CLST         578          1.0000000000
      1733       578  TIP3  H1           -2.5654014985        1.3547937667        5.2989459022  CLST         578          1.0000000000
      1734       578  TIP3  H2           -1.7954509534        1.0778364662        6.3208136624  CLST         578          1.0000000000
      1735       579  TIP3  OH2          -6.4307831702       11.7709139315        1.5567027187  CLST         579          1.0000000000
      1736       579  TIP3  H1           -6.6279067168       12.4384983311        0.9169560997  CLST         579          1.0000000000
      1737       579  TIP3  H2           -6.9671788686       11.1016532930        1.1207645335  CLST         579          1.0000000000
      1738       580  TIP3  OH2          11.1712706280        3.4928943273       -3.3459557130  CLST         580          1.0000000000
      1739       580  TIP3  H1           10.7394959395        2.7174273417       -2.9697289666  CLST         580          1.0000000000
      1740       580  TIP3  H2           11.6249806302        3.4817929723       -2.4607213804  CLST         580          1.0000000000
      1741       581  TIP3  OH2          12.9457492036      -11.7541619512        3.5968595214  CLST         581          1.0000000000
      1742       581  TIP3  H1           13.4232981355      -11.8547603724        2.7284540313  CLST         581          1.0000000000
      1743       581  TIP3  H2           13.8457578917      -11.9734041386        3.9012861410  CLST         581          1.0000000000
      1744       582  TIP3  OH2           6.2491128485       10.7489007104       -7.0373791750  CLST         582          1.0000000000
      1745       582  TIP3  H1            5.5721699726       10.3026849678       -6.5298048830  CLST         582          1.0000000000
      1746       582  TIP3  H2            6.6054338195       11.0631808962       -6.1738244725  CLST         582          1.0000000000
      1747       583  TIP3  OH2          -2.6065840852        4.5007564371      -11.1423736294  CLST         583          1.0000000000
      1748       583  TIP3  H1           -3.0848007116        3.6446320187      -11.4069491823  CLST         583          1.0000000000
      1749       583  TIP3  H2           -1.8567817521        3.9217762088      -11.4431747084  CLST         583          1.0000000000
      1750       584  TIP3  OH2           2.3450617074       -4.0349141367      -10.1022186977  CLST         584          1.0000000000
      1751       584  TIP3  H1            3.2085635576       -4.4666833058      -10.2720447938  CLST         584          1.0000000000
      1752       584  TIP3  H2            2.9539714190       -3.3443065754       -9.8842855845  CLST         584          1.0000000000
      1753       585  TIP3  OH2         -14.0076358136        1.0276711108       -1.9168532638  CLST         585          1.0000000000
      1754       585  TIP3  H1          -13.9050499350        1.7943330847       -2.5330828711  CLST         585          1.0000000000
      1755       585  TIP3  H2          -14.9160388207        0.8422892925       -2.1123599285  CLST         585          1.0000000000
      1756       586  TIP3  OH2          -7.4750925378        8.5216640332       10.3975657353  CLST         586          1.0000000000
      1757       586  TIP3  H1           -7.1306280544        8.9442111307        9.6064007198  CLST         586          1.0000000000
      1758       586  TIP3  H2           -7.1071353173        7.7405893133        9.9795686847  CLST         586          1.0000000000
      1759       587  TIP3  OH2           4.7178099431        4.5161167947       -9.9308312749  CLST         587          1.0000000000
      1760       587  TIP3  H1            3.8541016497        4.8812293219       -9.6482321004  CLST         587          1.0000000000
      1761       587  TIP3  H2            4.3436726805        4.5812995330      -10.7890524895  CLST         587          1.0000000000
      1762       588  TIP3  OH2           4.9300050653       -9.6791961099      -14.1425996275  CLST         588          1.0000000000
      1763       588  TIP3  H1            4.5069406241       -9.8047934503      -14.9831104239  CLST         588          1.0000000000
      1764       588  TIP3  H2            4.3067423452       -9.4008766451      -13.5008905699  CLST         588          1.0000000000
      1765       589  TIP3  OH2           0.3148172257      -14.1568490240        3.2725352885  CLST         589          1.0000000000
      1766       589  TIP3  H1           -0.4136992354      -14.7164256073        2.9206775068  CLST         589          1.0000000000
      1767       589  TIP3  H2           -0.2970646620      -14.0835320323        4.0491053029  CLST         589          1.0000000000
      1768       590  TIP3  OH2           2.4613209405        1.9750595743       -8.3056580089  CLST         590          1.0000000000
      1769       590  TIP3  H1            1.8220679360        2.7261097381       -8.4400194852  CLST         590          1.0000000000
      1770       590  TIP3  H2            2.1799830454        1.9196602389       -9.2683815474  CLST         590          1.0000000000
      1771       591  TIP3  OH2         -12.9457356008        0.8949055472       -6.7041957097  CLST         591          1.0000000000
      1772       591  TIP3  H1          -12.0375728521        0.8744364090       -6.3668086620  CLST         591          1.0000000000
      1773       591  TIP3  H2          -12.9761053452        1.8086057783       -6.4520812314  CLST         591          1.0000000000
      1774       592  TIP3  OH2          -4.0977658825       -3.7187871256       -6.1747113499  CLST         592          1.0000000000
      1775       592  TIP3  H1           -3.2687405567       -3.6576309631       -6.6310892398  CLST         592          1.0000000000
      1776       592  TIP3  H2           -4.5806103648       -4.2118778783       -6.9205173822  CLST         592          1.0000000000
      1777       593  TIP3  OH2          -1.6019967124        5.2640676198       -4.6654990818  CLST         593          1.0000000000
      1778       593  TIP3  H1           -1.0825570093        6.0398947091       -4.3420545897  CLST         593          1.0000000000
      1779       593  TIP3  H2           -0.9542278774        5.3221896544       -5.3813093397  CLST         593          1.0000000000
      1780       594  TIP3  OH2          11.2842702012       10.4128799670       13.4174593300  CLST         594          1.0000000000
      1781       594  TIP3  H1           11.3281375848        9.6028832302       14.1954945307  CLST         594          1.0000000000
      1782       594  TIP3  H2           10.5677980609       10.2453875582       14.0466793191  CLST         594          1.0000000000
      1783       595  TIP3  OH2          -9.3348868414       13.4377468030        4.5522279528  CLST         595          1.0000000000
      1784       595  TIP3  H1           -9.5283326093       13.9878328940        3.8426542881  CLST         595          1.0000000000
      1785       595  TIP3  H2           -9.3032718607       12.6584837620        4.0237330910  CLST         595          1.0000000000
      1786       596  TIP3  OH2         -14.0213985451       -0.7065889845        8.8252958984  CLST         596          1.0000000000
      1787       596  TIP3  H1          -14.2406331693       -1.6379151737        8.8975570214  CLST         596          1.0000000000
      1788       596  TIP3  H2          -13.2857967499       -0.8609389931        8.1958985974  CLST         596          1.0000000000
      1789       597  TIP3  OH2          -3.0639272384       -5.4749215781       -4.3940931135  CLST         597          1.0000000000
      1790       597  TIP3  H1           -2.7169710991       -5.9737764856       -5.1338198640  CLST         597          1.0000000000
      1791       597  TIP3  H2           -3.3961409545       -4.8575563519       -5.0305126600  CLST         597          1.0000000000
      1792       598  TIP3  OH2          -8.1541518670       -9.4559195534       -9.2388106470  CLST         598          1.0000000000
      1793       598  TIP3  H1           -8.9993148990       -9.8920585068       -9.3572357196  CLST         598          1.0000000000
      1794       598  TIP3  H2           -8.3295218349       -8.8422908082       -9.9793156415  CLST         598          1.0000000000
      1795       599  TIP3  OH2          11.9628615459        0.0673634573      -12.8958687260  CLST         599          1.0000000000
      1796       599  TIP3  H1           12.4210316650        0.7541543509      -13.4090421382  CLST         599          1.0000000000
      1797       599  TIP3  H2           11.9950628889       -0.4112559212      -13.7408103792  CLST         599          1.0000000000
      1798       600  TIP3  OH2          14.2050178957       -9.5578828645        1.7143886510  CLST         600          1.0000000000
      1799       600  TIP3  H1           14.9750495617      -10.0345308929        1.4546225548  CLST         600          1.0000000000
      1800       600  TIP3  H2           13.7763916913      -10.3514329807        1.2894709956  CLST         600          1.0000000000
      1801       601  TIP3  OH2          -2.2294479355       13.1724176010       -8.3467026177  CLST         601          1.0000000000
      1802       601  TIP3  H1           -1.5751676945       13.0875022751       -7.6833739784  CLST         601          1.0000000000
      1803       601  TIP3  H2           -1.6365651827       13.6737451269       -8.8741212340  CLST         601          1.0000000000
      1804       602  TIP3  OH2          13.9861986307       -3.0692657052        8.6877124855  CLST         602          1.0000000000
      1805       602  TIP3  H1           13.2148796116       -2.7950014551        8.1445137124  CLST         602          1.0000000000
      1806       602  TIP3  H2           14.1697132176       -3.6553911827        7.9848292808  CLST         602          1.0000000000
      1807       603  TIP3  OH2          -8.2283922792       -9.4789023059      -12.2496101203  CLST         603          1.0000000000
      1808       603  TIP3  H1           -8.9851942091       -8.9202611712      -12.2719145031  CLST         603          1.0000000000
      1809       603  TIP3  H2           -8.6479550252      -10.3440166206      -12.0579593112  CLST         603          1.0000000000
      1810       604  TIP3  OH2           0.2482026241       -7.9771418829       12.2186332586  CLST         604          1.0000000000
      1811       604  TIP3  H1            0.6162837576       -7.0610285850       12.0560066647  CLST         604          1.0000000000
      1812       604  TIP3  H2            1.0269348462       -8.1306177673       12.7751412105  CLST         604          1.0000000000
      1813       605  TIP3  OH2           9.9042401314        8.2401506124        3.8045163044  CLST         605          1.0000000000
      1814       605  TIP3  H1            9.2903455217        8.8936722028        3.4546155298  CLST         605          1.0000000000
      1815       605  TIP3  H2           10.4419043343        9.0552220875        3.7885532867  CLST         605          1.0000000000
      1816       606  TIP3  OH2           0.8082598163        8.7600556546       -6.4561151599  CLST         606          1.0000000000
      1817       606  TIP3  H1            1.2146825251        9.6040785105       -6.1623826716  CLST         606          1.0000000000
      1818       606  TIP3  H2           -0.0196465037        9.1420717031       -6.0550503785  CLST         606          1.0000000000
      1819       607  TIP3  OH2          -4.8705767640        1.4416977539      -14.1995456803  CLST         607          1.0000000000
      1820       607  TIP3  H1           -5.9463439789        1.6148711719      -14.1596954692  CLST         607          1.0000000000
      1821       607  TIP3  H2           -5.6594192847        0.9328313866      -14.8272255352  CLST         607          1.0000000000
      1822       608  TIP3  OH2          -2.3958753914       -0.3572070629      -11.5203370175  CLST         608          1.0000000000
      1823       608  TIP3  H1           -1.4891043675        0.0375335785      -11.4853225420  CLST         608          1.0000000000
      1824       608  TIP3  H2           -2.3827812208        0.2566805773      -12.2866152687  CLST         608          1.0000000000
      1825       609  TIP3  OH2           3.8332279093        8.2387418758        2.9404744993  CLST         609          1.0000000000
      1826       609  TIP3  H1            4.2464754362        8.4370603171        3.7685291908  CLST         609          1.0000000000
      1827       609  TIP3  H2            4.4207356616        7.4865880168        2.9483183282  CLST         609          1.0000000000
      1828       610  TIP3  OH2          -7.8660164485       -8.9708177105       11.1565825064  CLST         610          1.0000000000
      1829       610  TIP3  H1           -7.4891463756       -9.8302381361       10.7600924697  CLST         610          1.0000000000
      1830       610  TIP3  H2           -7.0619560584       -8.5913600784       11.4025658499  CLST         610          1.0000000000
      1831       611  TIP3  OH2          13.9146498822       -4.2551455488        6.3789586268  CLST         611          1.0000000000
      1832       611  TIP3  H1           14.4856333239       -4.9361859083        5.9838477141  CLST         611          1.0000000000
      1833       611  TIP3  H2           14.0476910583       -3.7759916316        5.5561030410  CLST         611          1.0000000000
      1834       612  TIP3  OH2          -8.9758145838      -10.7306263166        6.1449316254  CLST         612          1.0000000000
      1835       612  TIP3  H1           -8.2172331913      -10.3240109054        5.7475060885  CLST         612          1.0000000000
      1836       612  TIP3  H2           -9.4913721507      -10.0298893547        5.6527998919  CLST         612          1.0000000000
      1837       613  TIP3  OH2           2.5542715508       -2.1919212069       14.5561993197  CLST         613          1.0000000000
      1838       613  TIP3  H1            2.4574752739       -3.0307810838       14.0653043745  CLST         613          1.0000000000
      1839       613  TIP3  H2            1.7351028544       -1.8473330880       14.0991395545  CLST         613          1.0000000000
      1840       614  TIP3  OH2           1.1902455150        4.6535144003       -9.0039122657  CLST         614          1.0000000000
      1841       614  TIP3  H1            1.7545691777        4.7852806770       -8.2373200282  CLST         614          1.0000000000
      1842       614  TIP3  H2            1.0874048872        5.6090648929       -8.9303771373  CLST         614          1.0000000000
      1843       615  TIP3  OH2           1.1807732154        4.4408556969        7.1475855644  CLST         615          1.0000000000
      1844       615  TIP3  H1            1.7906373685        4.9789218282        7.5883269435  CLST         615          1.0000000000
      1845       615  TIP3  H2            1.6416162270        4.6162173299        6.3428441088  CLST         615          1.0000000000
      1846       616  TIP3  OH2          -7.8155938940        4.3166653236       -7.3680333037  CLST         616          1.0000000000
      1847       616  TIP3  H1           -8.3729575656        4.6785709378       -8.1712602019  CLST         616          1.0000000000
      1848       616  TIP3  H2           -7.1702410459        4.7820053721       -7.8949021445  CLST         616          1.0000000000
      1849       617  TIP3  OH2          14.8688678384        2.2498689414       11.6853855349  CLST         617          1.0000000000
      1850       617  TIP3  H1           14.7077551139        1.3380632857       11.9864748350  CLST         617          1.0000000000
      1851       617  TIP3  H2           13.9733273547        2.4952709211       11.8828804527  CLST         617          1.0000000000
      1852       618  TIP3  OH2          -7.0628145858        3.2378756852        2.7097490457  CLST         618          1.0000000000
      1853       618  TIP3  H1           -6.9649445698        4.1303455604        2.3593390088  CLST         618          1.0000000000
      1854       618  TIP3  H2           -6.6822267161        3.4691012069        3.5957589609  CLST         618          1.0000000000
      1855       619  TIP3  OH2           1.3006114894        5.4843678771       -2.4961256622  CLST         619          1.0000000000
      1856       619  TIP3  H1            0.5888008601        4.8453272300       -2.5755665256  CLST         619          1.0000000000
      1857       619  TIP3  H2            0.6778784154        6.2190156383       -2.7141603038  CLST         619          1.0000000000
      1858       620  TIP3  OH2          -3.5718400858        8.5883669707       -5.8376042145  CLST         620          1.0000000000
      1859       620  TIP3  H1           -3.6848359993        7.8300129739       -5.2610623355  CLST         620          1.0000000000
      1860       620  TIP3  H2           -3.7569351190        8.0909047578       -6.6502420567  CLST         620          1.0000000000
      1861       621  TIP3  OH2           0.9298452234        7.3579311751       -8.7828499121  CLST         621          1.0000000000
      1862       621  TIP3  H1            1.1348046947        8.0242382666       -8.0914711138  CLST         621          1.0000000000
      1863       621  TIP3  H2            0.7999923181        7.9915732834       -9.5321903458  CLST         621          1.0000000000
      1864       622  TIP3  OH2           1.9206066206       10.5212470226        3.8533068964  CLST         622          1.0000000000
      1865       622  TIP3  H1            2.4444372380       10.1787427769        4.6067996393  CLST         622          1.0000000000
      1866       622  TIP3  H2            1.2090595391       10.0710942859        4.3752669707  CLST         622          1.0000000000
      1867       623  TIP3  OH2          -0.1493634907       12.1449977298        2.8146028298  CLST         623          1.0000000000
      1868       623  TIP3  H1            0.5795473446       12.2774208330        2.1722092002  CLST         623          1.0000000000
      1869       623  TIP3  H2            0.6275353658       11.6267379950        3.1961337950  CLST         623          1.0000000000
      1870       624  TIP3  OH2          -9.1561887714       -1.7562701694       -3.8368764377  CLST         624          1.0000000000
      1871       624  TIP3  H1           -8.8472221419       -1.1940692974       -4.5414091784  CLST         624          1.0000000000
      1872       624  TIP3  H2           -9.9625514524       -1.2126884480       -3.7744987166  CLST         624          1.0000000000
      1873       625  TIP3  OH2          -9.7136436063      -12.9877542678       -9.0032760360  CLST         625          1.0000000000
      1874       625  TIP3  H1           -9.9588336852      -12.3350939653       -8.2757961582  CLST         625          1.0000000000
      1875       625  TIP3  H2           -9.2898037794      -13.4531441526       -8.2599364862  CLST         625          1.0000000000
      1876       626  TIP3  OH2          13.3947875076       -5.6365066053       -2.7802885219  CLST         626          1.0000000000
      1877       626  TIP3  H1           12.7836770261       -6.2630628153       -3.1687466487  CLST         626          1.0000000000
      1878       626  TIP3  H2           13.7733387670       -5.6178702806       -3.6550326112  CLST         626          1.0000000000
      1879       627  TIP3  OH2          -1.0374873528      -11.3017138448        7.8651157046  CLST         627          1.0000000000
      1880       627  TIP3  H1           -0.0865673921      -11.4137058875        8.2066781861  CLST         627          1.0000000000
      1881       627  TIP3  H2           -0.9050228494      -12.2963884251        7.8423594987  CLST         627          1.0000000000
      1882       628  TIP3  OH2           6.9082969911        8.9712318997       -9.0260440282  CLST         628          1.0000000000
      1883       628  TIP3  H1            6.6419849437        9.8236763618       -9.4113764058  CLST         628          1.0000000000
      1884       628  TIP3  H2            6.6985216735        9.4707032910       -8.2207671875  CLST         628          1.0000000000
      1885       629  TIP3  OH2          -9.9234067926       -0.2445203403       -9.7951934900  CLST         629          1.0000000000
      1886       629  TIP3  H1           -9.0228445079       -0.0391780557      -10.1764621247  CLST         629          1.0000000000
      1887       629  TIP3  H2           -9.4373138688       -1.0918416714       -9.6914684471  CLST         629          1.0000000000
      1888       630  TIP3  OH2          11.6927806079       12.1695094373       11.8096813399  CLST         630          1.0000000000
      1889       630  TIP3  H1           11.0655314778       12.9031396820       11.6444271614  CLST         630          1.0000000000
      1890       630  TIP3  H2           10.8982838587       11.8459503535       12.2929665860  CLST         630          1.0000000000
      1891       631  TIP3  OH2         -12.1207581418      -11.4006477733      -11.5654069291  CLST         631          1.0000000000
      1892       631  TIP3  H1          -12.3606877484      -11.3674874307      -12.4952603053  CLST         631          1.0000000000
      1893       631  TIP3  H2          -12.4641394034      -12.2816332523      -11.3559637674  CLST         631          1.0000000000
      1894       632  TIP3  OH2          10.9950156763        2.1926304420        9.4059355995  CLST         632          1.0000000000
      1895       632  TIP3  H1           11.6666520309        1.7844512606        9.9948157169  CLST         632          1.0000000000
      1896       632  TIP3  H2           11.1910451610        1.4223537623        8.8714994848  CLST         632          1.0000000000
      1897       633  TIP3  OH2          -4.5430346528        6.4223143051       10.3954398126  CLST         633          1.0000000000
      1898       633  TIP3  H1           -4.2515455552        5.5028067413       10.5312604455  CLST         633          1.0000000000
      1899       633  TIP3  H2           -5.3397541891        6.0325125514       10.0166152703  CLST         633          1.0000000000
      1900       634  TIP3  OH2          -2.5445773182       -7.1773027291        6.7257254108  CLST         634          1.0000000000
      1901       634  TIP3  H1           -2.5666296746       -8.0363844905        7.1581636343  CLST         634          1.0000000000
      1902       634  TIP3  H2           -2.1529628776       -6.8000119571        7.5360129241  CLST         634          1.0000000000
      1903       635  TIP3  OH2           2.7622506241        2.7860847998       -2.0691072016  CLST         635          1.0000000000
      1904       635  TIP3  H1            2.6326974065        3.5568614642       -2.6951961437  CLST         635          1.0000000000
      1905       635  TIP3  H2            2.4778893288        2.2856116492       -2.9095385788  CLST         635          1.0000000000
      1906       636  TIP3  OH2           5.1240452467       -2.5803627191      -10.0099729993  CLST         636          1.0000000000
      1907       636  TIP3  H1            4.6543646710       -2.0739021083      -10.7596326299  CLST         636          1.0000000000
      1908       636  TIP3  H2            5.1059148297       -1.6310027777       -9.6987837830  CLST         636          1.0000000000
      1909       637  TIP3  OH2           3.6566660732       11.1559603603      -10.5364631399  CLST         637          1.0000000000
      1910       637  TIP3  H1            4.3445583645       11.4981643490       -9.9637261116  CLST         637          1.0000000000
      1911       637  TIP3  H2            3.4275183775       10.6749490424       -9.7236541712  CLST         637          1.0000000000
      1912       638  TIP3  OH2           8.9357293210      -12.1309998276       -7.1843801578  CLST         638          1.0000000000
      1913       638  TIP3  H1            8.5133151047      -12.5634691612       -7.9861922132  CLST         638          1.0000000000
      1914       638  TIP3  H2            9.5512035639      -11.8318102799       -7.8971180118  CLST         638          1.0000000000
      1915       639  TIP3  OH2           7.4932750724      -13.5276011162       -9.1462277309  CLST         639          1.0000000000
      1916       639  TIP3  H1            6.5344408773      -13.7580232961       -9.2053785235  CLST         639          1.0000000000
      1917       639  TIP3  H2            7.6144689205      -14.4794772419       -9.2137458730  CLST         639          1.0000000000
      1918       640  TIP3  OH2          -9.8228941990       -3.2348347504      -10.1581403221  CLST         640          1.0000000000
      1919       640  TIP3  H1           -8.9643835206       -3.3065247156       -9.6974413572  CLST         640          1.0000000000
      1920       640  TIP3  H2          -10.0415565126       -3.1288634938       -9.2220992580  CLST         640          1.0000000000
      1921       641  TIP3  OH2         -13.9168164822       -2.9279977543      -13.4257539433  CLST         641          1.0000000000
      1922       641  TIP3  H1          -13.6003274535       -3.6918532984      -13.3044345504  CLST         641          1.0000000000
      1923       641  TIP3  H2          -12.7869626866       -3.0764560005      -13.2177660730  CLST         641          1.0000000000
      1924       642  TIP3  OH2          -1.8891129192        1.7711950825       10.9771246626  CLST         642          1.0000000000
      1925       642  TIP3  H1           -1.0728192581        1.7127689857       11.4682191609  CLST         642          1.0000000000
      1926       642  TIP3  H2           -2.3133410713        1.7008990300       11.8093820553  CLST         642          1.0000000000
      1927       643  TIP3  OH2         -14.0713215128       -2.7784723003        3.5640171017  CLST         643          1.0000000000
      1928       643  TIP3  H1          -13.5992719790       -2.2596113426        4.2488746953  CLST         643          1.0000000000
      1929       643  TIP3  H2          -14.8321761611       -2.3140635526        3.9667924998  CLST         643          1.0000000000
      1930       644  TIP3  OH2          12.8409768582       -2.8973911036        1.0772575772  CLST         644          1.0000000000
      1931       644  TIP3  H1           13.6092477625       -2.3244128552        1.2333073886  CLST         644          1.0000000000
      1932       644  TIP3  H2           13.3930947674       -3.5082547088        0.5475059322  CLST         644          1.0000000000
      1933       645  TIP3  OH2          -6.7899191276        6.3236158779        8.9752996048  CLST         645          1.0000000000
      1934       645  TIP3  H1           -7.2171482937        6.4568729587        8.1298937734  CLST         645          1.0000000000
      1935       645  TIP3  H2           -6.6772627263        5.3589145282        8.8155934866  CLST         645          1.0000000000
      1936       646  TIP3  OH2           6.8504297747      -11.2364047151       11.7306085172  CLST         646          1.0000000000
      1937       646  TIP3  H1            6.0231469801      -11.2830207047       11.2413534992  CLST         646          1.0000000000
      1938       646  TIP3  H2            7.0212628624      -12.1635225975       11.4590480705  CLST         646          1.0000000000
      1939       647  TIP3  OH2         -13.0670844029       -9.1569178291       -7.5288216255  CLST         647          1.0000000000
      1940       647  TIP3  H1          -13.5904261488       -9.3199700801       -6.6896390457  CLST         647          1.0000000000
      1941       647  TIP3  H2          -12.3402371854       -9.3550576245       -6.8608703245  CLST         647          1.0000000000
      1942       648  TIP3  OH2         -13.8563134752        3.3571037975       -6.3621167372  CLST         648          1.0000000000
      1943       648  TIP3  H1          -14.7583050257        3.6224911223       -6.1472194926  CLST         648          1.0000000000
      1944       648  TIP3  H2          -13.6894640030        3.2722979017       -5.3554174800  CLST         648          1.0000000000
      1945       649  TIP3  OH2          -1.7111894921       -3.4200098994       -7.3543012887  CLST         649          1.0000000000
      1946       649  TIP3  H1           -0.8940759794       -2.9271668873       -7.4083212938  CLST         649          1.0000000000
      1947       649  TIP3  H2           -1.2395807350       -4.1513187296       -7.8112610359  CLST         649          1.0000000000
      1948       650  TIP3  OH2          -4.5957538289       -3.3887336151      -11.8990704089  CLST         650          1.0000000000
      1949       650  TIP3  H1           -3.6640290593       -3.3130021628      -11.6468726559  CLST         650          1.0000000000
      1950       650  TIP3  H2           -4.6062020123       -2.4916041767      -11.5416720829  CLST         650          1.0000000000
      1951       651  TIP3  OH2           1.1764158135       -4.3338715273       14.1454278177  CLST         651          1.0000000000
      1952       651  TIP3  H1            0.2375419883       -4.6715582250       14.1762264496  CLST         651          1.0000000000
      1953       651  TIP3  H2            1.2999959715       -4.3383084026       15.1037045819  CLST         651          1.0000000000
      1954       652  TIP3  OH2           2.3593483635       -9.0685326275       10.0971292724  CLST         652          1.0000000000
      1955       652  TIP3  H1            2.3222848286       -8.4564283176       10.8655909693  CLST         652          1.0000000000
      1956       652  TIP3  H2            2.2221586711       -8.2539869388        9.5442030439  CLST         652          1.0000000000
      1957       653  TIP3  OH2          13.6327615484        1.1116968669       -2.4789457880  CLST         653          1.0000000000
      1958       653  TIP3  H1           12.6192271621        0.9912348620       -2.6144387554  CLST         653          1.0000000000
      1959       653  TIP3  H2           13.5529811225        1.2501316353       -3.4528793175  CLST         653          1.0000000000
      1960       654  TIP3  OH2          -5.8071534217        8.9031559261       12.9549494375  CLST         654          1.0000000000
      1961       654  TIP3  H1           -4.9416999770        9.2995284720       13.2614481979  CLST         654          1.0000000000
      1962       654  TIP3  H2           -5.6274047852        8.6098965134       12.0989653647  CLST         654          1.0000000000
      1963       655  TIP3  OH2          -3.9621618616        1.4654786697       12.5554273074  CLST         655          1.0000000000
      1964       655  TIP3  H1           -4.1866925366        0.5958730537       12.1442628877  CLST         655          1.0000000000
      1965       655  TIP3  H2           -4.7328718671        1.1603958491       13.1025232953  CLST         655          1.0000000000
      1966       656  TIP3  OH2         -14.1635657545       -4.3008223159      -10.7087564581  CLST         656          1.0000000000
      1967       656  TIP3  H1          -15.0192793254       -4.0165873895      -11.0509389336  CLST         656          1.0000000000
      1968       656  TIP3  H2          -14.0700928891       -4.7198688450      -11.5711979300  CLST         656          1.0000000000
      1969       657  TIP3  OH2           4.6496041736       -1.1274728270        5.2398604247  CLST         657          1.0000000000
      1970       657  TIP3  H1            5.2004272913       -0.4207143314        5.6064716665  CLST         657          1.0000000000
      1971       657  TIP3  H2            3.9738622825       -0.8121223843        5.8536400776  CLST         657          1.0000000000
      1972       658  TIP3  OH2         -14.0743018843       -7.1213990023       -4.7704658886  CLST         658          1.0000000000
      1973       658  TIP3  H1          -13.9004597742       -6.3836169358       -5.3593370663  CLST         658          1.0000000000
      1974       658  TIP3  H2          -14.9717103718       -7.0638237727       -5.1287915433  CLST         658          1.0000000000
      1975       659  TIP3  OH2           9.4527824554      -13.2054904320        9.7442486212  CLST         659          1.0000000000
      1976       659  TIP3  H1            8.9467890717      -12.6284229381        9.1551572650  CLST         659          1.0000000000
      1977       659  TIP3  H2            8.6133141627      -13.6978682888        9.9346058665  CLST         659          1.0000000000
      1978       660  TIP3  OH2         -14.5216366501       -8.8795305989        6.5322447080  CLST         660          1.0000000000
      1979       660  TIP3  H1          -14.9995462725       -9.6419503482        6.9484311732  CLST         660          1.0000000000
      1980       660  TIP3  H2          -13.9525863136       -8.9290834138        7.3347400487  CLST         660          1.0000000000
      1981       661  TIP3  OH2           2.9141919655        0.9297451532       -4.7332706617  CLST         661          1.0000000000
      1982       661  TIP3  H1            2.3377072471        1.6454462983       -5.0235647615  CLST         661          1.0000000000
      1983       661  TIP3  H2            2.3013251774        0.1583244150       -4.7951335290  CLST         661          1.0000000000
      1984       662  TIP3  OH2          -8.6904432504       -5.1392472852        1.2618257258  CLST         662          1.0000000000
      1985       662  TIP3  H1           -9.3877019782       -5.4634008194        0.6236305008  CLST         662          1.0000000000
      1986       662  TIP3  H2           -9.1311611408       -4.2516688363        1.0850202091  CLST         662          1.0000000000
      1987       663  TIP3  OH2           6.1595969542       -1.9923540622        3.3668183450  CLST         663          1.0000000000
      1988       663  TIP3  H1            5.9020029870       -1.8791076483        4.2692846308  CLST         663          1.0000000000
      1989       663  TIP3  H2            5.9223336515       -2.9173653387        3.3314225263  CLST         663          1.0000000000
      1990       664  TIP3  OH2          10.4242478715      -14.3350000110        2.5826092536  CLST         664          1.0000000000
      1991       664  TIP3  H1            9.9288587665      -13.8959857332        3.3035838529  CLST         664          1.0000000000
      1992       664  TIP3  H2           10.1310619978      -15.1037045819        3.1091295652  CLST         664          1.0000000000
      1993       665  TIP3  OH2           9.4829310580       10.3759251709      -13.9977184126  CLST         665          1.0000000000
      1994       665  TIP3  H1            9.0886756629        9.4565290436      -13.8723051302  CLST         665          1.0000000000
      1995       665  TIP3  H2            8.7360462428       10.4066753842      -14.6506204541  CLST         665          1.0000000000
      1996       666  TIP3  OH2         -11.5145525997       -7.7062783537       -9.1273458705  CLST         666          1.0000000000
      1997       666  TIP3  H1          -11.3178453026       -7.7279591281       -8.1758803660  CLST         666          1.0000000000
      1998       666  TIP3  H2          -12.4267972432       -7.9211263377       -8.8320522380  CLST         666          1.0000000000
      1999       667  TIP3  OH2         -11.0040841167        5.3696194331        7.8554849712  CLST         667          1.0000000000
      2000       667  TIP3  H1          -11.3436290208        4.8226392301        8.5454791194  CLST         667          1.0000000000
      2001       667  TIP3  H2          -10.7481780205        6.0084231501        8.5454622648  CLST         667          1.0000000000
      2002       668  TIP3  OH2         -12.8280585594       -0.0614896453        0.2315751200  CLST         668          1.0000000000
      2003       668  TIP3  H1          -13.3850257786        0.2579986422        0.9407414790  CLST         668          1.0000000000
      2004       668  TIP3  H2          -13.5032674372        0.3066368364       -0.3363184478  CLST         668          1.0000000000
      2005       669  TIP3  OH2          -3.6021997370      -11.6297694458        5.1933641811  CLST         669          1.0000000000
      2006       669  TIP3  H1           -3.7883433465      -12.1521218843        4.4179687461  CLST         669          1.0000000000
      2007       669  TIP3  H2           -3.8404651238      -10.9143070973        4.5920500847  CLST         669          1.0000000000
      2008       670  TIP3  OH2          -6.3448931475       -2.2121624317        1.3349492273  CLST         670          1.0000000000
      2009       670  TIP3  H1           -7.1270804302       -1.6939425581        1.1698341292  CLST         670          1.0000000000
      2010       670  TIP3  H2           -5.8818178542       -1.6019200498        0.7366787557  CLST         670          1.0000000000
      2011       671  TIP3  OH2           3.9814272523       -9.2217072239      -11.0006552326  CLST         671          1.0000000000
      2012       671  TIP3  H1            3.6256659046       -8.9813602407      -10.1435515192  CLST         671          1.0000000000
      2013       671  TIP3  H2            4.8794951051       -8.8676664371      -11.1079621760  CLST         671          1.0000000000
      2014       672  TIP3  OH2          11.9531633688      -12.7414000855        9.1304610866  CLST         672          1.0000000000
      2015       672  TIP3  H1           11.2548889260      -13.2513368900        9.6476474300  CLST         672          1.0000000000
      2016       672  TIP3  H2           12.5650203953      -13.0998723678        9.7971809707  CLST         672          1.0000000000
      2017       673  TIP3  OH2           6.7548122427       -4.3928526475        6.9476523105  CLST         673          1.0000000000
      2018       673  TIP3  H1            7.3337119577       -3.6232201810        6.7209241200  CLST         673          1.0000000000
      2019       673  TIP3  H2            7.5152035459       -4.6966718911        7.4360833969  CLST         673          1.0000000000
      2020       674  TIP3  OH2          -4.2954074305       -0.7704254141        2.9861700091  CLST         674          1.0000000000
      2021       674  TIP3  H1           -3.5032842923       -1.5758414905        3.2068940919  CLST         674          1.0000000000
      2022       674  TIP3  H2           -4.1767938965       -1.4514806745        2.5379952307  CLST         674          1.0000000000
      2023       675  TIP3  OH2          -9.3591546806        2.2812748809       -3.5190801603  CLST         675          1.0000000000
      2024       675  TIP3  H1           -8.6953178118        1.6227794975       -3.1776838347  CLST         675          1.0000000000
      2025       675  TIP3  H2           -9.7773658077        2.0813162436       -2.6365659623  CLST         675          1.0000000000
      2026       676  TIP3  OH2         -13.4236838208       -0.1504999528      -13.7411185068  CLST         676          1.0000000000
      2027       676  TIP3  H1          -13.5799252363       -1.1105962816      -13.5992951525  CLST         676          1.0000000000
      2028       676  TIP3  H2          -13.0931213837        0.1235942144      -12.8911723679  CLST         676          1.0000000000
      2029       677  TIP3  OH2           1.6957791149      -12.1947210920        2.3097725300  CLST         677          1.0000000000
      2030       677  TIP3  H1            1.8129690419      -12.2487531466        1.3681238409  CLST         677          1.0000000000
      2031       677  TIP3  H2            1.3381131729      -13.0660343875        2.3674613179  CLST         677          1.0000000000
      2032       678  TIP3  OH2          11.3567940940       -7.0457941872       -8.5254946728  CLST         678          1.0000000000
      2033       678  TIP3  H1           12.3265349246       -7.0445210709       -8.6368614637  CLST         678          1.0000000000
      2034       678  TIP3  H2           11.4824929468       -6.2095221106       -9.0345065028  CLST         678          1.0000000000
      2035       679  TIP3  OH2           7.4798599653       -9.9088248914      -14.1879588419  CLST         679          1.0000000000
      2036       679  TIP3  H1            7.1928868447       -9.1106401994      -14.6843199563  CLST         679          1.0000000000
      2037       679  TIP3  H2            6.5647904769      -10.2170605575      -14.3984623510  CLST         679          1.0000000000
      2038       680  TIP3  OH2           9.8846163513       -8.0928854330       -1.7373907222  CLST         680          1.0000000000
      2039       680  TIP3  H1            9.9940322517       -9.1003707034       -1.8008954689  CLST         680          1.0000000000
      2040       680  TIP3  H2            9.3880403252       -8.1918384591       -2.5485914551  CLST         680          1.0000000000
      2041       681  TIP3  OH2           7.4922332584        9.2534006769       11.2665816386  CLST         681          1.0000000000
      2042       681  TIP3  H1            7.6608232752        8.3197690819       11.0408208866  CLST         681          1.0000000000
      2043       681  TIP3  H2            8.3688836612        9.3809147172       10.8776966977  CLST         681          1.0000000000
      2044       682  TIP3  OH2           7.9009633688       14.2248679408        1.8478981956  CLST         682          1.0000000000
      2045       682  TIP3  H1            7.1412545788       13.9437645849        1.3601749816  CLST         682          1.0000000000
      2046       682  TIP3  H2            7.3223214541       14.6809604402        2.4630791718  CLST         682          1.0000000000
      2047       683  TIP3  OH2           3.5807894088       11.6881047865      -14.9885961059  CLST         683          1.0000000000
      2048       683  TIP3  H1            3.0186250631       11.9041018110      -14.2753244790  CLST         683          1.0000000000
      2049       683  TIP3  H2            3.4483860031       10.8200366193      -14.6409247073  CLST         683          1.0000000000
      2050       684  TIP3  OH2          12.5205645775        3.0960016013      -12.3219757539  CLST         684          1.0000000000
      2051       684  TIP3  H1           11.9713214554        2.5647667638      -11.7776135145  CLST         684          1.0000000000
      2052       684  TIP3  H2           13.0995562514        3.2480781540      -11.5777240842  CLST         684          1.0000000000
      2053       685  TIP3  OH2           3.7857555450       13.4573987135        2.4024507771  CLST         685          1.0000000000
      2054       685  TIP3  H1            3.8379335056       12.4798922216        2.3238132448  CLST         685          1.0000000000
      2055       685  TIP3  H2            3.1663999375       13.3971049732        1.6716219258  CLST         685          1.0000000000
      2056       686  TIP3  OH2          -1.7971998897      -11.9806183092       -5.5978538708  CLST         686          1.0000000000
      2057       686  TIP3  H1           -1.9795949867      -12.4430914430       -4.7643800982  CLST         686          1.0000000000
      2058       686  TIP3  H2           -2.3770096754      -12.6371475371       -6.0363414745  CLST         686          1.0000000000
      2059       687  TIP3  OH2           2.2609144398       10.9736115527       -5.6019025552  CLST         687          1.0000000000
      2060       687  TIP3  H1            2.0772095519       10.9520015256       -4.6702298869  CLST         687          1.0000000000
      2061       687  TIP3  H2            2.9996556175       11.5234464449       -5.3156265992  CLST         687          1.0000000000
      2062       688  TIP3  OH2          -4.6505439085       -1.2385316633      -10.2926603156  CLST         688          1.0000000000
      2063       688  TIP3  H1           -4.0845307357       -0.7266014660       -9.4289876520  CLST         688          1.0000000000
      2064       688  TIP3  H2           -3.7886660963       -0.7335595784      -10.4661899911  CLST         688          1.0000000000
      2065       689  TIP3  OH2         -11.5108728700       -2.5744777495       -7.5247331242  CLST         689          1.0000000000
      2066       689  TIP3  H1          -12.1740395480       -2.2869753677       -6.8678850834  CLST         689          1.0000000000
      2067       689  TIP3  H2          -12.0724797153       -2.1680835495       -8.2101273458  CLST         689          1.0000000000
      2068       690  TIP3  OH2           9.1588843952      -12.4408299840        4.0326570689  CLST         690          1.0000000000
      2069       690  TIP3  H1            9.6855390679      -12.3294670676        4.9056613935  CLST         690          1.0000000000
      2070       690  TIP3  H2            9.7993890609      -11.7810720980        3.6833985578  CLST         690          1.0000000000
      2071       691  TIP3  OH2          -0.6060938200       10.2757636918       13.6268930509  CLST         691          1.0000000000
      2072       691  TIP3  H1           -0.3695981058       11.1300652406       13.3086784085  CLST         691          1.0000000000
      2073       691  TIP3  H2            0.0020285964       10.4062273500       14.3718047303  CLST         691          1.0000000000
      2074       692  TIP3  OH2           1.3997304472       -6.8880305213        8.5272368276  CLST         692          1.0000000000
      2075       692  TIP3  H1            0.4064142205       -6.8822910055        8.5849350205  CLST         692          1.0000000000
      2076       692  TIP3  H2            1.3184913050       -5.9380753638        8.7713008104  CLST         692          1.0000000000
      2077       693  TIP3  OH2          -9.2780168601       -4.2800063324       -2.8341173708  CLST         693          1.0000000000
      2078       693  TIP3  H1           -8.4036297307       -4.2955470703       -2.3912755232  CLST         693          1.0000000000
      2079       693  TIP3  H2           -8.9692741316       -3.5742084876       -3.4111811587  CLST         693          1.0000000000
      2080       694  TIP3  OH2          -1.7123648914       11.6091328371        5.8371231566  CLST         694          1.0000000000
      2081       694  TIP3  H1           -2.3035345432       12.4109616077        5.7941465156  CLST         694          1.0000000000
      2082       694  TIP3  H2           -1.0468238520       12.2954333632        5.7019822678  CLST         694          1.0000000000
      2083       695  TIP3  OH2           1.7155101302       10.4437241407        7.9048278374  CLST         695          1.0000000000
      2084       695  TIP3  H1            1.2711607184       10.1263705438        7.0674617044  CLST         695          1.0000000000
      2085       695  TIP3  H2            1.0470914371        9.8790954619        8.2971710218  CLST         695          1.0000000000
      2086       696  TIP3  OH2          -4.1875594977        3.0985612694       -6.0502315145  CLST         696          1.0000000000
      2087       696  TIP3  H1           -3.6864559201        3.9006136015       -6.1742603775  CLST         696          1.0000000000
      2088       696  TIP3  H2           -4.4009276945        3.4548411394       -5.1809347421  CLST         696          1.0000000000
      2089       697  TIP3  OH2           2.7804921732        5.6784850893       11.8964113262  CLST         697          1.0000000000
      2090       697  TIP3  H1            2.1930509649        5.7356888671       11.1618797522  CLST         697          1.0000000000
      2091       697  TIP3  H2            3.5009647129        5.6068684545       11.2863999424  CLST         697          1.0000000000
      2092       698  TIP3  OH2          -3.4679524228        5.0032665090       -1.1158619597  CLST         698          1.0000000000
      2093       698  TIP3  H1           -4.0262460614        4.0780565732       -1.7063165984  CLST         698          1.0000000000
      2094       698  TIP3  H2           -4.4023677618        4.9220911526       -1.4032868773  CLST         698          1.0000000000
      2095       699  TIP3  OH2          -1.2831204360       -4.5804662432        3.6099925637  CLST         699          1.0000000000
      2096       699  TIP3  H1           -2.1736321142       -4.3594138065        3.6747392327  CLST         699          1.0000000000
      2097       699  TIP3  H2           -1.0725605599       -4.5443986679        2.6850136923  CLST         699          1.0000000000
      2098       700  TIP3  OH2          -5.1628094718       -8.2436062719        8.8360135427  CLST         700          1.0000000000
      2099       700  TIP3  H1           -5.2963675429       -7.7281858402        8.0254618958  CLST         700          1.0000000000
      2100       700  TIP3  H2           -4.4166198522       -8.7776332799        8.4945409320  CLST         700          1.0000000000
      2101       701  TIP3  OH2         -14.1372147089       10.3836277940        0.1639208582  CLST         701          1.0000000000
      2102       701  TIP3  H1          -13.8489736267        9.5632978736       -0.3574717585  CLST         701          1.0000000000
      2103       701  TIP3  H2          -15.0389222021       10.3573805218       -0.0825038962  CLST         701          1.0000000000
      2104       702  TIP3  OH2          -5.4524850770       -9.6202011148      -12.5720839889  CLST         702          1.0000000000
      2105       702  TIP3  H1           -5.5177977125       -9.9098125498      -11.6230500076  CLST         702          1.0000000000
      2106       702  TIP3  H2           -6.4443771068       -9.5008197045      -12.5164824986  CLST         702          1.0000000000
      2107       703  TIP3  OH2           3.7492220454        6.1715131559       -4.2923011293  CLST         703          1.0000000000
      2108       703  TIP3  H1            2.8736049234        6.4428079415       -3.6643278980  CLST         703          1.0000000000
      2109       703  TIP3  H2            3.3184004203        7.2050873079       -4.1109795590  CLST         703          1.0000000000
      2110       704  TIP3  OH2         -10.0849518053        5.1139578884       11.7392167574  CLST         704          1.0000000000
      2111       704  TIP3  H1          -10.1598649873        5.7464185620       12.4506975391  CLST         704          1.0000000000
      2112       704  TIP3  H2          -10.0418675890        5.8793470097       11.1659420643  CLST         704          1.0000000000
      2113       705  TIP3  OH2          -0.7731026103       -8.9874686028       -7.0578683091  CLST         705          1.0000000000
      2114       705  TIP3  H1           -0.8636566832       -9.8386823680       -7.4407828834  CLST         705          1.0000000000
      2115       705  TIP3  H2           -0.5005345226       -8.7312576528       -7.9784733720  CLST         705          1.0000000000
      2116       706  TIP3  OH2          -2.0723396376       -1.7673839078        4.2633195125  CLST         706          1.0000000000
      2117       706  TIP3  H1           -1.7605110807       -0.9225923661        4.6329226696  CLST         706          1.0000000000
      2118       706  TIP3  H2           -1.2097048153       -2.1270694285        4.4789007603  CLST         706          1.0000000000
      2119       707  TIP3  OH2           8.6875201884       10.9489651924        7.3134584372  CLST         707          1.0000000000
      2120       707  TIP3  H1            8.3850255445       11.2744289463        6.4305195451  CLST         707          1.0000000000
      2121       707  TIP3  H2            7.8481810009       10.4596061396        7.2319226298  CLST         707          1.0000000000
      2122       708  TIP3  OH2          -0.8633319254       -7.7221221577      -12.2707224415  CLST         708          1.0000000000
      2123       708  TIP3  H1           -1.7508756163       -7.7567169549      -12.6948784144  CLST         708          1.0000000000
      2124       708  TIP3  H2           -0.7021855080       -7.1066946278      -12.9864144757  CLST         708          1.0000000000
      2125       709  TIP3  OH2          -6.4150650006       14.2638932440        0.4339443918  CLST         709          1.0000000000
      2126       709  TIP3  H1           -5.4844218637       14.2935135850        0.7237835446  CLST         709          1.0000000000
      2127       709  TIP3  H2           -6.5917227103       14.3268629715        1.3822225471  CLST         709          1.0000000000
      2128       710  TIP3  OH2          -0.8338594133       14.1881208524      -10.7325188938  CLST         710          1.0000000000
      2129       710  TIP3  H1           -0.3467183107       13.7867737936      -11.4517641424  CLST         710          1.0000000000
      2130       710  TIP3  H2           -1.3987106729       13.4371584920      -10.9256287495  CLST         710          1.0000000000
      2131       711  TIP3  OH2          11.6980517248      -11.4477637814      -11.0458723271  CLST         711          1.0000000000
      2132       711  TIP3  H1           11.8481048721      -12.3702448786      -11.2847976831  CLST         711          1.0000000000
      2133       711  TIP3  H2           11.3098220200      -11.2562198105      -11.8735084466  CLST         711          1.0000000000
      2134       712  TIP3  OH2          -3.6819889726      -10.6468889274       11.5464318762  CLST         712          1.0000000000
      2135       712  TIP3  H1           -4.2878668335      -10.2975547695       10.8928237032  CLST         712          1.0000000000
      2136       712  TIP3  H2           -2.8976926935      -10.3649809297       11.1129404178  CLST         712          1.0000000000
      2137       713  TIP3  OH2           6.8877465075        0.3303508054        6.4591951779  CLST         713          1.0000000000
      2138       713  TIP3  H1            7.3362747729        0.3334725018        7.2887612085  CLST         713          1.0000000000
      2139       713  TIP3  H2            7.5214836961       -0.4259636623        6.3480407277  CLST         713          1.0000000000
      2140       714  TIP3  OH2           4.9084259145       12.3383531191        4.5990193134  CLST         714          1.0000000000
      2141       714  TIP3  H1            4.4267518160       12.9514410013        3.9934238905  CLST         714          1.0000000000
      2142       714  TIP3  H2            4.2753399851       12.7369442755        5.2068821590  CLST         714          1.0000000000
      2143       715  TIP3  OH2          -9.1627820737       -9.5702775479        1.7182752538  CLST         715          1.0000000000
      2144       715  TIP3  H1           -9.7357893137       -8.8039582652        1.8822805813  CLST         715          1.0000000000
      2145       715  TIP3  H2           -9.8456418607      -10.0957604569        2.2421589362  CLST         715          1.0000000000
      2146       716  TIP3  OH2         -13.7611117437      -13.4528746214        0.0604781557  CLST         716          1.0000000000
      2147       716  TIP3  H1          -13.4381721532      -13.8640332933       -0.7514484272  CLST         716          1.0000000000
      2148       716  TIP3  H2          -14.0056426956      -12.7491288177       -0.6093193430  CLST         716          1.0000000000
      2149       717  TIP3  OH2          -6.3805953173      -12.0083502595        2.5540631051  CLST         717          1.0000000000
      2150       717  TIP3  H1           -6.5555691211      -11.2998688963        1.9240241694  CLST         717          1.0000000000
      2151       717  TIP3  H2           -7.1730545375      -12.3690638889        2.1827932126  CLST         717          1.0000000000
      2152       718  TIP3  OH2         -10.9014235122        7.2559148010       13.2305629051  CLST         718          1.0000000000
      2153       718  TIP3  H1          -11.5034489513        7.9862917774       13.5922778924  CLST         718          1.0000000000
      2154       718  TIP3  H2          -10.1806257912        7.9215610626       13.2122454692  CLST         718          1.0000000000
      2155       719  TIP3  OH2          10.4033055356       -7.2589938677        3.0338037464  CLST         719          1.0000000000
      2156       719  TIP3  H1           11.4269087579       -7.2055343141        3.1750915646  CLST         719          1.0000000000
      2157       719  TIP3  H2           10.6362090547       -7.1594652768        2.0640757193  CLST         719          1.0000000000
      2158       720  TIP3  OH2          -4.9527655398       13.0025396214       -8.7456681494  CLST         720          1.0000000000
      2159       720  TIP3  H1           -3.9819227884       13.0110730837       -8.6637344066  CLST         720          1.0000000000
      2160       720  TIP3  H2           -4.9702351104       13.4779565591       -7.8847357067  CLST         720          1.0000000000
      2161       721  TIP3  OH2           4.1234620807       -5.9822172837       -9.9656436196  CLST         721          1.0000000000
      2162       721  TIP3  H1            4.1099072807       -5.7192815003       -9.0791594658  CLST         721          1.0000000000
      2163       721  TIP3  H2            4.8936249868       -6.5438038442       -9.7400955090  CLST         721          1.0000000000
      2164       722  TIP3  OH2          10.3770994460       -2.5491425470        2.0769277474  CLST         722          1.0000000000
      2165       722  TIP3  H1           10.0287284927       -3.1368550557        1.4074541037  CLST         722          1.0000000000
      2166       722  TIP3  H2           11.2226066494       -2.4772126551        1.6571744734  CLST         722          1.0000000000
      2167       723  TIP3  OH2           0.2936017629       13.3917818545        6.0083026753  CLST         723          1.0000000000
      2168       723  TIP3  H1            1.1741049914       14.0915846694        5.8441813398  CLST         723          1.0000000000
      2169       723  TIP3  H2            1.3431545594       13.0756295266        5.7746205365  CLST         723          1.0000000000
      2170       724  TIP3  OH2           8.2118262164       -8.3916377698       -3.9298957528  CLST         724          1.0000000000
      2171       724  TIP3  H1            8.3569671629       -8.9680637364       -4.6968707453  CLST         724          1.0000000000
      2172       724  TIP3  H2            8.3084264019       -7.7150015195       -4.5950067938  CLST         724          1.0000000000
      2173       725  TIP3  OH2          -0.8521450029       -0.2668874152        2.0935634976  CLST         725          1.0000000000
      2174       725  TIP3  H1           -1.7028187389       -0.7802624769        2.1617080758  CLST         725          1.0000000000
      2175       725  TIP3  H2           -1.4410849103        0.3582531789        1.6118643208  CLST         725          1.0000000000
      2176       726  TIP3  OH2         -14.2356390318       10.5242877503        6.0347178312  CLST         726          1.0000000000
      2177       726  TIP3  H1          -15.0389350276       10.9628707365        5.6883991155  CLST         726          1.0000000000
      2178       726  TIP3  H2          -13.7816759206       11.4242455777        5.9025724411  CLST         726          1.0000000000
      2179       727  TIP3  OH2          -4.3020893509      -13.5614515291       -0.4517201440  CLST         727          1.0000000000
      2180       727  TIP3  H1           -3.6549674960      -14.1661440421       -0.0853121335  CLST         727          1.0000000000
      2181       727  TIP3  H2           -3.7022009825      -12.9007156137       -0.0116840030  CLST         727          1.0000000000
      2182       728  TIP3  OH2          -8.3283285831        3.2236357619       -0.8990015578  CLST         728          1.0000000000
      2183       728  TIP3  H1           -7.8847514239        2.4286711013       -0.5057110707  CLST         728          1.0000000000
      2184       728  TIP3  H2           -9.1152255753        2.6184591118       -0.7945665727  CLST         728          1.0000000000
      2185       729  TIP3  OH2          10.3259799942      -10.3303903561        2.8061762620  CLST         729          1.0000000000
      2186       729  TIP3  H1           10.6959144355       -9.4968858728        3.0505063462  CLST         729          1.0000000000
      2187       729  TIP3  H2           11.2479120947      -10.6351263847        2.6847679191  CLST         729          1.0000000000
      2188       730  TIP3  OH2          -4.3924407441       11.0635129568       -5.3114163657  CLST         730          1.0000000000
      2189       730  TIP3  H1           -4.3521751150       10.1553647127       -5.6216085213  CLST         730          1.0000000000
      2190       730  TIP3  H2           -5.2510272909       11.0750997190       -5.7517418581  CLST         730          1.0000000000
      2191       731  TIP3  OH2          12.9507207398       12.7365248765       -4.3693602443  CLST         731          1.0000000000
      2192       731  TIP3  H1           13.5436918616       12.9698302220       -5.0361931242  CLST         731          1.0000000000
      2193       731  TIP3  H2           12.5729028080       12.0507933063       -4.9506392037  CLST         731          1.0000000000
      2194       732  TIP3  OH2          -2.8369832081       -1.3130132259       -1.9646767831  CLST         732          1.0000000000
      2195       732  TIP3  H1           -3.2280846084       -0.9499155136       -1.1967064736  CLST         732          1.0000000000
      2196       732  TIP3  H2           -3.9021305493       -0.8268139223       -1.9787651804  CLST         732          1.0000000000
      2197       733  TIP3  OH2           5.4822692812        2.4209709604       12.9583392976  CLST         733          1.0000000000
      2198       733  TIP3  H1            5.1590206540        1.5940706983       12.5350962327  CLST         733          1.0000000000
      2199       733  TIP3  H2            4.5966641080        2.2909514492       13.3836390264  CLST         733          1.0000000000
      2200       734  TIP3  OH2           8.3666615094       -2.3281366561        5.9817157006  CLST         734          1.0000000000
      2201       734  TIP3  H1            8.2300653403       -2.9315332092        5.1978583268  CLST         734          1.0000000000
      2202       734  TIP3  H2            9.3401310088       -2.2992528214        5.7232091283  CLST         734          1.0000000000
      2203       735  TIP3  OH2         -10.7784904967      -12.7481315302        0.9261785489  CLST         735          1.0000000000
      2204       735  TIP3  H1          -10.9227924496      -12.0929949924        1.6689191878  CLST         735          1.0000000000
      2205       735  TIP3  H2          -11.7474397138      -12.7561272630        0.7834399404  CLST         735          1.0000000000
      2206       736  TIP3  OH2          13.6163171915        2.5935632622        2.7749014450  CLST         736          1.0000000000
      2207       736  TIP3  H1           13.7929517237        2.4508088515        1.8392722526  CLST         736          1.0000000000
      2208       736  TIP3  H2           12.9683302797        1.9054575744        2.5778385523  CLST         736          1.0000000000
      2209       737  TIP3  OH2          11.4214803337       -2.0650239878        7.9346721694  CLST         737          1.0000000000
      2210       737  TIP3  H1           11.1631781119       -2.3743978992        7.0460338767  CLST         737          1.0000000000
      2211       737  TIP3  H2           11.3342468628       -1.1563217390        7.6317929693  CLST         737          1.0000000000
      2212       738  TIP3  OH2          10.3592723280        1.1466205430       14.2525154887  CLST         738          1.0000000000
      2213       738  TIP3  H1            9.4844803400        0.7407540600       14.2975311780  CLST         738          1.0000000000
      2214       738  TIP3  H2           10.5493205578        0.2384213790       14.5954884165  CLST         738          1.0000000000
      2215       739  TIP3  OH2         -13.1626268678        1.3560188426       10.4389490530  CLST         739          1.0000000000
      2216       739  TIP3  H1          -14.0565179248        1.4512864065       10.8617542323  CLST         739          1.0000000000
      2217       739  TIP3  H2          -13.6933978362        0.6460169357        9.9434666367  CLST         739          1.0000000000
      2218       740  TIP3  OH2           5.9991678912      -14.2255854583       -5.2047429762  CLST         740          1.0000000000
      2219       740  TIP3  H1            5.4563909227      -14.9418076467       -5.5506692124  CLST         740          1.0000000000
      2220       740  TIP3  H2            6.6627301227      -14.8915983945       -5.3747708297  CLST         740          1.0000000000
      2221       741  TIP3  OH2          11.7521984857        4.9690090287        9.4935596219  CLST         741          1.0000000000
      2222       741  TIP3  H1           12.5498691806        4.6254875868        9.1100308674  CLST         741          1.0000000000
      2223       741  TIP3  H2           11.6204378438        3.9934185009        9.4555116834  CLST         741          1.0000000000
      2224       742  TIP3  OH2           8.4285092702       -9.5441160479       -6.3921593768  CLST         742          1.0000000000
      2225       742  TIP3  H1            8.5975839114      -10.5201788585       -6.4775823560  CLST         742          1.0000000000
      2226       742  TIP3  H2            7.6965365129       -9.7718449049       -6.9607930175  CLST         742          1.0000000000
      2227       743  TIP3  OH2          -7.2747758086       -0.2776587318      -10.7574350502  CLST         743          1.0000000000
      2228       743  TIP3  H1           -6.8128572643        0.5378518232      -10.3956949190  CLST         743          1.0000000000
      2229       743  TIP3  H2           -6.3386064154       -0.5940753294      -10.6699096463  CLST         743          1.0000000000
      2230       744  TIP3  OH2          -6.0419700509        3.5528299078        5.3061006923  CLST         744          1.0000000000
      2231       744  TIP3  H1           -5.1676277666        3.2082775371        5.6376409077  CLST         744          1.0000000000
      2232       744  TIP3  H2           -5.8368994462        4.4213784112        5.6901856281  CLST         744          1.0000000000
      2233       745  TIP3  OH2           0.4151130289       -8.4164061331        6.7191421520  CLST         745          1.0000000000
      2234       745  TIP3  H1            0.7409338441       -9.3339557168        6.7575374957  CLST         745          1.0000000000
      2235       745  TIP3  H2            1.1089292249       -8.2813616524        7.3710342594  CLST         745          1.0000000000
      2236       746  TIP3  OH2          -7.8265230682       -4.4843283722       -5.8485143456  CLST         746          1.0000000000
      2237       746  TIP3  H1           -7.9791426469       -5.3041139154       -6.3823532086  CLST         746          1.0000000000
      2238       746  TIP3  H2           -8.3474832984       -3.9834936869       -6.5178327045  CLST         746          1.0000000000
      2239       747  TIP3  OH2          11.3690202247       11.9840313002        2.0278004791  CLST         747          1.0000000000
      2240       747  TIP3  H1           10.8756276149       12.4038550819        2.7481320254  CLST         747          1.0000000000
      2241       747  TIP3  H2           11.6023173365       11.3821391309        2.7854157134  CLST         747          1.0000000000
      2242       748  TIP3  OH2           3.6325036161        4.8040006500        8.3893843048  CLST         748          1.0000000000
      2243       748  TIP3  H1            4.1491832852        4.9489832795        9.1763746021  CLST         748          1.0000000000
      2244       748  TIP3  H2            3.6618929922        5.7717893102        8.2828566862  CLST         748          1.0000000000
      2245       749  TIP3  OH2          10.8267495287        9.5049749741        6.3728305597  CLST         749          1.0000000000
      2246       749  TIP3  H1           10.7710268256        8.9261464330        7.2090684877  CLST         749          1.0000000000
      2247       749  TIP3  H2           10.2344144123       10.0889954958        6.9326704961  CLST         749          1.0000000000
      2248       750  TIP3  OH2         -14.2394192935       12.3081719816       -7.6725992793  CLST         750          1.0000000000
      2249       750  TIP3  H1          -15.1037045819       11.9712874041       -7.9868063520  CLST         750          1.0000000000
      2250       750  TIP3  H2          -13.9638252074       12.0176322078       -8.5373865386  CLST         750          1.0000000000
      2251       751  TIP3  OH2           8.5977370133        4.4675683309       -4.2528244679  CLST         751          1.0000000000
      2252       751  TIP3  H1            7.9160759050        3.9074326644       -4.6095473970  CLST         751          1.0000000000
      2253       751  TIP3  H2            9.0399205510        3.7913060358       -3.7798993934  CLST         751          1.0000000000
      2254       752  TIP3  OH2         -12.2124727485       13.2161586651        2.2758203590  CLST         752          1.0000000000
      2255       752  TIP3  H1          -12.6989823548       13.2720456017        1.4591178028  CLST         752          1.0000000000
      2256       752  TIP3  H2          -12.1934763251       12.2621606518        2.0457242811  CLST         752          1.0000000000
      2257       753  TIP3  OH2           8.8717551002        2.4889799248       -7.0118364865  CLST         753          1.0000000000
      2258       753  TIP3  H1            8.4722415092        3.2484763507       -7.5462248001  CLST         753          1.0000000000
      2259       753  TIP3  H2            8.0805364536        2.5501155712       -6.4495319192  CLST         753          1.0000000000
      2260       754  TIP3  OH2          11.4364782344        2.4261152021       -6.1548318579  CLST         754          1.0000000000
      2261       754  TIP3  H1           11.1196299654        2.6213369453       -5.2554048738  CLST         754          1.0000000000
      2262       754  TIP3  H2           10.4804879064        2.5737695274       -6.3714096896  CLST         754          1.0000000000
      2263       755  TIP3  OH2           7.5727389839       -1.7596942027       -0.2522167538  CLST         755          1.0000000000
      2264       755  TIP3  H1            6.7402014215       -2.0995084414       -0.0227179142  CLST         755          1.0000000000
      2265       755  TIP3  H2            7.2490307198       -0.8634417763       -0.3146806413  CLST         755          1.0000000000
      2266       756  TIP3  OH2         -12.7103737636        6.4519647669        5.8173541225  CLST         756          1.0000000000
      2267       756  TIP3  H1          -12.9375600881        5.5853471483        6.1334098469  CLST         756          1.0000000000
      2268       756  TIP3  H2          -12.1833810049        6.4763820240        6.6289757573  CLST         756          1.0000000000
      2269       757  TIP3  OH2          -4.6159059270       -5.0073667381       -2.2611539389  CLST         757          1.0000000000
      2270       757  TIP3  H1           -3.9263389925       -5.2153638500       -2.9206065330  CLST         757          1.0000000000
      2271       757  TIP3  H2           -4.9431334959       -4.3758948416       -2.9649319411  CLST         757          1.0000000000
      2272       758  TIP3  OH2          12.0701865579        4.3311946555       -0.8151073920  CLST         758          1.0000000000
      2273       758  TIP3  H1           12.2500138843        4.6573729541       -0.0704726039  CLST         758          1.0000000000
      2274       758  TIP3  H2           12.8933490618        3.8296333595       -0.2461352585  CLST         758          1.0000000000
      2275       759  TIP3  OH2          -7.7017730160       11.7498273201      -11.2067019564  CLST         759          1.0000000000
      2276       759  TIP3  H1           -7.1311912180       12.2066422685      -11.7905232341  CLST         759          1.0000000000
      2277       759  TIP3  H2           -6.9512258132       11.2973877856      -10.8658623961  CLST         759          1.0000000000
      2278       760  TIP3  OH2           7.9157543563       14.5168505449       -6.2610890699  CLST         760          1.0000000000
      2279       760  TIP3  H1            8.5406012891       14.9111848690       -6.8937813409  CLST         760          1.0000000000
      2280       760  TIP3  H2            7.8372619218       13.8382081708       -6.9690032476  CLST         760          1.0000000000
      2281       761  TIP3  OH2          -7.0265496706        8.1042788764      -11.5270486224  CLST         761          1.0000000000
      2282       761  TIP3  H1           -7.8615877821        7.7079900798      -11.8239658168  CLST         761          1.0000000000
      2283       761  TIP3  H2           -7.4697985862        8.0117018824      -10.6616590169  CLST         761          1.0000000000
      2284       762  TIP3  OH2           7.7228860543       -6.1464834041      -12.9032481082  CLST         762          1.0000000000
      2285       762  TIP3  H1            7.1051603597       -6.7161907220      -12.4467636389  CLST         762          1.0000000000
      2286       762  TIP3  H2            7.5551117976       -5.3883542182      -12.3555838357  CLST         762          1.0000000000
      2287       763  TIP3  OH2          -1.2765630385       -6.1703012617        9.0068626454  CLST         763          1.0000000000
      2288       763  TIP3  H1           -1.4640807466       -5.2265864279        8.8995127095  CLST         763          1.0000000000
      2289       763  TIP3  H2           -1.9102534218       -6.1746199061        9.7446171658  CLST         763          1.0000000000
      2290       764  TIP3  OH2           8.9088859655      -11.4464688867        0.7340303176  CLST         764          1.0000000000
      2291       764  TIP3  H1            8.1227826477      -10.8781293144        0.6142334102  CLST         764          1.0000000000
      2292       764  TIP3  H2            9.3327703286      -10.9279909975        1.4253157769  CLST         764          1.0000000000
      2293       765  TIP3  OH2         -14.4667392455      -12.1532245285       12.9604765313  CLST         765          1.0000000000
      2294       765  TIP3  H1          -13.7482531229      -11.7641230471       13.4548009225  CLST         765          1.0000000000
      2295       765  TIP3  H2          -15.1037045819      -11.5346798609       13.2656208240  CLST         765          1.0000000000
      2296       766  TIP3  OH2          11.6233277918       -8.3502528236      -12.1233411209  CLST         766          1.0000000000
      2297       766  TIP3  H1           11.0254220838       -7.9626399003      -12.7169094561  CLST         766          1.0000000000
      2298       766  TIP3  H2           10.8544931114       -8.5666929179      -11.6007737338  CLST         766          1.0000000000
      2299       767  TIP3  OH2           2.4361467719       12.5808560837      -12.7381012581  CLST         767          1.0000000000
      2300       767  TIP3  H1            2.6566293331       12.1211344351      -11.9141225722  CLST         767          1.0000000000
      2301       767  TIP3  H2            2.3337132825       13.5741054089      -12.4483949390  CLST         767          1.0000000000
      2302       768  TIP3  OH2           7.6851269267        7.1594466061        8.3149740783  CLST         768          1.0000000000
      2303       768  TIP3  H1            8.6297519965        7.2244587774        8.4682522842  CLST         768          1.0000000000
      2304       768  TIP3  H2            8.1969190128        6.1490429823        8.4676862785  CLST         768          1.0000000000
      2305       769  TIP3  OH2         -12.0285566789        3.0757824268        1.1619314105  CLST         769          1.0000000000
      2306       769  TIP3  H1          -11.1453358671        3.0083865382        1.5281601843  CLST         769          1.0000000000
      2307       769  TIP3  H2          -12.6597054089        3.1830687316        1.9003421444  CLST         769          1.0000000000
      2308       770  TIP3  OH2          10.0735968460       -4.7404381826       11.3708570099  CLST         770          1.0000000000
      2309       770  TIP3  H1           10.0078048470       -3.9007155175       10.8646918314  CLST         770          1.0000000000
      2310       770  TIP3  H2           10.7946663008       -4.8315862842       10.7344989347  CLST         770          1.0000000000
      2311       771  TIP3  OH2         -10.3644757459        1.0080098775       -5.7449919150  CLST         771          1.0000000000
      2312       771  TIP3  H1           -9.4320090175        0.7955173436       -5.7496070449  CLST         771          1.0000000000
      2313       771  TIP3  H2          -10.1145386848        1.3929364455       -4.8767392318  CLST         771          1.0000000000
      2314       772  TIP3  OH2          12.9197290435      -12.4556039002       -6.6869017955  CLST         772          1.0000000000
      2315       772  TIP3  H1           13.0482367417      -11.5367697872       -6.6159809862  CLST         772          1.0000000000
      2316       772  TIP3  H2           12.1744429300      -12.4856990834       -6.0990830055  CLST         772          1.0000000000
      2317       773  TIP3  OH2          12.1253491190       -4.9590402786        3.7332184522  CLST         773          1.0000000000
      2318       773  TIP3  H1           11.7948663704       -4.2010669438        4.2537429556  CLST         773          1.0000000000
      2319       773  TIP3  H2           11.8192792980       -4.7200130207        2.8842644519  CLST         773          1.0000000000
      2320       774  TIP3  OH2          -7.8574016544       -0.3699687705       -5.7949447352  CLST         774          1.0000000000
      2321       774  TIP3  H1           -6.9327333483       -0.5901677737       -5.9795554313  CLST         774          1.0000000000
      2322       774  TIP3  H2           -7.4251437822        0.5281232320       -5.8297059214  CLST         774          1.0000000000
      2323       775  TIP3  OH2           2.5605766669        1.7109245061        5.6165089580  CLST         775          1.0000000000
      2324       775  TIP3  H1            2.6668948084        1.4954216823        6.5566639578  CLST         775          1.0000000000
      2325       775  TIP3  H2            2.6243629251        2.6117395716        5.9114287238  CLST         775          1.0000000000
      2326       776  TIP3  OH2           0.1713546391        9.6441233085        5.7090459673  CLST         776          1.0000000000
      2327       776  TIP3  H1           -0.6954518967       10.1613320646        5.7476637019  CLST         776          1.0000000000
      2328       776  TIP3  H2           -0.4641060827        8.9224924627        5.9083641218  CLST         776          1.0000000000
      2329       777  TIP3  OH2         -13.0363388295      -10.3432366848        0.1100394954  CLST         777          1.0000000000
      2330       777  TIP3  H1          -12.6914121273       -9.4222285084        0.1654216881  CLST         777          1.0000000000
      2331       777  TIP3  H2          -12.9766033987      -10.3148957500        1.0429128714  CLST         777          1.0000000000
      2332       778  TIP3  OH2         -11.7701447956        5.8288730413       -0.5291394286  CLST         778          1.0000000000
      2333       778  TIP3  H1          -11.7044122721        5.0237588495        0.0189939061  CLST         778          1.0000000000
      2334       778  TIP3  H2          -11.5770012482        5.3172540432       -1.3045791343  CLST         778          1.0000000000
      2335       779  TIP3  OH2          -6.1476618379        5.3169454775       -1.6782355091  CLST         779          1.0000000000
      2336       779  TIP3  H1           -6.9349481027        4.9412039480       -1.3119729883  CLST         779          1.0000000000
      2337       779  TIP3  H2           -6.4550017918        6.1224780870       -1.2228954114  CLST         779          1.0000000000
      2338       780  TIP3  OH2           2.5573296786       14.0709257924       -8.6515319346  CLST         780          1.0000000000
      2339       780  TIP3  H1            2.2138798309       14.8098286573       -9.4202988094  CLST         780          1.0000000000
      2340       780  TIP3  H2            2.9353835189       14.1891296257       -9.3913099919  CLST         780          1.0000000000
      2341       781  TIP3  OH2           9.2544437754       -8.7226365188       -9.7575802425  CLST         781          1.0000000000
      2342       781  TIP3  H1           10.0772885171       -8.4335663751       -9.3637837879  CLST         781          1.0000000000
      2343       781  TIP3  H2            9.5599102564       -9.5801131824       -9.3925930118  CLST         781          1.0000000000
      2344       782  TIP3  OH2           0.1709086693        2.7561009278        4.5431140288  CLST         782          1.0000000000
      2345       782  TIP3  H1           -0.3216670872        1.9411885759        4.8174900562  CLST         782          1.0000000000
      2346       782  TIP3  H2            0.8584249293        2.1926892885        4.9999109930  CLST         782          1.0000000000
      2347       783  TIP3  OH2          -7.1684819351      -12.6898585149      -13.4170549535  CLST         783          1.0000000000
      2348       783  TIP3  H1           -7.9715369225      -12.3808304901      -12.8849076387  CLST         783          1.0000000000
      2349       783  TIP3  H2           -7.7856710166      -12.5807938623      -14.2001911337  CLST         783          1.0000000000
      2350       784  TIP3  OH2          14.6349981512        5.2452858900       -3.9843948799  CLST         784          1.0000000000
      2351       784  TIP3  H1           15.1037045819        6.0278669908       -4.3417288359  CLST         784          1.0000000000
      2352       784  TIP3  H2           13.7761230127        5.6646329617       -4.0347809692  CLST         784          1.0000000000
      2353       785  TIP3  OH2          10.4991401503        8.0730833911        0.8579476891  CLST         785          1.0000000000
      2354       785  TIP3  H1           10.9556089190        8.5315979805        1.5424963999  CLST         785          1.0000000000
      2355       785  TIP3  H2           11.2930295724        8.3206229981        0.3848750349  CLST         785          1.0000000000
      2356       786  TIP3  OH2          12.5260796656        3.5165919805       12.3132723160  CLST         786          1.0000000000
      2357       786  TIP3  H1           12.7842208521        4.6153081184       12.4642180144  CLST         786          1.0000000000
      2358       786  TIP3  H2           11.9777162404        3.9500908509       12.7468209785  CLST         786          1.0000000000
      2359       787  TIP3  OH2          -8.0541037804        0.3148739875       11.6350131648  CLST         787          1.0000000000
      2360       787  TIP3  H1           -8.8641602530        0.5617562791       11.1843704889  CLST         787          1.0000000000
      2361       787  TIP3  H2           -8.5597975471       -0.4023065339       11.9404215677  CLST         787          1.0000000000
      2362       788  TIP3  OH2           2.5049059495      -13.2961648437       10.9270168109  CLST         788          1.0000000000
      2363       788  TIP3  H1            2.7579911198      -13.3353808102       11.9010610298  CLST         788          1.0000000000
      2364       788  TIP3  H2            2.9201297995      -14.1885529995       10.9328412184  CLST         788          1.0000000000
      2365       789  TIP3  OH2          -7.0241149686        0.9605246495       -3.2351049979  CLST         789          1.0000000000
      2366       789  TIP3  H1           -6.8023771117        0.0759844637       -3.1040178858  CLST         789          1.0000000000
      2367       789  TIP3  H2           -6.0992228419        1.0293652068       -3.5254500950  CLST         789          1.0000000000
      2368       790  TIP3  OH2         -11.3023807700       -9.2960325285        5.6144308489  CLST         790          1.0000000000
      2369       790  TIP3  H1          -11.6690199700       -9.4476908698        6.4954696885  CLST         790          1.0000000000
      2370       790  TIP3  H2          -11.5557145883       -8.3438398546        5.6607768575  CLST         790          1.0000000000
      2371       791  TIP3  OH2          -5.0618277979       -5.8483858855      -10.7024997862  CLST         791          1.0000000000
      2372       791  TIP3  H1           -4.1158752090       -6.0004675773      -10.9384790482  CLST         791          1.0000000000
      2373       791  TIP3  H2           -4.9684534860       -5.0756176806      -11.2790354210  CLST         791          1.0000000000
      2374       792  TIP3  OH2           7.0065992771       -4.0215773218        9.8452319824  CLST         792          1.0000000000
      2375       792  TIP3  H1            7.6103352276       -4.6813022735        9.4824802511  CLST         792          1.0000000000
      2376       792  TIP3  H2            7.7367959377       -3.4302719916        9.7531268302  CLST         792          1.0000000000
      2377       793  TIP3  OH2          -3.1442364846       12.8529724075       -3.9064470162  CLST         793          1.0000000000
      2378       793  TIP3  H1           -3.6662422564       12.6917168998       -3.0660161737  CLST         793          1.0000000000
      2379       793  TIP3  H2           -3.3871815483       11.9718862908       -4.1922182562  CLST         793          1.0000000000
      2380       794  TIP3  OH2          -0.7534882925        2.8852118326       -6.5526160617  CLST         794          1.0000000000
      2381       794  TIP3  H1           -0.9859805179        2.2567018943       -7.2568995710  CLST         794          1.0000000000
      2382       794  TIP3  H2           -1.0539792890        3.4647168953       -7.2898154824  CLST         794          1.0000000000
      2383       795  TIP3  OH2          -2.0966094597       -9.3464533196        1.2451557804  CLST         795          1.0000000000
      2384       795  TIP3  H1           -2.6508587644      -10.0429325696        0.8290841257  CLST         795          1.0000000000
      2385       795  TIP3  H2           -1.7766551860       -9.9957507721        1.9199209428  CLST         795          1.0000000000
      2386       796  TIP3  OH2           2.8319354151        4.7961283894        4.9584814187  CLST         796          1.0000000000
      2387       796  TIP3  H1            3.3048761112        4.4874812047        3.9561565082  CLST         796          1.0000000000
      2388       796  TIP3  H2            3.7447774871        5.0104067908        4.7534950225  CLST         796          1.0000000000
      2389       797  TIP3  OH2         -11.5954596248        5.5615033038       -3.0812609125  CLST         797          1.0000000000
      2390       797  TIP3  H1          -12.1187900205        6.2503975888       -3.5438066654  CLST         797          1.0000000000
      2391       797  TIP3  H2          -11.1993795120        5.4564590898       -3.9793488924  CLST         797          1.0000000000
      2392       798  TIP3  OH2         -11.1796401316        9.9349582523       10.5852355198  CLST         798          1.0000000000
      2393       798  TIP3  H1          -11.5854308675       10.6517538472       10.1049510864  CLST         798          1.0000000000
      2394       798  TIP3  H2          -11.3955799396       10.4677363147       11.3827146343  CLST         798          1.0000000000
      2395       799  TIP3  OH2           4.0957657880       -1.7393025325      -12.5720203226  CLST         799          1.0000000000
      2396       799  TIP3  H1            4.9078757383       -1.1836875992      -12.7031590406  CLST         799          1.0000000000
      2397       799  TIP3  H2            4.2498224389       -1.9848510891      -13.4880914027  CLST         799          1.0000000000
      2398       800  TIP3  OH2         -10.1047996152        7.3657040117       10.1864596753  CLST         800          1.0000000000
      2399       800  TIP3  H1          -10.5908711292        8.2233012323       10.3329424548  CLST         800          1.0000000000
      2400       800  TIP3  H2           -9.3834699844        7.9487424496       10.0152444358  CLST         800          1.0000000000
      2401       801  TIP3  OH2           7.9900341010      -11.2618080640      -10.5643676535  CLST         801          1.0000000000
      2402       801  TIP3  H1            8.1082575772      -12.2046362594      -10.4235013146  CLST         801          1.0000000000
      2403       801  TIP3  H2            8.7044089771      -11.2737862922      -11.2056859739  CLST         801          1.0000000000
      2404       802  TIP3  OH2           5.5363364781       -0.0050227056       12.0168130797  CLST         802          1.0000000000
      2405       802  TIP3  H1            5.0106895892        0.1791905058       11.1702836392  CLST         802          1.0000000000
      2406       802  TIP3  H2            6.0006478690       -0.5664695400       11.3729908215  CLST         802          1.0000000000
      2407       803  TIP3  OH2           6.6292844547       -9.6305872503        0.1706064618  CLST         803          1.0000000000
      2408       803  TIP3  H1            6.2155625616      -10.5013176073       -0.0386848797  CLST         803          1.0000000000
      2409       803  TIP3  H2            5.9901009736       -9.5688980493        0.9055274808  CLST         803          1.0000000000
      2410       804  TIP3  OH2           5.4050176364        6.3508296887        1.9670596319  CLST         804          1.0000000000
      2411       804  TIP3  H1            4.8057264364        5.6465678733        1.5626834745  CLST         804          1.0000000000
      2412       804  TIP3  H2            5.9905771073        5.6343545792        1.5969772835  CLST         804          1.0000000000
      2413       805  TIP3  OH2           7.5526087390       -4.4408503358       14.3777120288  CLST         805          1.0000000000
      2414       805  TIP3  H1            8.3469258195       -4.2871993241       13.8858567170  CLST         805          1.0000000000
      2415       805  TIP3  H2            8.1845475371       -4.7974246666       15.0053087105  CLST         805          1.0000000000
      2416       806  TIP3  OH2           8.8030470730       10.0662827929       13.8363978637  CLST         806          1.0000000000
      2417       806  TIP3  H1            8.1989441368        9.4700193592       13.4055722095  CLST         806          1.0000000000
      2418       806  TIP3  H2            8.4147258261       10.8097691330       13.3728395739  CLST         806          1.0000000000
      2419       807  TIP3  OH2          -3.7941284421        8.1744313220        1.3172447084  CLST         807          1.0000000000
      2420       807  TIP3  H1           -3.7139161307        9.1381458649        1.5093880958  CLST         807          1.0000000000
      2421       807  TIP3  H2           -3.8392226671        8.0924988082        2.3056450451  CLST         807          1.0000000000
      2422       808  TIP3  OH2          -3.7463088611       13.9037769025        1.1996119140  CLST         808          1.0000000000
      2423       808  TIP3  H1           -3.0995571691       14.0447441325        1.8836478633  CLST         808          1.0000000000
      2424       808  TIP3  H2           -2.9321589551       13.7942176820        0.6748256466  CLST         808          1.0000000000
      2425       809  TIP3  OH2           1.9454977443       12.7582773850        9.4169189972  CLST         809          1.0000000000
      2426       809  TIP3  H1            1.6994264354       11.8518822337        9.0583400886  CLST         809          1.0000000000
      2427       809  TIP3  H2            1.1283011996       13.0020957994        8.9348182371  CLST         809          1.0000000000
      2428       810  TIP3  OH2          -1.9463758810        8.7035179705        8.7606659703  CLST         810          1.0000000000
      2429       810  TIP3  H1           -1.0751694035        8.2981470275        8.6058626077  CLST         810          1.0000000000
      2430       810  TIP3  H2           -1.6795993255        8.4503694468        9.7157534211  CLST         810          1.0000000000
      2431       811  TIP3  OH2          -3.7396432460      -12.3470072215       -9.2412790279  CLST         811          1.0000000000
      2432       811  TIP3  H1           -3.6885452334      -12.8963337739      -10.0052956176  CLST         811          1.0000000000
      2433       811  TIP3  H2           -4.4384388811      -11.7000250982       -9.4994895467  CLST         811          1.0000000000
      2434       812  TIP3  OH2          10.7582780696        4.2956848759      -13.7547639476  CLST         812          1.0000000000
      2435       812  TIP3  H1           11.4203252690        3.6134353739      -13.6983734484  CLST         812          1.0000000000
      2436       812  TIP3  H2           11.4022817732        4.6745924110      -14.3892173505  CLST         812          1.0000000000
      2437       813  TIP3  OH2          -2.1952889416        0.7784136015      -13.9589231794  CLST         813          1.0000000000
      2438       813  TIP3  H1           -2.1384108874        1.5692666805      -14.4590894894  CLST         813          1.0000000000
      2439       813  TIP3  H2           -3.1496991209        0.9581456272      -14.1100498550  CLST         813          1.0000000000
      2440       814  TIP3  OH2          -7.3774269194        8.0935588783       -8.8461985251  CLST         814          1.0000000000
      2441       814  TIP3  H1           -7.0545318381        8.9424712370       -8.5939737820  CLST         814          1.0000000000
      2442       814  TIP3  H2           -6.6085575722        7.6411325146       -8.5276642142  CLST         814          1.0000000000
      2443       815  TIP3  OH2          -5.1429892617        1.0264997805       -8.4757245902  CLST         815          1.0000000000
      2444       815  TIP3  H1           -4.9318626821        1.8302246829       -7.9796227397  CLST         815          1.0000000000
      2445       815  TIP3  H2           -5.6815301945        1.6985631033       -8.9595367754  CLST         815          1.0000000000
      2446       816  TIP3  OH2          -8.2833652830      -13.5743169261        1.5486537109  CLST         816          1.0000000000
      2447       816  TIP3  H1           -8.7111368731      -14.4400307022        1.6549879188  CLST         816          1.0000000000
      2448       816  TIP3  H2           -9.1743003528      -13.2760706343        1.5045801907  CLST         816          1.0000000000
      2449       817  TIP3  OH2           3.5571668311       14.3453182825       10.8866518077  CLST         817          1.0000000000
      2450       817  TIP3  H1            2.9543790621       13.6897425551       10.5501570302  CLST         817          1.0000000000
      2451       817  TIP3  H2            3.2752499141       14.1299552058       11.7872168557  CLST         817          1.0000000000
      2452       818  TIP3  OH2          11.5287766937       -3.2669943416       -5.7993514023  CLST         818          1.0000000000
      2453       818  TIP3  H1           11.5329096018       -2.4791916879       -5.2149287120  CLST         818          1.0000000000
      2454       818  TIP3  H2           10.5745795819       -3.0134205231       -5.8314912900  CLST         818          1.0000000000
      2455       819  TIP3  OH2           0.0264610197        0.1260559452      -10.6656529729  CLST         819          1.0000000000
      2456       819  TIP3  H1            0.6771384614       -0.6502361455      -11.1416709982  CLST         819          1.0000000000
      2457       819  TIP3  H2            1.0454792387        0.2667946790      -11.1269372860  CLST         819          1.0000000000
      2458       820  TIP3  OH2         -11.2629923176       -7.8794471387       14.4351228066  CLST         820          1.0000000000
      2459       820  TIP3  H1          -12.0097091959       -8.1891741052       14.9245458397  CLST         820          1.0000000000
      2460       820  TIP3  H2          -11.1135180894       -8.8224553729       14.4649737746  CLST         820          1.0000000000
      2461       821  TIP3  OH2          11.9477976569       -0.9376245602       14.8790187365  CLST         821          1.0000000000
      2462       821  TIP3  H1           12.7783614563       -0.7089009541       14.4530906172  CLST         821          1.0000000000
      2463       821  TIP3  H2           12.0106366184       -1.7097807201       14.2972342307  CLST         821          1.0000000000
      2464       822  TIP3  OH2          -7.1766364697       14.2320122856        9.3845663553  CLST         822          1.0000000000
      2465       822  TIP3  H1           -7.1189126003       13.7448378580        8.5542724236  CLST         822          1.0000000000
      2466       822  TIP3  H2           -7.0872516165       13.3477378416        9.7376458394  CLST         822          1.0000000000
      2467       823  TIP3  OH2          -9.2181639855       -1.7832721182        7.6252998993  CLST         823          1.0000000000
      2468       823  TIP3  H1           -9.4298563229       -2.6661763098        7.9592167848  CLST         823          1.0000000000
      2469       823  TIP3  H2           -8.3322011119       -1.8379154558        7.9405109333  CLST         823          1.0000000000
      2470       824  TIP3  OH2          10.8269504884        0.6364956316        6.9450389806  CLST         824          1.0000000000
      2471       824  TIP3  H1           10.3785915666        0.8415860099        6.1204616382  CLST         824          1.0000000000
      2472       824  TIP3  H2           10.8238957432        1.6283628804        7.0013348374  CLST         824          1.0000000000
      2473       825  TIP3  OH2          -4.7572142312      -11.7946459270      -14.1162942508  CLST         825          1.0000000000
      2474       825  TIP3  H1           -5.5400572445      -12.3264265902      -13.9700593921  CLST         825          1.0000000000
      2475       825  TIP3  H2           -5.1274327204      -11.1753749590      -13.4586283188  CLST         825          1.0000000000
      2476       826  TIP3  OH2           4.4452168407      -14.1411500476        2.2405303145  CLST         826          1.0000000000
      2477       826  TIP3  H1            4.2765876828      -15.1037045819        2.2463152235  CLST         826          1.0000000000
      2478       826  TIP3  H2            5.3371249150      -14.4341787522        2.3435155263  CLST         826          1.0000000000
      2479       827  TIP3  OH2         -10.2347746407        8.4393600425       -6.7173832728  CLST         827          1.0000000000
      2480       827  TIP3  H1           -9.4690528838        8.2844419718       -6.1186413794  CLST         827          1.0000000000
      2481       827  TIP3  H2          -10.5001113785        7.5513604273       -6.3929639121  CLST         827          1.0000000000
      2482       828  TIP3  OH2         -10.0899421421       -7.7523726715       11.2973706271  CLST         828          1.0000000000
      2483       828  TIP3  H1           -9.1989742844       -7.8713903726       11.6636759419  CLST         828          1.0000000000
      2484       828  TIP3  H2           -9.7285642955       -6.8565689263       11.1264784612  CLST         828          1.0000000000
      2485       829  TIP3  OH2           2.9876266170       13.5076716311        6.1734427755  CLST         829          1.0000000000
      2486       829  TIP3  H1            3.3603340040       13.8291380163        7.2111470029  CLST         829          1.0000000000
      2487       829  TIP3  H2            3.1884116125       14.5596456973        6.5408923410  CLST         829          1.0000000000
      2488       830  TIP3  OH2          13.9269797576        2.8521413066        9.0852089251  CLST         830          1.0000000000
      2489       830  TIP3  H1           14.4466243373        3.4014564479        9.7070829775  CLST         830          1.0000000000
      2490       830  TIP3  H2           14.6639575624        3.1243099056        8.5251764702  CLST         830          1.0000000000
      2491       831  TIP3  OH2           3.1362395151        2.5255746641        7.9807093577  CLST         831          1.0000000000
      2492       831  TIP3  H1            3.8844040319        3.1191092029        8.0032376785  CLST         831          1.0000000000
      2493       831  TIP3  H2            2.6078020175        3.3326573760        8.1166410820  CLST         831          1.0000000000
      2494       832  TIP3  OH2         -12.8011990930       -2.5294707314        1.1307611708  CLST         832          1.0000000000
      2495       832  TIP3  H1          -12.9809816835       -1.5979545468        1.0600319364  CLST         832          1.0000000000
      2496       832  TIP3  H2          -13.1751854027       -2.5024947636        2.0238322143  CLST         832          1.0000000000
      2497       833  TIP3  OH2           1.3977313219      -11.6663924002        5.4694031425  CLST         833          1.0000000000
      2498       833  TIP3  H1            1.9958465566      -11.2156398161        6.0606179273  CLST         833          1.0000000000
      2499       833  TIP3  H2            2.2002317136      -11.6881403398        4.9080325055  CLST         833          1.0000000000
      2500       834  TIP3  OH2           3.4480852357       -3.3434837061        4.3293725302  CLST         834          1.0000000000
      2501       834  TIP3  H1            2.8182274297       -2.6460763605        4.4772523469  CLST         834          1.0000000000
      2502       834  TIP3  H2            4.0972977932       -2.7524602677        4.6449467443  CLST         834          1.0000000000
      2503       835  TIP3  OH2           4.2670701237        2.6284302966        0.2366972374  CLST         835          1.0000000000
      2504       835  TIP3  H1            4.0122817092        2.6308123348       -0.6774293521  CLST         835          1.0000000000
      2505       835  TIP3  H2            4.0092278613        1.7072865420        0.1365794688  CLST         835          1.0000000000
      2506       836  TIP3  OH2           7.4611732516       -5.5392597183       -9.4298583844  CLST         836          1.0000000000
      2507       836  TIP3  H1            6.8587789650       -6.1488281587       -8.9987116254  CLST         836          1.0000000000
      2508       836  TIP3  H2            7.9915667165       -6.3426651621       -9.5582300446  CLST         836          1.0000000000
      2509       837  TIP3  OH2           3.1752126079        6.0825385352       -0.6564611339  CLST         837          1.0000000000
      2510       837  TIP3  H1            2.2999442188        5.8820603092       -1.0226235139  CLST         837          1.0000000000
      2511       837  TIP3  H2            2.6280137851        6.6941759041       -0.1219439737  CLST         837          1.0000000000
      2512       838  TIP3  OH2          -1.7392667945      -13.5607151650      -11.1472681865  CLST         838          1.0000000000
      2513       838  TIP3  H1           -1.5361723971      -14.5173005934      -10.9965315203  CLST         838          1.0000000000
      2514       838  TIP3  H2           -2.5455661669      -13.9729871546      -11.4591279679  CLST         838          1.0000000000
      2515       839  TIP3  OH2           1.4747209761       -7.1695324306       -1.3905368782  CLST         839          1.0000000000
      2516       839  TIP3  H1            1.2195085381       -7.6476517632       -0.5530406983  CLST         839          1.0000000000
      2517       839  TIP3  H2            0.5175007992       -7.1500458675       -1.6677794658  CLST         839          1.0000000000
      2518       840  TIP3  OH2          -7.5506546035       11.8128172803       10.6580812139  CLST         840          1.0000000000
      2519       840  TIP3  H1           -7.6272778359       11.2937878489       11.4698504576  CLST         840          1.0000000000
      2520       840  TIP3  H2           -7.0455107326       11.0796105684       10.2815883804  CLST         840          1.0000000000
      2521       841  TIP3  OH2          -8.5657748177       -7.6644839067       -4.2771007390  CLST         841          1.0000000000
      2522       841  TIP3  H1           -8.2764069338       -7.6369107998       -3.3663692687  CLST         841          1.0000000000
      2523       841  TIP3  H2           -7.6476853287       -7.6573578246       -4.5227683818  CLST         841          1.0000000000
      2524       842  TIP3  OH2          11.4906448886      -13.9469939992        0.2673619963  CLST         842          1.0000000000
      2525       842  TIP3  H1           11.1362850883      -14.5628831680        0.9399973399  CLST         842          1.0000000000
      2526       842  TIP3  H2           11.2415422190      -14.6326396254       -0.3327650820  CLST         842          1.0000000000
      2527       843  TIP3  OH2           9.5313929748       13.1246977049        3.6048234261  CLST         843          1.0000000000
      2528       843  TIP3  H1            8.8404719269       12.6961028543        4.1306993449  CLST         843          1.0000000000
      2529       843  TIP3  H2            8.8326170073       13.1910237056        2.9819164002  CLST         843          1.0000000000
      2530       844  TIP3  OH2           1.6157339888      -12.5412435031       -1.9283302767  CLST         844          1.0000000000
      2531       844  TIP3  H1            1.8210676275      -12.9389641673       -1.0712160081  CLST         844          1.0000000000
      2532       844  TIP3  H2            0.7232642301      -12.6544452641       -1.6023107045  CLST         844          1.0000000000
      2533       845  TIP3  OH2         -14.8401739174        4.3423916808       10.9402783612  CLST         845          1.0000000000
      2534       845  TIP3  H1          -14.7109616646        3.5432323926       11.4774018749  CLST         845          1.0000000000
      2535       845  TIP3  H2          -14.0377361567        4.8808628517       11.1052331560  CLST         845          1.0000000000
      2536       846  TIP3  OH2         -10.9586613315       -7.6638029393        2.4916809891  CLST         846          1.0000000000
      2537       846  TIP3  H1          -11.7450451984       -8.1489310182        2.7794013688  CLST         846          1.0000000000
      2538       846  TIP3  H2          -11.5031272039       -6.8804994317        2.4045206871  CLST         846          1.0000000000
      2539       847  TIP3  OH2           4.6977499827        9.4634771035        5.2299096977  CLST         847          1.0000000000
      2540       847  TIP3  H1            4.8181420729       10.4405399706        5.2449130919  CLST         847          1.0000000000
      2541       847  TIP3  H2            5.3574389145        9.4706502932        5.9374293140  CLST         847          1.0000000000
      2542       848  TIP3  OH2          -9.2321638996        5.5000698967       -9.6726056057  CLST         848          1.0000000000
      2543       848  TIP3  H1          -10.2371829554        5.5262423837      -10.1044898055  CLST         848          1.0000000000
      2544       848  TIP3  H2          -10.0151564792        6.3393721057       -9.5897190895  CLST         848          1.0000000000
      2545       849  TIP3  OH2          -1.5348172893        1.7748397033        0.2728762743  CLST         849          1.0000000000
      2546       849  TIP3  H1           -0.6405284657        2.2439917976        0.4064848784  CLST         849          1.0000000000
      2547       849  TIP3  H2           -1.8068197267        1.8345255862       -0.6582539933  CLST         849          1.0000000000
      2548       850  TIP3  OH2           5.3856783166       -6.4154859028        5.6583252007  CLST         850          1.0000000000
      2549       850  TIP3  H1            4.7725777200       -6.3030240430        6.4120806710  CLST         850          1.0000000000
      2550       850  TIP3  H2            5.9286358053       -5.8173508143        6.1812569052  CLST         850          1.0000000000
      2551       851  TIP3  OH2           8.0500775352        6.2562711847        5.3300171402  CLST         851          1.0000000000
      2552       851  TIP3  H1            8.1623695767        6.7049990276        6.1454122487  CLST         851          1.0000000000
      2553       851  TIP3  H2            8.5744118955        6.9849576362        4.9348862120  CLST         851          1.0000000000
      2554       852  TIP3  OH2           9.3128225457        4.1259486705        1.4975446703  CLST         852          1.0000000000
      2555       852  TIP3  H1            9.2632584325        3.9864680260        2.4603676810  CLST         852          1.0000000000
      2556       852  TIP3  H2            8.3672530706        4.2849764276        1.5747671691  CLST         852          1.0000000000
      2557       853  TIP3  OH2           8.9279757194       -4.9915012851       -3.2933296486  CLST         853          1.0000000000
      2558       853  TIP3  H1            8.2542170224       -4.7307924125       -3.9800656270  CLST         853          1.0000000000
      2559       853  TIP3  H2            8.0714826765       -4.8324946737       -2.8034994873  CLST         853          1.0000000000
      2560       854  TIP3  OH2         -10.7848308216       -9.1703775492       -6.0482075390  CLST         854          1.0000000000
      2561       854  TIP3  H1          -10.0784356994       -8.5051794861       -5.8306091454  CLST         854          1.0000000000
      2562       854  TIP3  H2          -10.8227003617       -9.1658339784       -5.0533664940  CLST         854          1.0000000000
      2563       855  TIP3  OH2           2.5988746669       -3.3167065670       -6.9942133230  CLST         855          1.0000000000
      2564       855  TIP3  H1            2.2461186962       -2.9371759168       -6.1733246562  CLST         855          1.0000000000
      2565       855  TIP3  H2            2.9139711469       -2.4128226046       -7.1490116252  CLST         855          1.0000000000
      2566       856  TIP3  OH2           3.0768228681      -12.9585476366        0.2043054690  CLST         856          1.0000000000
      2567       856  TIP3  H1            3.7408911493      -12.2386097433        0.0870985784  CLST         856          1.0000000000
      2568       856  TIP3  H2            3.7429700968      -13.3144052358        0.8352368469  CLST         856          1.0000000000
      2569       857  TIP3  OH2          -3.0638347173       -5.8124806389       11.0780272573  CLST         857          1.0000000000
      2570       857  TIP3  H1           -3.6003247625       -5.9099547162       11.8906409337  CLST         857          1.0000000000
      2571       857  TIP3  H2           -2.9607059705       -4.8530438153       11.1826677433  CLST         857          1.0000000000
      2572       858  TIP3  OH2           5.9167237249      -14.5087817945       12.9341391161  CLST         858          1.0000000000
      2573       858  TIP3  H1            6.3210675320      -15.1037045819       13.5365201142  CLST         858          1.0000000000
      2574       858  TIP3  H2            5.3577980846      -14.0500094232       13.5296063464  CLST         858          1.0000000000
      2575       859  TIP3  OH2          -8.7017687400       -1.4695708545      -12.8775576216  CLST         859          1.0000000000
      2576       859  TIP3  H1           -7.8941554115       -2.0213458531      -12.9420134249  CLST         859          1.0000000000
      2577       859  TIP3  H2           -8.1814059848       -1.1263245920      -12.1106207192  CLST         859          1.0000000000
      2578       860  TIP3  OH2          -9.7121011150       -6.2811887909       -0.9476444894  CLST         860          1.0000000000
      2579       860  TIP3  H1           -9.3919008990       -5.6108895108       -1.6149153743  CLST         860          1.0000000000
      2580       860  TIP3  H2           -8.8798500441       -6.7610155592       -1.2176099091  CLST         860          1.0000000000
      2581       861  TIP3  OH2           4.8792974323      -10.1249403421       -4.5256861794  CLST         861          1.0000000000
      2582       861  TIP3  H1            4.6854709353      -10.1664266924       -3.5869407175  CLST         861          1.0000000000
      2583       861  TIP3  H2            4.7819235749      -11.0579486195       -4.4802937414  CLST         861          1.0000000000
      2584       862  TIP3  OH2         -11.0449968524       -2.8082114556      -12.6720194497  CLST         862          1.0000000000
      2585       862  TIP3  H1          -10.2410413286       -2.2831829117      -12.8660814458  CLST         862          1.0000000000
      2586       862  TIP3  H2          -10.6046077704       -2.9334662487      -11.8323506726  CLST         862          1.0000000000
      2587       863  TIP3  OH2          10.7594911581      -10.8001347762       -8.6110217760  CLST         863          1.0000000000
      2588       863  TIP3  H1           11.5121884720      -10.5060404083       -8.0780704829  CLST         863          1.0000000000
      2589       863  TIP3  H2           11.3995612788      -11.0768574930       -9.2803199604  CLST         863          1.0000000000
      2590       864  TIP3  OH2         -13.7289601094        3.4832522764        3.0784916862  CLST         864          1.0000000000
      2591       864  TIP3  H1          -14.6305643157        3.1445809505        3.1113044542  CLST         864          1.0000000000
      2592       864  TIP3  H2          -14.1839275731        4.3340473149        3.1723222142  CLST         864          1.0000000000
      2593       865  TIP3  OH2          12.6461253502        8.7404719976      -11.2422660593  CLST         865          1.0000000000
      2594       865  TIP3  H1           13.0817717596        7.8829279128      -11.3741770833  CLST         865          1.0000000000
      2595       865  TIP3  H2           13.0559074362        8.7178568089      -10.3885008468  CLST         865          1.0000000000
      2596       866  TIP3  OH2           6.6718653385      -10.2637697457       -8.2953485769  CLST         866          1.0000000000
      2597       866  TIP3  H1            6.2154683800      -11.0578664612       -8.0504485540  CLST         866          1.0000000000
      2598       866  TIP3  H2            7.1570709333      -10.6862683777       -9.0034351269  CLST         866          1.0000000000
      2599       867  TIP3  OH2          -8.3440144551       12.1888129577       -3.2741976523  CLST         867          1.0000000000
      2600       867  TIP3  H1           -9.0341721703       12.0451091086       -2.5354500540  CLST         867          1.0000000000
      2601       867  TIP3  H2           -7.9417765620       12.9240408022       -2.7617577994  CLST         867          1.0000000000
      2602       868  TIP3  OH2          -9.7818601150       13.2176254665       10.1758532572  CLST         868          1.0000000000
      2603       868  TIP3  H1           -9.0563281358       12.6562311070       10.5094036255  CLST         868          1.0000000000
      2604       868  TIP3  H2           -9.0119099442       13.6983815167        9.8943019987  CLST         868          1.0000000000
      2605       869  TIP3  OH2           3.2848103930       -1.4900466952        1.1910821476  CLST         869          1.0000000000
      2606       869  TIP3  H1            2.2903308335       -1.7024625495        1.0562290426  CLST         869          1.0000000000
      2607       869  TIP3  H2            3.0041411464       -1.0088493649        1.9915175032  CLST         869          1.0000000000
      2608       870  TIP3  OH2          -7.0386919886       -3.6015320248      -13.0098902712  CLST         870          1.0000000000
      2609       870  TIP3  H1           -6.0498896403       -3.6735803138      -12.9062785955  CLST         870          1.0000000000
      2610       870  TIP3  H2           -6.7796507966       -4.0653250900      -13.8440790448  CLST         870          1.0000000000
      2611       871  TIP3  OH2          -7.1515357590        2.2416963379       -9.8007170021  CLST         871          1.0000000000
      2612       871  TIP3  H1           -7.6396469742        2.7844344137      -10.4085341515  CLST         871          1.0000000000
      2613       871  TIP3  H2           -8.0716543685        2.2150604162       -9.4451184761  CLST         871          1.0000000000
      2614       872  TIP3  OH2         -13.0147877046       11.6314137631      -10.1017336174  CLST         872          1.0000000000
      2615       872  TIP3  H1          -13.0374824072       11.6473234337      -10.9440548690  CLST         872          1.0000000000
      2616       872  TIP3  H2          -13.0547625750       10.6642461105      -10.7241925495  CLST         872          1.0000000000
      2617       873  TIP3  OH2          11.9034330276       -4.5258118366       -9.8283057005  CLST         873          1.0000000000
      2618       873  TIP3  H1           11.4184942557       -3.6951430448       -9.9816694564  CLST         873          1.0000000000
      2619       873  TIP3  H2           11.9318914281       -4.5602399245      -10.8051304689  CLST         873          1.0000000000
      2620       874  TIP3  OH2          12.9163385252        8.4721850427       -8.6922357999  CLST         874          1.0000000000
      2621       874  TIP3  H1           13.1702231407        7.7812035220       -7.9918895847  CLST         874          1.0000000000
      2622       874  TIP3  H2           11.9931103062        8.1913809257       -8.5056484648  CLST         874          1.0000000000
      2623       875  TIP3  OH2           1.3170289787       -1.5659928434      -12.4436218957  CLST         875          1.0000000000
      2624       875  TIP3  H1            2.1581761898       -1.8787513011      -12.7435465124  CLST         875          1.0000000000
      2625       875  TIP3  H2            1.0000550034       -1.8546119449      -13.2922996569  CLST         875          1.0000000000
      2626       876  TIP3  OH2           9.1126359508        7.2294935698      -12.0451712269  CLST         876          1.0000000000
      2627       876  TIP3  H1            8.7786394738        6.7341591973      -12.7651514181  CLST         876          1.0000000000
      2628       876  TIP3  H2            8.2460907868        7.1770277240      -11.6187867460  CLST         876          1.0000000000
      2629       877  TIP3  OH2          -7.0437861770      -13.2801645562       -5.0821792470  CLST         877          1.0000000000
      2630       877  TIP3  H1           -7.6282536117      -12.7759283544       -4.4991389963  CLST         877          1.0000000000
      2631       877  TIP3  H2           -6.3633133848      -12.6663860791       -4.8130784241  CLST         877          1.0000000000
      2632       878  TIP3  OH2           5.6166873109      -11.0855348733        7.0031808732  CLST         878          1.0000000000
      2633       878  TIP3  H1            5.3837394502      -11.0851935260        6.0908094529  CLST         878          1.0000000000
      2634       878  TIP3  H2            5.6473941539      -10.1489526439        6.9410377160  CLST         878          1.0000000000
      2635       879  TIP3  OH2           2.9384436631        5.3331663324       -7.0720051204  CLST         879          1.0000000000
      2636       879  TIP3  H1            3.6626437385        5.9745831032       -7.1968451309  CLST         879          1.0000000000
      2637       879  TIP3  H2            3.4122465773        5.3361155124       -6.1978252345  CLST         879          1.0000000000
      2638       880  TIP3  OH2          -5.4468154000       -1.7256233174       14.8931042407  CLST         880          1.0000000000
      2639       880  TIP3  H1           -6.1737432941       -2.3457063754       14.6347000694  CLST         880          1.0000000000
      2640       880  TIP3  H2           -6.0428714252       -1.1496044348       14.4176455283  CLST         880          1.0000000000
      2641       881  TIP3  OH2          -0.5525719575       13.5026035383        8.5964945178  CLST         881          1.0000000000
      2642       881  TIP3  H1           -0.4232553646       13.4076117137        7.6184234202  CLST         881          1.0000000000
      2643       881  TIP3  H2           -1.4478222565       13.2905688567        8.2505568935  CLST         881          1.0000000000
      2644       882  TIP3  OH2          11.9963996942       -1.9003170219       -1.2292875316  CLST         882          1.0000000000
      2645       882  TIP3  H1           11.1815466499       -1.8915531232       -1.6287409426  CLST         882          1.0000000000
      2646       882  TIP3  H2           11.7683741699       -2.6250460942       -0.6508711405  CLST         882          1.0000000000
      2647       883  TIP3  OH2           1.7425265179       -9.7080914162       -4.4950612434  CLST         883          1.0000000000
      2648       883  TIP3  H1            2.5701136196       -9.5852140608       -4.0095833270  CLST         883          1.0000000000
      2649       883  TIP3  H2            2.2780143808       -9.7131513575       -5.2994359779  CLST         883          1.0000000000
      2650       884  TIP3  OH2         -14.1803042790       -5.7621703936      -12.9663352281  CLST         884          1.0000000000
      2651       884  TIP3  H1          -13.6737635631       -6.7830106932      -12.9223769205  CLST         884          1.0000000000
      2652       884  TIP3  H2          -14.6750108455       -6.5060254032      -12.6401671600  CLST         884          1.0000000000
      2653       885  TIP3  OH2           0.7513988953       14.6815364212       -0.6662600930  CLST         885          1.0000000000
      2654       885  TIP3  H1           -0.1772375424       14.7050523384       -0.4118983435  CLST         885          1.0000000000
      2655       885  TIP3  H2            0.8054238789       13.8850074568       -0.1230083276  CLST         885          1.0000000000
      2656       886  TIP3  OH2          11.8164587431       10.1324134147        4.0865268971  CLST         886          1.0000000000
      2657       886  TIP3  H1           12.1495339306        9.4736086035        4.7377907859  CLST         886          1.0000000000
      2658       886  TIP3  H2           11.4523535140       10.3822132585        5.0155635115  CLST         886          1.0000000000
      2659       887  TIP3  OH2          -7.3965196149       -8.0512005207       -1.8491655519  CLST         887          1.0000000000
      2660       887  TIP3  H1           -7.1393343949       -8.9573436918       -2.0129188948  CLST         887          1.0000000000
      2661       887  TIP3  H2           -6.4363799435       -7.9471022523       -1.7768682689  CLST         887          1.0000000000
      2662       888  TIP3  OH2         -12.9182002885       -3.0494288616       10.5074534548  CLST         888          1.0000000000
      2663       888  TIP3  H1          -13.2784763659       -2.9336003723       11.4461956674  CLST         888          1.0000000000
      2664       888  TIP3  H2          -12.4972513455       -2.1864392292       10.7678238426  CLST         888          1.0000000000
      2665       889  TIP3  OH2           4.9317076473      -12.9411701997        8.7540330491  CLST         889          1.0000000000
      2666       889  TIP3  H1            5.1392293999      -12.5810569533        7.8980090380  CLST         889          1.0000000000
      2667       889  TIP3  H2            5.0221324445      -12.0275737267        9.0690623484  CLST         889          1.0000000000
      2668       890  TIP3  OH2         -13.3268992153        5.9688487382       -9.4201499168  CLST         890          1.0000000000
      2669       890  TIP3  H1          -13.3149672866        6.5834296025      -10.1835843737  CLST         890          1.0000000000
      2670       890  TIP3  H2          -14.2622410095        6.2142295852       -9.4102771924  CLST         890          1.0000000000
      2671       891  TIP3  OH2         -12.6736119463       -5.7566818864       10.9225656502  CLST         891          1.0000000000
      2672       891  TIP3  H1          -12.8899179395       -4.8475640508       10.6333374601  CLST         891          1.0000000000
      2673       891  TIP3  H2          -12.4731781938       -5.7910920965        9.9596501106  CLST         891          1.0000000000
      2674       892  TIP3  OH2           3.0376241815       13.6344537171       13.4717620014  CLST         892          1.0000000000
      2675       892  TIP3  H1            3.1260356312       14.2661723317       14.1894380426  CLST         892          1.0000000000
      2676       892  TIP3  H2            3.3165631872       13.0500839654       14.2045801727  CLST         892          1.0000000000
      2677       893  TIP3  OH2          -0.2620550572        7.3242007854        3.1470788572  CLST         893          1.0000000000
      2678       893  TIP3  H1           -0.9525941107        6.6510998004        3.0709188807  CLST         893          1.0000000000
      2679       893  TIP3  H2           -0.9513184604        7.9051127259        2.8282918291  CLST         893          1.0000000000
      2680       894  TIP3  OH2           9.3133399469       11.2121035308        0.4588021072  CLST         894          1.0000000000
      2681       894  TIP3  H1            9.9458646749       11.7610020854        0.9188771410  CLST         894          1.0000000000
      2682       894  TIP3  H2            8.5522232288       11.6921997710        0.1925784000  CLST         894          1.0000000000
      2683       895  TIP3  OH2          -9.9930688232       10.4523662937      -10.6964357080  CLST         895          1.0000000000
      2684       895  TIP3  H1          -10.4473742779       11.2138564363      -10.3432600905  CLST         895          1.0000000000
      2685       895  TIP3  H2           -9.2983242326       11.0980440058      -10.8216820968  CLST         895          1.0000000000
      2686       896  TIP3  OH2           7.9572210005       -6.7086556855       -0.4315674026  CLST         896          1.0000000000
      2687       896  TIP3  H1            7.3032364663       -6.8637882278       -1.1553857771  CLST         896          1.0000000000
      2688       896  TIP3  H2            8.5081727991       -7.1726100174       -1.1024274227  CLST         896          1.0000000000
      2689       897  TIP3  OH2           9.5978236456       -2.4153930275       -9.1143955245  CLST         897          1.0000000000
      2690       897  TIP3  H1            9.3434012976       -2.7915904899       -8.2624887078  CLST         897          1.0000000000
      2691       897  TIP3  H2            9.4666448223       -1.5605446046       -8.6666964838  CLST         897          1.0000000000
      2692       898  TIP3  OH2          13.8786310017        5.9753496439      -11.8839749440  CLST         898          1.0000000000
      2693       898  TIP3  H1           14.1549034027        5.1643801943      -11.4180674453  CLST         898          1.0000000000
      2694       898  TIP3  H2           12.9789480833        5.8617512731      -11.4668309024  CLST         898          1.0000000000
      2695       899  TIP3  OH2          14.2556011607       -6.7508760633        1.5908316531  CLST         899          1.0000000000
      2696       899  TIP3  H1           14.2751963990       -7.7040596594        1.3817441186  CLST         899          1.0000000000
      2697       899  TIP3  H2           13.8087537483       -6.8299535163        2.4633088762  CLST         899          1.0000000000
      2698       900  TIP3  OH2          -9.7955152527      -10.3341518700        9.9992824878  CLST         900          1.0000000000
      2699       900  TIP3  H1           -9.8613606781       -9.4808058299       10.5444704990  CLST         900          1.0000000000
      2700       900  TIP3  H2           -9.0391963124       -9.8312775987        9.6559939724  CLST         900          1.0000000000
      2701       901  TIP3  OH2          10.2350627603        8.5911058637       -8.7380826151  CLST         901          1.0000000000
      2702       901  TIP3  H1           10.2121377685        9.1973572669       -9.4503263696  CLST         901          1.0000000000
      2703       901  TIP3  H2            9.3177552829        8.4704330869       -8.7982489111  CLST         901          1.0000000000
      2704       902  TIP3  OH2           3.7538287685        0.3765644074        9.8688237468  CLST         902          1.0000000000
      2705       902  TIP3  H1            4.0631324592       -0.0858897779        9.0747222983  CLST         902          1.0000000000
      2706       902  TIP3  H2            3.4620511708        1.1456982824        9.3325678861  CLST         902          1.0000000000
      2707       903  TIP3  OH2          -0.9115546921        0.7386015515       -8.2576131902  CLST         903          1.0000000000
      2708       903  TIP3  H1           -0.7096441088        0.6377459142       -9.2115201233  CLST         903          1.0000000000
      2709       903  TIP3  H2           -0.3573557817       -0.0244094750       -8.1892157580  CLST         903          1.0000000000
