* Geometry rescue: EQUI at step 2000
*
        2709  EXT
         1         1  TIP3  OH2           5.4696691455        0.8711723343       -3.5094831431  CLST           1          1.0000000000
         2         1  TIP3  H1            5.0136793199        0.6228157024       -2.6532700478  CLST           1          1.0000000000
         3         1  TIP3  H2            4.6482687299        1.0401941483       -4.0805269076  CLST           1          1.0000000000
         4         2  TIP3  OH2          14.5856292919       -2.0522231393       -1.5227798310  CLST           2          1.0000000000
         5         2  TIP3  H1           13.6552231725       -2.1973305217       -1.3415524722  CLST           2          1.0000000000
         6         2  TIP3  H2           14.9136232198       -3.0180140446       -1.4987173658  CLST           2          1.0000000000
         7         3  TIP3  OH2          -8.4652162112       -6.5276690394       -7.6306575597  CLST           3          1.0000000000
         8         3  TIP3  H1           -9.4479083162       -6.3042266064       -7.6134455646  CLST           3          1.0000000000
         9         3  TIP3  H2           -8.3107393513       -6.6324685150       -8.6008782560  CLST           3          1.0000000000
        10         4  TIP3  OH2          -9.3238986464       -3.9962257908       12.8901153958  CLST           4          1.0000000000
        11         4  TIP3  H1          -10.1105298614       -4.5557537092       13.0653984835  CLST           4          1.0000000000
        12         4  TIP3  H2           -9.1637088945       -4.2771618316       11.9540896552  CLST           4          1.0000000000
        13         5  TIP3  OH2          -3.3596342713      -10.3149613031       14.4876225211  CLST           5          1.0000000000
        14         5  TIP3  H1           -3.9085286748      -11.0197540634       14.9035230541  CLST           5          1.0000000000
        15         5  TIP3  H2           -3.3054417881      -10.6135294770       13.5249613938  CLST           5          1.0000000000
        16         6  TIP3  OH2          -3.4836972479        9.5755821762       14.1083730232  CLST           6          1.0000000000
        17         6  TIP3  H1           -2.5447994406        9.8172105402       14.1208380314  CLST           6          1.0000000000
        18         6  TIP3  H2           -3.7202130666        9.3645444864       14.9945194475  CLST           6          1.0000000000
        19         7  TIP3  OH2          -5.0997144773       -1.2189210584        8.7081446811  CLST           7          1.0000000000
        20         7  TIP3  H1           -4.6790267294       -0.8595051030        7.8554755239  CLST           7          1.0000000000
        21         7  TIP3  H2           -5.5287752448       -1.9764369930        8.2601571996  CLST           7          1.0000000000
        22         8  TIP3  OH2          -7.3335412350       -4.3728335761       -1.1162577588  CLST           8          1.0000000000
        23         8  TIP3  H1           -7.7316486583       -4.6986492721       -0.2776776576  CLST           8          1.0000000000
        24         8  TIP3  H2           -6.5065486208       -4.8915434311       -1.1324212497  CLST           8          1.0000000000
        25         9  TIP3  OH2         -13.1115292588       -5.3206765002        0.1996325367  CLST           9          1.0000000000
        26         9  TIP3  H1          -14.0384744371       -5.1478363323       -0.0882594667  CLST           9          1.0000000000
        27         9  TIP3  H2          -12.8674354249       -4.3591470838        0.2325628096  CLST           9          1.0000000000
        28        10  TIP3  OH2          -4.4968848739        8.1217501999       -8.5243681820  CLST          10          1.0000000000
        29        10  TIP3  H1           -4.6503982694        9.0610822188       -8.4837353019  CLST          10          1.0000000000
        30        10  TIP3  H2           -3.6100192799        7.9137366580       -8.8748077976  CLST          10          1.0000000000
        31        11  TIP3  OH2           5.7445367046       12.6258216765       10.6118857720  CLST          11          1.0000000000
        32        11  TIP3  H1            5.0851164012       13.2835755256       10.9149670053  CLST          11          1.0000000000
        33        11  TIP3  H2            5.2498256276       11.7850252941       10.8031554274  CLST          11          1.0000000000
        34        12  TIP3  OH2         -11.8656993931      -13.4606944784       -3.1687347006  CLST          12          1.0000000000
        35        12  TIP3  H1          -12.4897746117      -12.7384188728       -2.9934543966  CLST          12          1.0000000000
        36        12  TIP3  H2          -12.1971270987      -13.6695696024       -4.0846167217  CLST          12          1.0000000000
        37        13  TIP3  OH2          -0.4904107189      -10.8309492216        3.0707160495  CLST          13          1.0000000000
        38        13  TIP3  H1            0.3743275284      -11.2770092587        3.0539560924  CLST          13          1.0000000000
        39        13  TIP3  H2           -0.2240969817      -10.0111311814        3.5161733909  CLST          13          1.0000000000
        40        14  TIP3  OH2          -1.8415855098        4.8272632888        7.9181013170  CLST          14          1.0000000000
        41        14  TIP3  H1           -1.8722614907        5.0497498733        8.8459236165  CLST          14          1.0000000000
        42        14  TIP3  H2           -0.9508622903        4.7067079120        7.5718124269  CLST          14          1.0000000000
        43        15  TIP3  OH2           1.3479401525       -1.0142420684       -4.7088825861  CLST          15          1.0000000000
        44        15  TIP3  H1            0.5820301529       -0.5665661073       -4.2527705095  CLST          15          1.0000000000
        45        15  TIP3  H2            1.4018943637       -1.8697117963       -4.2200227052  CLST          15          1.0000000000
        46        16  TIP3  OH2          -4.5113290174       -6.0729148596       13.4917826468  CLST          16          1.0000000000
        47        16  TIP3  H1           -3.9243169027       -6.8010767832       13.6554661188  CLST          16          1.0000000000
        48        16  TIP3  H2           -5.1008921576       -6.0308476050       14.2671484164  CLST          16          1.0000000000
        49        17  TIP3  OH2           8.1605967834       -0.4447466805        2.6601398528  CLST          17          1.0000000000
        50        17  TIP3  H1            7.7098898889       -1.2289436982        3.0816251311  CLST          17          1.0000000000
        51        17  TIP3  H2            8.7407422123       -0.9314670209        2.0157209555  CLST          17          1.0000000000
        52        18  TIP3  OH2           2.5158933453       -8.5306535392       -8.8810333894  CLST          18          1.0000000000
        53        18  TIP3  H1            3.1217574272       -7.7772840982       -8.5741115927  CLST          18          1.0000000000
        54        18  TIP3  H2            2.7221528641       -9.2297076885       -8.1239696582  CLST          18          1.0000000000
        55        19  TIP3  OH2           6.6487633331        7.7676363079       14.2859948903  CLST          19          1.0000000000
        56        19  TIP3  H1            7.3218991076        7.0976860882       14.6273266718  CLST          19          1.0000000000
        57        19  TIP3  H2            6.6199817025        8.4262283073       14.9945194475  CLST          19          1.0000000000
        58        20  TIP3  OH2           4.1650094841        9.3835604256        8.9111666542  CLST          20          1.0000000000
        59        20  TIP3  H1            3.2724542660        9.8122141461        8.7732103879  CLST          20          1.0000000000
        60        20  TIP3  H2            3.8639095652        8.5891821943        8.3858903019  CLST          20          1.0000000000
        61        21  TIP3  OH2           0.5813535290       -8.1921038849        0.9217786954  CLST          21          1.0000000000
        62        21  TIP3  H1            0.6377024764       -8.0027398984        1.8835900467  CLST          21          1.0000000000
        63        21  TIP3  H2           -0.3019982301       -8.5667638782        0.8010617987  CLST          21          1.0000000000
        64        22  TIP3  OH2          11.5454889184       -9.5667529541       10.3805011027  CLST          22          1.0000000000
        65        22  TIP3  H1           11.0021079591       -9.1718751013        9.6666689914  CLST          22          1.0000000000
        66        22  TIP3  H2           11.6289548128      -10.5097584146       10.0339554613  CLST          22          1.0000000000
        67        23  TIP3  OH2          12.1643940833      -14.9017453287      -11.0268265661  CLST          23          1.0000000000
        68        23  TIP3  H1           12.3872424939      -14.7987623332      -10.0034639455  CLST          23          1.0000000000
        69        23  TIP3  H2           13.1188308020      -14.8284000187      -11.2531383418  CLST          23          1.0000000000
        70        24  TIP3  OH2          13.2096309416       -7.5131959115       14.2691132014  CLST          24          1.0000000000
        71        24  TIP3  H1           12.5873209791       -7.4835796223       13.4894738620  CLST          24          1.0000000000
        72        24  TIP3  H2           12.4920196380       -7.8838160452       14.8237742565  CLST          24          1.0000000000
        73        25  TIP3  OH2           0.1758841766       -5.7751185508        5.6776980141  CLST          25          1.0000000000
        74        25  TIP3  H1           -0.5961246649       -5.6063231649        5.1106160877  CLST          25          1.0000000000
        75        25  TIP3  H2            0.0273603151       -6.6127860605        6.1020828454  CLST          25          1.0000000000
        76        26  TIP3  OH2          -5.5942946751       -5.4187516926       -8.0289002231  CLST          26          1.0000000000
        77        26  TIP3  H1           -6.3310826737       -6.0533202438       -8.0257067453  CLST          26          1.0000000000
        78        26  TIP3  H2           -5.1689750103       -5.6592967129       -8.8981664329  CLST          26          1.0000000000
        79        27  TIP3  OH2           4.1262042623       12.3777327069       -1.0346845306  CLST          27          1.0000000000
        80        27  TIP3  H1            5.0275155846       12.1390162640       -0.6879917414  CLST          27          1.0000000000
        81        27  TIP3  H2            4.2005347181       13.3785799439       -0.9656209966  CLST          27          1.0000000000
        82        28  TIP3  OH2          -5.2112634848       -5.9501131031        6.5006416215  CLST          28          1.0000000000
        83        28  TIP3  H1           -4.2217837990       -6.0694279949        6.6343848516  CLST          28          1.0000000000
        84        28  TIP3  H2           -5.3028473207       -6.4284284431        5.6423359428  CLST          28          1.0000000000
        85        29  TIP3  OH2           4.0298933382      -10.3085448603       13.4026284597  CLST          29          1.0000000000
        86        29  TIP3  H1            4.7990894898       -9.6964749807       13.3451562265  CLST          29          1.0000000000
        87        29  TIP3  H2            3.3551049211       -9.5868710581       13.2665894367  CLST          29          1.0000000000
        88        30  TIP3  OH2          -1.1121025018       -3.3267082099       11.9419388657  CLST          30          1.0000000000
        89        30  TIP3  H1           -1.1661985637       -4.1017886306       12.5635208398  CLST          30          1.0000000000
        90        30  TIP3  H2           -0.8769761363       -2.6446962371       12.6188804288  CLST          30          1.0000000000
        91        31  TIP3  OH2          -5.4597057030      -10.0534201886       -9.6779270353  CLST          31          1.0000000000
        92        31  TIP3  H1           -6.4404118833       -9.8717172214       -9.5158382070  CLST          31          1.0000000000
        93        31  TIP3  H2           -5.1094393780       -9.3787513771       -9.0552326879  CLST          31          1.0000000000
        94        32  TIP3  OH2           4.3483678836        6.4404346492       14.7703298106  CLST          32          1.0000000000
        95        32  TIP3  H1            5.0771442464        6.7323361954       14.1962747817  CLST          32          1.0000000000
        96        32  TIP3  H2            3.5703594451        6.5150468877       14.1857848579  CLST          32          1.0000000000
        97        33  TIP3  OH2           1.5641952257       -5.6464359420       11.9333717945  CLST          33          1.0000000000
        98        33  TIP3  H1            1.3975221827       -4.8773544283       12.5454448940  CLST          33          1.0000000000
        99        33  TIP3  H2            1.6660610621       -5.0776283933       11.0965961373  CLST          33          1.0000000000
       100        34  TIP3  OH2         -12.5203634776       -6.4525440213        5.6685356424  CLST          34          1.0000000000
       101        34  TIP3  H1          -12.4799629725       -6.1910454735        4.7327934006  CLST          34          1.0000000000
       102        34  TIP3  H2          -13.5435451753       -6.4054327823        5.7062334460  CLST          34          1.0000000000
       103        35  TIP3  OH2         -12.6146767094        9.5016342044       14.1010579554  CLST          35          1.0000000000
       104        35  TIP3  H1          -13.2441261764        9.9304866145       13.4634528874  CLST          35          1.0000000000
       105        35  TIP3  H2          -13.0335366990        9.5554094509       14.9593763244  CLST          35          1.0000000000
       106        36  TIP3  OH2           6.7188958330       -8.5854081642      -11.9034925717  CLST          36          1.0000000000
       107        36  TIP3  H1            7.3606903756       -8.5812049397      -11.1564992678  CLST          36          1.0000000000
       108        36  TIP3  H2            7.1661695419       -9.1676917383      -12.5703588186  CLST          36          1.0000000000
       109        37  TIP3  OH2          10.2845062675      -11.9535043773        6.5019052133  CLST          37          1.0000000000
       110        37  TIP3  H1            9.3993327159      -11.7943364974        6.8743823467  CLST          37          1.0000000000
       111        37  TIP3  H2           10.7112585058      -12.2806037033        7.2955871317  CLST          37          1.0000000000
       112        38  TIP3  OH2           6.0283237056      -12.4131084006       -0.2678285547  CLST          38          1.0000000000
       113        38  TIP3  H1            6.8871670763      -12.7998829045       -0.0843565185  CLST          38          1.0000000000
       114        38  TIP3  H2            5.6989859303      -12.7565753532       -1.1158172989  CLST          38          1.0000000000
       115        39  TIP3  OH2          13.3048673799        6.4612692936       -6.8943435774  CLST          39          1.0000000000
       116        39  TIP3  H1           13.3725982030        5.4823894330       -7.1389014027  CLST          39          1.0000000000
       117        39  TIP3  H2           12.5734401501        6.3351710254       -6.2661531087  CLST          39          1.0000000000
       118        40  TIP3  OH2          -4.9115003101       14.4328178007       -5.8202399572  CLST          40          1.0000000000
       119        40  TIP3  H1           -5.5829856992       14.8047084001       -5.2376611684  CLST          40          1.0000000000
       120        40  TIP3  H2           -4.4973443714       13.8018831991       -5.1635965374  CLST          40          1.0000000000
       121        41  TIP3  OH2          11.2455102051        5.7396253309      -11.0058142420  CLST          41          1.0000000000
       122        41  TIP3  H1           11.0259364748        5.2833561819      -11.8393153495  CLST          41          1.0000000000
       123        41  TIP3  H2           10.6711943994        6.5415485391      -11.1325376540  CLST          41          1.0000000000
       124        42  TIP3  OH2          -1.2191377917       -6.8139214443       -2.2666361673  CLST          42          1.0000000000
       125        42  TIP3  H1           -1.5561389689       -5.9259224049       -2.4598823613  CLST          42          1.0000000000
       126        42  TIP3  H2           -1.2780302773       -7.1763192416       -3.2057701126  CLST          42          1.0000000000
       127        43  TIP3  OH2           9.9404712260      -11.0860980309       -2.0014492932  CLST          43          1.0000000000
       128        43  TIP3  H1            9.6764973421      -11.2593164662       -1.0455588424  CLST          43          1.0000000000
       129        43  TIP3  H2            9.3086204964      -11.8061668132       -2.2891380551  CLST          43          1.0000000000
       130        44  TIP3  OH2           0.5786856018       -3.1655606829        6.3682013840  CLST          44          1.0000000000
       131        44  TIP3  H1           -0.3516270942       -2.9584362892        6.6661266421  CLST          44          1.0000000000
       132        44  TIP3  H2            0.4643909594       -4.1309147864        6.2386417198  CLST          44          1.0000000000
       133        45  TIP3  OH2           4.8892711130       -6.5354128691        9.1895389559  CLST          45          1.0000000000
       134        45  TIP3  H1            4.8719481198       -5.5905120007        8.9241315204  CLST          45          1.0000000000
       135        45  TIP3  H2            4.9854052484       -6.5172386330       10.1880572539  CLST          45          1.0000000000
       136        46  TIP3  OH2           7.7212712032        4.7082010246       -8.1476210769  CLST          46          1.0000000000
       137        46  TIP3  H1            7.3533379030        5.1536313922       -7.3375713157  CLST          46          1.0000000000
       138        46  TIP3  H2            7.0774187639        5.1023025279       -8.7555623319  CLST          46          1.0000000000
       139        47  TIP3  OH2         -10.8928902153      -11.0352974690        3.4100632619  CLST          47          1.0000000000
       140        47  TIP3  H1          -11.2975181118      -10.3916827128        4.0257519451  CLST          47          1.0000000000
       141        47  TIP3  H2          -10.6393797931      -11.7609931611        4.0372781032  CLST          47          1.0000000000
       142        48  TIP3  OH2         -14.3018935702        9.1389532171        8.5546536370  CLST          48          1.0000000000
       143        48  TIP3  H1          -14.2409415129        9.6074569406        7.7353940959  CLST          48          1.0000000000
       144        48  TIP3  H2          -13.4068522753        9.3684568075        8.8696544829  CLST          48          1.0000000000
       145        49  TIP3  OH2           8.5597630767       -4.6157548551        4.1078906414  CLST          49          1.0000000000
       146        49  TIP3  H1            7.6546508271       -4.5742901749        3.7742161323  CLST          49          1.0000000000
       147        49  TIP3  H2            9.1000789635       -4.4557937696        3.3029962888  CLST          49          1.0000000000
       148        50  TIP3  OH2          11.2331248069        5.5891660903       -5.2724517718  CLST          50          1.0000000000
       149        50  TIP3  H1           11.1869438539        5.0052237448       -4.4327735464  CLST          50          1.0000000000
       150        50  TIP3  H2           10.3569594806        5.2683410809       -5.6249242539  CLST          50          1.0000000000
       151        51  TIP3  OH2          12.9344432644       -1.4568687031      -10.7503466123  CLST          51          1.0000000000
       152        51  TIP3  H1           13.2144255411       -2.1833091976      -11.3707586730  CLST          51          1.0000000000
       153        51  TIP3  H2           12.5772029507       -0.8172302679      -11.4451902364  CLST          51          1.0000000000
       154        52  TIP3  OH2          -1.6206905972       -1.4033921970       10.0486119070  CLST          52          1.0000000000
       155        52  TIP3  H1           -2.3742417788       -0.9124481870       10.4501912101  CLST          52          1.0000000000
       156        52  TIP3  H2           -1.4520387263       -2.0441221869       10.7509762777  CLST          52          1.0000000000
       157        53  TIP3  OH2         -11.0239238625       14.0026319292       -6.7306672740  CLST          53          1.0000000000
       158        53  TIP3  H1          -11.4393946270       14.9017535671       -6.6088097185  CLST          53          1.0000000000
       159        53  TIP3  H2          -10.1888148732       14.4158445385       -7.0700360417  CLST          53          1.0000000000
       160        54  TIP3  OH2         -13.7028314187       -5.2826434379       -8.1638247299  CLST          54          1.0000000000
       161        54  TIP3  H1          -12.7168534315       -5.2418090042       -8.1575555272  CLST          54          1.0000000000
       162        54  TIP3  H2          -13.9551331348       -4.7974021859       -8.9498979752  CLST          54          1.0000000000
       163        55  TIP3  OH2           0.4415057313        9.3911865715      -10.6478571335  CLST          55          1.0000000000
       164        55  TIP3  H1           -0.3681020076        9.7425565672      -11.0542927245  CLST          55          1.0000000000
       165        55  TIP3  H2            0.6963117471       10.1204095756      -10.0238296860  CLST          55          1.0000000000
       166        56  TIP3  OH2          -1.5986928802       -5.1785039418       13.9206538495  CLST          56          1.0000000000
       167        56  TIP3  H1           -2.1989617495       -4.8465393751       14.5916826427  CLST          56          1.0000000000
       168        56  TIP3  H2           -1.7384093112       -6.1431073573       13.8382856242  CLST          56          1.0000000000
       169        57  TIP3  OH2         -10.5584226019       11.3474297118       -1.3737309764  CLST          57          1.0000000000
       170        57  TIP3  H1          -10.7945167407       10.7176804698       -0.6689263204  CLST          57          1.0000000000
       171        57  TIP3  H2          -11.2532268473       12.0151722134       -1.1488417724  CLST          57          1.0000000000
       172        58  TIP3  OH2           9.7813848571        1.4379425797        0.1386727195  CLST          58          1.0000000000
       173        58  TIP3  H1            8.7887133641        1.3576635401        0.3034356454  CLST          58          1.0000000000
       174        58  TIP3  H2            9.8323143989        2.4067634051        0.4040857393  CLST          58          1.0000000000
       175        59  TIP3  OH2         -12.8360150789       13.0989517144        5.1422736234  CLST          59          1.0000000000
       176        59  TIP3  H1          -12.6313538521       13.3014126640        4.2198013789  CLST          59          1.0000000000
       177        59  TIP3  H2          -12.0347906693       12.5183731771        5.3409259453  CLST          59          1.0000000000
       178        60  TIP3  OH2          -3.8942521583        3.3300448244        7.1479677823  CLST          60          1.0000000000
       179        60  TIP3  H1           -3.3733661193        2.5341905360        7.4318845973  CLST          60          1.0000000000
       180        60  TIP3  H2           -3.2830021985        4.0199055414        7.4460564314  CLST          60          1.0000000000
       181        61  TIP3  OH2           0.4923313006       -2.1402655718        0.6056284851  CLST          61          1.0000000000
       182        61  TIP3  H1           -0.1839732818       -1.6309496016        1.0803539882  CLST          61          1.0000000000
       183        61  TIP3  H2            0.0263200151       -3.0042076173        0.5797266190  CLST          61          1.0000000000
       184        62  TIP3  OH2          -3.7213828649        8.9250824351        4.4448005239  CLST          62          1.0000000000
       185        62  TIP3  H1           -3.1017432451        8.3651874319        4.9698504879  CLST          62          1.0000000000
       186        62  TIP3  H2           -3.0649339774        9.5376574942        4.0785368100  CLST          62          1.0000000000
       187        63  TIP3  OH2          -0.3652245664        7.7917383488       -3.0998249465  CLST          63          1.0000000000
       188        63  TIP3  H1           -0.7618731762        8.3831576136       -3.7518882226  CLST          63          1.0000000000
       189        63  TIP3  H2           -1.0078433198        7.9087812490       -2.3250487012  CLST          63          1.0000000000
       190        64  TIP3  OH2         -13.8572480330        3.4867912340       -3.5021065799  CLST          64          1.0000000000
       191        64  TIP3  H1          -13.2403881516        4.2561282211       -3.3595569796  CLST          64          1.0000000000
       192        64  TIP3  H2          -14.7004360999        3.9491543506       -3.4823089277  CLST          64          1.0000000000
       193        65  TIP3  OH2          -9.5228773409      -12.1008254282      -11.7747951475  CLST          65          1.0000000000
       194        65  TIP3  H1           -9.5572216721      -12.3669926567      -10.8084123430  CLST          65          1.0000000000
       195        65  TIP3  H2          -10.4934534178      -11.9940141599      -11.9262331812  CLST          65          1.0000000000
       196        66  TIP3  OH2          13.1739989324       -8.1281719173        3.6572876822  CLST          66          1.0000000000
       197        66  TIP3  H1           13.3545047388       -8.9098765153        3.0609584795  CLST          66          1.0000000000
       198        66  TIP3  H2           13.0011395980       -8.6748757100        4.4703846730  CLST          66          1.0000000000
       199        67  TIP3  OH2           7.3789728873       -0.7464665439       -6.5788348137  CLST          67          1.0000000000
       200        67  TIP3  H1            7.8313611444       -1.3913646781       -6.0059320081  CLST          67          1.0000000000
       201        67  TIP3  H2            8.1625458905       -0.4339032626       -7.0588994006  CLST          67          1.0000000000
       202        68  TIP3  OH2          -7.0118162438        0.9979401204        0.9835785396  CLST          68          1.0000000000
       203        68  TIP3  H1           -7.6428070966        0.4611313617        1.5386768712  CLST          68          1.0000000000
       204        68  TIP3  H2           -6.7895020029        1.6942250494        1.6489732752  CLST          68          1.0000000000
       205        69  TIP3  OH2         -11.8541427388       -0.6400192503        7.1173723879  CLST          69          1.0000000000
       206        69  TIP3  H1          -11.0366837779       -1.1614953634        7.3843697331  CLST          69          1.0000000000
       207        69  TIP3  H2          -11.5558664712        0.2896159068        7.2052657311  CLST          69          1.0000000000
       208        70  TIP3  OH2          -1.8946653988        7.6037335631       -8.3299741832  CLST          70          1.0000000000
       209        70  TIP3  H1           -0.9254563670        7.5027092129       -8.5084877554  CLST          70          1.0000000000
       210        70  TIP3  H2           -1.7841468833        8.4737412864       -7.8905355280  CLST          70          1.0000000000
       211        71  TIP3  OH2         -13.3449071176       -1.9274429009       -5.4950324861  CLST          71          1.0000000000
       212        71  TIP3  H1          -12.7678604718       -1.7367077879       -4.6987075000  CLST          71          1.0000000000
       213        71  TIP3  H2          -13.4645132774       -0.9844551942       -5.7267529772  CLST          71          1.0000000000
       214        72  TIP3  OH2          10.8916376455       -2.5716599366        4.6550266470  CLST          72          1.0000000000
       215        72  TIP3  H1           10.5029575439       -2.5011517921        3.7545058786  CLST          72          1.0000000000
       216        72  TIP3  H2           11.4468445896       -1.7477944582        4.5601470587  CLST          72          1.0000000000
       217        73  TIP3  OH2          -3.2958307949      -13.6412530663       -6.6872541480  CLST          73          1.0000000000
       218        73  TIP3  H1           -3.7383644619      -13.3646716916       -7.5044035429  CLST          73          1.0000000000
       219        73  TIP3  H2           -3.8181683113      -14.3935006241       -6.3567138790  CLST          73          1.0000000000
       220        74  TIP3  OH2          -4.7556231366       12.2934354117       -1.4821548410  CLST          74          1.0000000000
       221        74  TIP3  H1           -5.1630170780       11.5408118530       -2.0133491614  CLST          74          1.0000000000
       222        74  TIP3  H2           -5.5230415246       12.9134557499       -1.4861450077  CLST          74          1.0000000000
       223        75  TIP3  OH2          -9.5434580288        5.1318591501        5.4354593014  CLST          75          1.0000000000
       224        75  TIP3  H1           -8.6604356133        5.5128788368        5.5810707912  CLST          75          1.0000000000
       225        75  TIP3  H2           -9.9898178054        5.5622515411        6.2545408562  CLST          75          1.0000000000
       226        76  TIP3  OH2           8.6717757308       13.3947875534       -8.9384132693  CLST          76          1.0000000000
       227        76  TIP3  H1            8.9133344406       13.7096259308       -9.8685663531  CLST          76          1.0000000000
       228        76  TIP3  H2            9.5978777692       13.0443606419       -8.7984120388  CLST          76          1.0000000000
       229        77  TIP3  OH2           0.4649333892       -5.1292813383       -5.4697623299  CLST          77          1.0000000000
       230        77  TIP3  H1            0.7216652975       -5.0483718889       -6.4201525229  CLST          77          1.0000000000
       231        77  TIP3  H2           -0.2762038728       -5.7610803250       -5.6663922492  CLST          77          1.0000000000
       232        78  TIP3  OH2          -5.8117569057       -8.1214537189        1.6500117198  CLST          78          1.0000000000
       233        78  TIP3  H1           -5.4560980919       -7.7794334734        0.7935338126  CLST          78          1.0000000000
       234        78  TIP3  H2           -6.3977532423       -8.8346443542        1.3067674271  CLST          78          1.0000000000
       235        79  TIP3  OH2           6.8832224078      -14.2153636664       10.1610532991  CLST          79          1.0000000000
       236        79  TIP3  H1            6.5654260782      -14.2482724217       11.0980510437  CLST          79          1.0000000000
       237        79  TIP3  H2            6.2141375118      -13.7759152548        9.5980607800  CLST          79          1.0000000000
       238        80  TIP3  OH2           6.7809453807       -0.1644537629      -12.8187269560  CLST          80          1.0000000000
       239        80  TIP3  H1            6.9014494972        0.1522272926      -13.7145597809  CLST          80          1.0000000000
       240        80  TIP3  H2            7.7170203107       -0.1531241320      -12.5567212994  CLST          80          1.0000000000
       241        81  TIP3  OH2          -7.6055551829        1.0927405520        5.6972458711  CLST          81          1.0000000000
       242        81  TIP3  H1           -8.5263989563        1.4175251757        5.5259149147  CLST          81          1.0000000000
       243        81  TIP3  H2           -7.1138385229        1.8842703101        5.3661272935  CLST          81          1.0000000000
       244        82  TIP3  OH2           2.3620945992       -1.9599562960       10.8632184614  CLST          82          1.0000000000
       245        82  TIP3  H1            2.7732326637       -1.1802698774       10.4444360723  CLST          82          1.0000000000
       246        82  TIP3  H2            3.1996918481       -2.5118436978       10.8558684078  CLST          82          1.0000000000
       247        83  TIP3  OH2          10.3880000231        8.2906781914       -5.0251178034  CLST          83          1.0000000000
       248        83  TIP3  H1           10.5555401073        7.2999355024       -5.1446396745  CLST          83          1.0000000000
       249        83  TIP3  H2           10.7876155358        8.2331440297       -4.1150095613  CLST          83          1.0000000000
       250        84  TIP3  OH2         -13.4729625990        8.0450045556       -1.2474127407  CLST          84          1.0000000000
       251        84  TIP3  H1          -14.1351060878        7.3384391123       -0.9198726445  CLST          84          1.0000000000
       252        84  TIP3  H2          -12.6900721288        7.4712921426       -1.0041029906  CLST          84          1.0000000000
       253        85  TIP3  OH2           2.3954940456       -1.6563474219        7.7771094645  CLST          85          1.0000000000
       254        85  TIP3  H1            1.8164261977       -2.1671011834        7.1772107564  CLST          85          1.0000000000
       255        85  TIP3  H2            2.9429141527       -2.3990601324        8.1493846488  CLST          85          1.0000000000
       256        86  TIP3  OH2           8.1406365877       -9.3444591715        9.8538542894  CLST          86          1.0000000000
       257        86  TIP3  H1            8.3763714233       -8.7187927434       10.5656479592  CLST          86          1.0000000000
       258        86  TIP3  H2            7.5376553691       -9.9697186939       10.3357610947  CLST          86          1.0000000000
       259        87  TIP3  OH2           0.2775728097       -1.3402790689       13.2066789751  CLST          87          1.0000000000
       260        87  TIP3  H1            0.8369838742       -1.3873748919       12.3793271882  CLST          87          1.0000000000
       261        87  TIP3  H2            0.1374508744       -0.3717754335       13.1275122979  CLST          87          1.0000000000
       262        88  TIP3  OH2          14.4284596791      -11.2012391532        8.2173601852  CLST          88          1.0000000000
       263        88  TIP3  H1           13.4909869368      -11.5626346615        8.2178016091  CLST          88          1.0000000000
       264        88  TIP3  H2           14.7098653968      -11.9681059313        8.7506739507  CLST          88          1.0000000000
       265        89  TIP3  OH2           6.7508326974       11.7005511781       -4.2194473977  CLST          89          1.0000000000
       266        89  TIP3  H1            5.8042848484       11.9218033962       -4.1597213303  CLST          89          1.0000000000
       267        89  TIP3  H2            6.7719523276       10.9357487201       -3.6177654533  CLST          89          1.0000000000
       268        90  TIP3  OH2          14.5414868816       -4.8654656542       -0.5491367959  CLST          90          1.0000000000
       269        90  TIP3  H1           14.0398484612       -5.1434959358       -1.3410165777  CLST          90          1.0000000000
       270        90  TIP3  H2           14.1441084536       -5.4958070811        0.1072047811  CLST          90          1.0000000000
       271        91  TIP3  OH2          11.2938634985       10.7742282957       -5.7417199375  CLST          91          1.0000000000
       272        91  TIP3  H1           11.1200291378        9.8303683253       -5.6402655632  CLST          91          1.0000000000
       273        91  TIP3  H2           10.4012505423       11.0966942592       -5.4227776393  CLST          91          1.0000000000
       274        92  TIP3  OH2          -6.2575812612        3.6587788100        8.6309982075  CLST          92          1.0000000000
       275        92  TIP3  H1           -5.5737288831        3.4899162750        7.9086986690  CLST          92          1.0000000000
       276        92  TIP3  H2           -6.4891242864        2.6809217467        8.7722777061  CLST          92          1.0000000000
       277        93  TIP3  OH2           5.2569373416       -6.4584194851       12.0020808621  CLST          93          1.0000000000
       278        93  TIP3  H1            5.1265405178       -5.6818982202       12.6117421821  CLST          93          1.0000000000
       279        93  TIP3  H2            6.0431448660       -6.8372382108       12.3783762155  CLST          93          1.0000000000
       280        94  TIP3  OH2          -6.0218631269       11.7587811910        4.5448528785  CLST          94          1.0000000000
       281        94  TIP3  H1           -5.9924057914       11.6220869053        3.5659295797  CLST          94          1.0000000000
       282        94  TIP3  H2           -6.4462882485       10.8596421612        4.7212288971  CLST          94          1.0000000000
       283        95  TIP3  OH2           6.5493441510       11.1684396269       -0.4076205329  CLST          95          1.0000000000
       284        95  TIP3  H1            7.0245400129       10.5914446629       -1.0585243612  CLST          95          1.0000000000
       285        95  TIP3  H2            6.1264511071       10.4781858914        0.1226207617  CLST          95          1.0000000000
       286        96  TIP3  OH2          14.4662101641       -0.8214898779       11.7326023582  CLST          96          1.0000000000
       287        96  TIP3  H1           14.9945194475       -1.6208057256       11.7070232923  CLST          96          1.0000000000
       288        96  TIP3  H2           13.6260248458       -1.0432661292       11.3206065726  CLST          96          1.0000000000
       289        97  TIP3  OH2          -8.7392657049        9.1774463050       13.1005703141  CLST          97          1.0000000000
       290        97  TIP3  H1           -8.4998818068        9.1636948215       12.1879434817  CLST          97          1.0000000000
       291        97  TIP3  H2           -7.6910299308        9.0203265915       13.3513431525  CLST          97          1.0000000000
       292        98  TIP3  OH2           1.4936041047        4.3731190261       13.9229386296  CLST          98          1.0000000000
       293        98  TIP3  H1            2.0295277412        4.7135236035       13.1613442055  CLST          98          1.0000000000
       294        98  TIP3  H2            1.9415282662        3.5315610880       14.1736989117  CLST          98          1.0000000000
       295        99  TIP3  OH2         -12.5634404575       12.1292837245       -5.2906642990  CLST          99          1.0000000000
       296        99  TIP3  H1          -13.1601518425       12.2304814137       -6.1075533487  CLST          99          1.0000000000
       297        99  TIP3  H2          -11.9361976430       12.7050388151       -5.8045189093  CLST          99          1.0000000000
       298       100  TIP3  OH2           9.2501385632       -3.8514089292       -6.7173777498  CLST         100          1.0000000000
       299       100  TIP3  H1            8.2792005389       -3.9456484291       -6.5420612016  CLST         100          1.0000000000
       300       100  TIP3  H2            9.2522328298       -4.7888926768       -6.9508234205  CLST         100          1.0000000000
       301       101  TIP3  OH2          11.5386520252        2.0713974365       -9.9855074870  CLST         101          1.0000000000
       302       101  TIP3  H1           11.0371906646        2.5182279236       -9.3568535778  CLST         101          1.0000000000
       303       101  TIP3  H2           11.8296723437        1.3665201119       -9.3807636417  CLST         101          1.0000000000
       304       102  TIP3  OH2          -7.2899228068        2.2429753886      -12.6468978286  CLST         102          1.0000000000
       305       102  TIP3  H1           -8.1193751138        1.8628250797      -12.9242011815  CLST         102          1.0000000000
       306       102  TIP3  H2           -7.7956802984        3.0814743064      -12.7786203975  CLST         102          1.0000000000
       307       103  TIP3  OH2          -4.4838722981      -13.9518522255      -11.2914656308  CLST         103          1.0000000000
       308       103  TIP3  H1           -4.7660094412      -14.1944296301      -12.1818153099  CLST         103          1.0000000000
       309       103  TIP3  H2           -5.1199706073      -14.6783163213      -11.0626187574  CLST         103          1.0000000000
       310       104  TIP3  OH2         -10.8024561275      -11.6121369864        7.6369598711  CLST         104          1.0000000000
       311       104  TIP3  H1           -9.9329230161      -11.1869060380        7.7220805734  CLST         104          1.0000000000
       312       104  TIP3  H2          -10.6006804985      -10.9540867902        8.6274832631  CLST         104          1.0000000000
       313       105  TIP3  OH2           4.4375093183       -0.0116325685       14.0720002391  CLST         105          1.0000000000
       314       105  TIP3  H1            4.0228273587       -0.8213163984       14.4256857281  CLST         105          1.0000000000
       315       105  TIP3  H2            4.8008332486       -0.5836253975       13.3774410421  CLST         105          1.0000000000
       316       106  TIP3  OH2          14.3404017526       -1.3206000087        4.6558657497  CLST         106          1.0000000000
       317       106  TIP3  H1           14.7048065063       -0.5071502255        5.1261616638  CLST         106          1.0000000000
       318       106  TIP3  H2           13.5079308437       -0.7807847824        4.7344136597  CLST         106          1.0000000000
       319       107  TIP3  OH2           1.7531775718      -12.6764937345       -7.1013475420  CLST         107          1.0000000000
       320       107  TIP3  H1            1.1253339441      -12.3135060872       -6.4691488242  CLST         107          1.0000000000
       321       107  TIP3  H2            2.0968532733      -12.9764780876       -6.1898273910  CLST         107          1.0000000000
       322       108  TIP3  OH2          -6.9763259410       -3.7679396016       14.3023036090  CLST         108          1.0000000000
       323       108  TIP3  H1           -6.7656896700       -3.7210280509       13.3657753982  CLST         108          1.0000000000
       324       108  TIP3  H2           -7.9165296530       -3.9000771288       13.9967709112  CLST         108          1.0000000000
       325       109  TIP3  OH2          -4.0671728072       -1.0998923317       11.2776060073  CLST         109          1.0000000000
       326       109  TIP3  H1           -4.2753038163       -2.0525578912       11.4305888529  CLST         109          1.0000000000
       327       109  TIP3  H2           -4.4171582418       -1.1017647649       10.3372691275  CLST         109          1.0000000000
       328       110  TIP3  OH2           1.2189203708       -3.5887337566       -3.3776183750  CLST         110          1.0000000000
       329       110  TIP3  H1            1.0011996335       -4.2844419449       -4.0536025145  CLST         110          1.0000000000
       330       110  TIP3  H2            0.3833718186       -3.7344312764       -2.8973404308  CLST         110          1.0000000000
       331       111  TIP3  OH2          -5.2106148739       -0.6092352375       -6.2992323832  CLST         111          1.0000000000
       332       111  TIP3  H1           -4.8740521581       -0.4652769643       -7.3419911026  CLST         111          1.0000000000
       333       111  TIP3  H2           -4.7419402550       -1.3392563105       -7.0101411639  CLST         111          1.0000000000
       334       112  TIP3  OH2           2.1537763300      -12.3031935379       -4.6173421457  CLST         112          1.0000000000
       335       112  TIP3  H1            1.8909611408      -12.7092943961       -3.8148620485  CLST         112          1.0000000000
       336       112  TIP3  H2            1.6716729522      -11.5512731394       -4.2610485137  CLST         112          1.0000000000
       337       113  TIP3  OH2          13.8127820374        5.9144916877       12.1531524942  CLST         113          1.0000000000
       338       113  TIP3  H1           13.3823762996        6.9208736219       11.9764143428  CLST         113          1.0000000000
       339       113  TIP3  H2           14.2200942080        6.4097512109       11.6618640025  CLST         113          1.0000000000
       340       114  TIP3  OH2          -4.7225412023      -11.2377813670       -4.5533744563  CLST         114          1.0000000000
       341       114  TIP3  H1           -4.3229308236      -10.3417392318       -4.6120635282  CLST         114          1.0000000000
       342       114  TIP3  H2           -3.8349548510      -11.5214806808       -4.8510991346  CLST         114          1.0000000000
       343       115  TIP3  OH2           4.9102208895      -13.8647644477       -9.1389141059  CLST         115          1.0000000000
       344       115  TIP3  H1            4.5928664496      -14.7964384978       -9.6874042608  CLST         115          1.0000000000
       345       115  TIP3  H2            4.2010426109      -13.9140760290       -9.9761639053  CLST         115          1.0000000000
       346       116  TIP3  OH2           8.3934782299        5.6571586297      -14.3399943669  CLST         116          1.0000000000
       347       116  TIP3  H1            9.2458900962        5.4851340756      -13.9688206891  CLST         116          1.0000000000
       348       116  TIP3  H2            7.9466189709        4.7839154224      -14.2494511657  CLST         116          1.0000000000
       349       117  TIP3  OH2          -0.0164596867        1.4041194146       13.1799424239  CLST         117          1.0000000000
       350       117  TIP3  H1           -0.5821401747        1.7194908153       13.8739352199  CLST         117          1.0000000000
       351       117  TIP3  H2            0.8672883993        1.7773001720       13.2825059762  CLST         117          1.0000000000
       352       118  TIP3  OH2          12.8042703431       -9.6351395976       -6.6347522809  CLST         118          1.0000000000
       353       118  TIP3  H1           12.0672333246       -9.1916248524       -6.1052174727  CLST         118          1.0000000000
       354       118  TIP3  H2           13.2877841693       -9.3668957831       -5.8734189698  CLST         118          1.0000000000
       355       119  TIP3  OH2         -12.1492472966       -1.3661313897        4.4342686933  CLST         119          1.0000000000
       356       119  TIP3  H1          -11.3462738974       -1.8524252564        4.6249880753  CLST         119          1.0000000000
       357       119  TIP3  H2          -12.1333491248       -1.0756094590        5.4071630109  CLST         119          1.0000000000
       358       120  TIP3  OH2         -11.6129533814        3.8611977275       -7.7228163067  CLST         120          1.0000000000
       359       120  TIP3  H1          -12.3244066746        4.0948474649       -8.3226530213  CLST         120          1.0000000000
       360       120  TIP3  H2          -12.3854595468        4.0482098526       -7.1082396860  CLST         120          1.0000000000
       361       121  TIP3  OH2          -5.9958467109       -7.2421700611        4.2001483610  CLST         121          1.0000000000
       362       121  TIP3  H1           -5.8327610826       -7.3148335295        3.2229748024  CLST         121          1.0000000000
       363       121  TIP3  H2           -6.9372615148       -7.0314502696        3.9216399385  CLST         121          1.0000000000
       364       122  TIP3  OH2           9.2681494346       -7.4062274052       -6.7238061502  CLST         122          1.0000000000
       365       122  TIP3  H1            9.3056515527       -8.3430589581       -7.1117373539  CLST         122          1.0000000000
       366       122  TIP3  H2            9.9217803941       -7.3285197344       -7.5664172335  CLST         122          1.0000000000
       367       123  TIP3  OH2          -7.0258218235      -10.4110794447        0.5925738300  CLST         123          1.0000000000
       368       123  TIP3  H1           -7.2381974742      -10.3259132340       -0.2930441362  CLST         123          1.0000000000
       369       123  TIP3  H2           -7.8722337736      -10.3708765071        0.9502919034  CLST         123          1.0000000000
       370       124  TIP3  OH2         -12.9549556850       -2.2248878439       -9.9020761775  CLST         124          1.0000000000
       371       124  TIP3  H1          -13.8307863410       -2.4826253166       -9.9214819477  CLST         124          1.0000000000
       372       124  TIP3  H2          -12.7221708011       -3.0091938067      -10.5456053684  CLST         124          1.0000000000
       373       125  TIP3  OH2           6.7051236685        2.7327350653       -5.5249820841  CLST         125          1.0000000000
       374       125  TIP3  H1            6.4401448571        1.9893967293       -4.9470299463  CLST         125          1.0000000000
       375       125  TIP3  H2            6.2236751889        2.3712695823       -6.2584735410  CLST         125          1.0000000000
       376       126  TIP3  OH2          12.4886574741       -9.9074266802        5.6237618489  CLST         126          1.0000000000
       377       126  TIP3  H1           12.8834810696      -10.7532327126        5.3595461728  CLST         126          1.0000000000
       378       126  TIP3  H2           11.6221367041      -10.3957673451        5.7400029968  CLST         126          1.0000000000
       379       127  TIP3  OH2         -10.2291401996       -5.7915301607       -5.0507855601  CLST         127          1.0000000000
       380       127  TIP3  H1          -10.0258237960       -5.2389408843       -4.2971566356  CLST         127          1.0000000000
       381       127  TIP3  H2           -9.5141030075       -6.3593287138       -4.7775858365  CLST         127          1.0000000000
       382       128  TIP3  OH2          -6.5124824314       -3.5703305996        6.8041511032  CLST         128          1.0000000000
       383       128  TIP3  H1           -5.9793737835       -4.3945668500        7.0061633647  CLST         128          1.0000000000
       384       128  TIP3  H2           -6.2712410314       -3.1903270978        6.0195407149  CLST         128          1.0000000000
       385       129  TIP3  OH2         -12.1184558293      -13.8772682511      -10.4516557303  CLST         129          1.0000000000
       386       129  TIP3  H1          -11.2877799877      -13.9150667088      -10.0780998971  CLST         129          1.0000000000
       387       129  TIP3  H2          -12.3884479219      -14.8192937786      -10.4740322785  CLST         129          1.0000000000
       388       130  TIP3  OH2           8.9475260858       -0.9228518766       13.9219552218  CLST         130          1.0000000000
       389       130  TIP3  H1            8.9550900940       -1.7403632484       14.4127020655  CLST         130          1.0000000000
       390       130  TIP3  H2            8.0097321573       -0.8062422015       14.0798593384  CLST         130          1.0000000000
       391       131  TIP3  OH2          -9.6207041924      -11.1055356573       -1.5234752000  CLST         131          1.0000000000
       392       131  TIP3  H1           -8.7009888201      -11.4405846256       -1.4366120432  CLST         131          1.0000000000
       393       131  TIP3  H2           -9.7529040933      -11.6560089430       -0.7385482357  CLST         131          1.0000000000
       394       132  TIP3  OH2           9.4641057841       -2.4817677543        9.8602182520  CLST         132          1.0000000000
       395       132  TIP3  H1            9.8116912008       -2.0278417819        9.1009892477  CLST         132          1.0000000000
       396       132  TIP3  H2            9.3770595302       -1.6134512533       10.2596130462  CLST         132          1.0000000000
       397       133  TIP3  OH2          -9.4634194415       -7.8243186985        7.7633532441  CLST         133          1.0000000000
       398       133  TIP3  H1           -8.5517596406       -8.1956620695        7.8575744270  CLST         133          1.0000000000
       399       133  TIP3  H2           -9.2013336737       -7.5026439795        6.9044867421  CLST         133          1.0000000000
       400       134  TIP3  OH2          -9.0779966975      -12.3186589154       14.6286091718  CLST         134          1.0000000000
       401       134  TIP3  H1           -8.9430460835      -11.7867230210       13.5988396872  CLST         134          1.0000000000
       402       134  TIP3  H2           -9.6584164259      -11.6443481966       14.4016779878  CLST         134          1.0000000000
       403       135  TIP3  OH2          -9.2679039628       10.6778508804        3.2526794727  CLST         135          1.0000000000
       404       135  TIP3  H1           -9.4784692026       10.1503625475        2.5490817475  CLST         135          1.0000000000
       405       135  TIP3  H2           -8.4803381597       10.9600487845        2.7855188607  CLST         135          1.0000000000
       406       136  TIP3  OH2          -4.7581302264       13.1460108400      -11.1699328138  CLST         136          1.0000000000
       407       136  TIP3  H1           -4.6508899883       13.2987726780      -10.2819815057  CLST         136          1.0000000000
       408       136  TIP3  H2           -5.5130884510       13.7016071244      -11.1076232448  CLST         136          1.0000000000
       409       137  TIP3  OH2          -5.6891177732      -10.7796173471        7.5699710374  CLST         137          1.0000000000
       410       137  TIP3  H1           -5.0572585938      -11.0810488618        6.8459971871  CLST         137          1.0000000000
       411       137  TIP3  H2           -5.3013479109      -11.6643543315        7.9589335065  CLST         137          1.0000000000
       412       138  TIP3  OH2           9.7951712398        8.6171306579       10.9855671673  CLST         138          1.0000000000
       413       138  TIP3  H1            9.9321453689        7.8401979626       11.4931724403  CLST         138          1.0000000000
       414       138  TIP3  H2           10.2137662346        9.1027478141       11.7379892645  CLST         138          1.0000000000
       415       139  TIP3  OH2           2.1691558571        9.7794666620       12.1843475240  CLST         139          1.0000000000
       416       139  TIP3  H1            3.1477114757        9.9527867090       12.1420299021  CLST         139          1.0000000000
       417       139  TIP3  H2            2.4643348857        9.0008634807       12.7026778417  CLST         139          1.0000000000
       418       140  TIP3  OH2          -3.2678272260       -1.2700777395       -8.0867231598  CLST         140          1.0000000000
       419       140  TIP3  H1           -2.2231648019       -0.9028486118       -7.6969288000  CLST         140          1.0000000000
       420       140  TIP3  H2           -2.4186022930       -1.8646937876       -8.1658481640  CLST         140          1.0000000000
       421       141  TIP3  OH2         -12.9379818281        5.4824460806       12.4782126493  CLST         141          1.0000000000
       422       141  TIP3  H1          -12.3918852525        6.2490362326       12.2297650519  CLST         141          1.0000000000
       423       141  TIP3  H2          -12.3096583810        5.4743681802       13.2179373823  CLST         141          1.0000000000
       424       142  TIP3  OH2          14.9945194475       -6.4712966498        5.1565607252  CLST         142          1.0000000000
       425       142  TIP3  H1           14.3703242551       -6.8574460930        4.4172947844  CLST         142          1.0000000000
       426       142  TIP3  H2           14.9606123726       -7.3037594012        5.6386187314  CLST         142          1.0000000000
       427       143  TIP3  OH2           6.5132686176       -7.1470741524        1.8591485211  CLST         143          1.0000000000
       428       143  TIP3  H1            6.7333749824       -7.6040816061        0.8662491986  CLST         143          1.0000000000
       429       143  TIP3  H2            6.0390097028       -6.9587959467        1.2097256575  CLST         143          1.0000000000
       430       144  TIP3  OH2          -1.5544223193      -14.0395581654        7.7110752819  CLST         144          1.0000000000
       431       144  TIP3  H1           -0.9394541785      -14.2237997111        6.9828188152  CLST         144          1.0000000000
       432       144  TIP3  H2           -1.4153857690      -14.8868867258        8.1015129716  CLST         144          1.0000000000
       433       145  TIP3  OH2           2.0984875247        7.4120343402       13.2969634830  CLST         145          1.0000000000
       434       145  TIP3  H1            1.1922199871        7.2359800334       13.5145983746  CLST         145          1.0000000000
       435       145  TIP3  H2            2.0310507730        7.1096103383       12.4193291271  CLST         145          1.0000000000
       436       146  TIP3  OH2          -5.9317798975       10.4343526050       -8.4227864143  CLST         146          1.0000000000
       437       146  TIP3  H1           -5.5631691030       11.3410219822       -8.5867068270  CLST         146          1.0000000000
       438       146  TIP3  H2           -6.6846726816       10.9946825296       -8.2553350855  CLST         146          1.0000000000
       439       147  TIP3  OH2           0.8722354363        2.7714931164       -4.6062756803  CLST         147          1.0000000000
       440       147  TIP3  H1            0.2766454261        3.1307311620       -3.8690995259  CLST         147          1.0000000000
       441       147  TIP3  H2            0.4943524393        3.2328017940       -5.4228027044  CLST         147          1.0000000000
       442       148  TIP3  OH2           7.4252142464        6.6768043881       -3.6248109182  CLST         148          1.0000000000
       443       148  TIP3  H1            7.7191138281        5.6127043515       -3.2806876264  CLST         148          1.0000000000
       444       148  TIP3  H2            6.9416594650        6.2660180233       -3.0724392967  CLST         148          1.0000000000
       445       149  TIP3  OH2          -4.3407914992      -13.2055918233       11.2976225853  CLST         149          1.0000000000
       446       149  TIP3  H1           -4.4877814224      -12.3356449109       11.6511279909  CLST         149          1.0000000000
       447       149  TIP3  H2           -3.7125202706      -13.3734807565       11.9552043619  CLST         149          1.0000000000
       448       150  TIP3  OH2          10.7959271391        0.9923525389       -2.5862817450  CLST         150          1.0000000000
       449       150  TIP3  H1           10.4241420912        1.1692208306       -1.6133401383  CLST         150          1.0000000000
       450       150  TIP3  H2            9.8884882162        0.6809962537       -2.8001830748  CLST         150          1.0000000000
       451       151  TIP3  OH2           3.6503540801      -12.1872656343        4.3554164124  CLST         151          1.0000000000
       452       151  TIP3  H1            3.9560942921      -12.6971227817        3.5409862098  CLST         151          1.0000000000
       453       151  TIP3  H2            2.9761949244      -11.9360890506        3.4397372284  CLST         151          1.0000000000
       454       152  TIP3  OH2           0.4959729191        6.1999842397       -5.9366831553  CLST         152          1.0000000000
       455       152  TIP3  H1            0.8609106246        7.0721161753       -6.2309265413  CLST         152          1.0000000000
       456       152  TIP3  H2            1.2757019008        5.8227209935       -6.2827617409  CLST         152          1.0000000000
       457       153  TIP3  OH2          -1.2577004208       10.2679819287       -7.5582054122  CLST         153          1.0000000000
       458       153  TIP3  H1           -1.2913716199       10.5922039958       -6.6723294511  CLST         153          1.0000000000
       459       153  TIP3  H2           -0.7507582920       11.0995561881       -7.6730309568  CLST         153          1.0000000000
       460       154  TIP3  OH2         -11.8481335471       -7.9004727898       -0.7378135510  CLST         154          1.0000000000
       461       154  TIP3  H1          -12.5023747256       -7.2939145434       -0.3912680106  CLST         154          1.0000000000
       462       154  TIP3  H2          -11.2961043232       -7.1425773214       -0.8639837131  CLST         154          1.0000000000
       463       155  TIP3  OH2          10.3344203851       -4.8975521141       14.2730127696  CLST         155          1.0000000000
       464       155  TIP3  H1           11.0941905027       -4.0858703562       14.0532989532  CLST         155          1.0000000000
       465       155  TIP3  H2           10.4792158702       -4.6279034515       13.4178464230  CLST         155          1.0000000000
       466       156  TIP3  OH2          14.0151030555        2.3073411380       -0.0700264518  CLST         156          1.0000000000
       467       156  TIP3  H1           14.6916133199        1.4401641117       -0.5294402072  CLST         156          1.0000000000
       468       156  TIP3  H2           13.8744845399        2.3454953807       -1.0480123655  CLST         156          1.0000000000
       469       157  TIP3  OH2           0.0940451481       -5.1308490199       -8.1767697318  CLST         157          1.0000000000
       470       157  TIP3  H1            0.5969106356       -4.6524336613       -8.9035223112  CLST         157          1.0000000000
       471       157  TIP3  H2            0.2805288105       -5.9275086392       -8.7816982737  CLST         157          1.0000000000
       472       158  TIP3  OH2          -6.7802478408       -1.4267539772       -2.3495953527  CLST         158          1.0000000000
       473       158  TIP3  H1           -7.6791725611       -1.7534821252       -2.1843723679  CLST         158          1.0000000000
       474       158  TIP3  H2           -6.6751132843       -2.3581575535       -2.7250242502  CLST         158          1.0000000000
       475       159  TIP3  OH2           8.0090383863      -11.4345779372        7.9504563561  CLST         159          1.0000000000
       476       159  TIP3  H1            7.1037454288      -11.4826578555        7.5032060533  CLST         159          1.0000000000
       477       159  TIP3  H2            8.0620900158      -10.5606084868        8.3321588083  CLST         159          1.0000000000
       478       160  TIP3  OH2           4.5384397061       -9.0117203313        2.0065983292  CLST         160          1.0000000000
       479       160  TIP3  H1            4.5524232796       -8.2985470881        2.6296434578  CLST         160          1.0000000000
       480       160  TIP3  H2            4.9426648735       -9.4825687179        2.7859406046  CLST         160          1.0000000000
       481       161  TIP3  OH2           3.9790208528       -6.9333929921       -3.2022883525  CLST         161          1.0000000000
       482       161  TIP3  H1            4.5158180073       -7.4751680400       -2.6456014838  CLST         161          1.0000000000
       483       161  TIP3  H2            3.2623441013       -7.3422078886       -2.6555850116  CLST         161          1.0000000000
       484       162  TIP3  OH2           6.5185667084      -10.2986712481        3.1672578027  CLST         162          1.0000000000
       485       162  TIP3  H1            7.3756866714      -10.5547653332        2.8122612052  CLST         162          1.0000000000
       486       162  TIP3  H2            7.0071980882       -9.6550637166        3.6316794004  CLST         162          1.0000000000
       487       163  TIP3  OH2         -13.4663827997        0.3254401494        2.8423098912  CLST         163          1.0000000000
       488       163  TIP3  H1          -13.8189091010        0.3336657352        3.7374897906  CLST         163          1.0000000000
       489       163  TIP3  H2          -12.7731761728       -0.0469995616        3.4588995868  CLST         163          1.0000000000
       490       164  TIP3  OH2           8.3693647904        2.8936569094       10.0880821546  CLST         164          1.0000000000
       491       164  TIP3  H1            8.2540307803        3.4691202299        9.3522148328  CLST         164          1.0000000000
       492       164  TIP3  H2            9.2902865620        3.3243492109        9.3372912013  CLST         164          1.0000000000
       493       165  TIP3  OH2          14.6605230910        3.8036728247        4.7028531565  CLST         165          1.0000000000
       494       165  TIP3  H1           13.6773958911        3.7139647314        4.1389629129  CLST         165          1.0000000000
       495       165  TIP3  H2           14.3722698105        2.9473350898        4.4031762379  CLST         165          1.0000000000
       496       166  TIP3  OH2          -6.2658831037      -12.7887681093        5.1833532652  CLST         166          1.0000000000
       497       166  TIP3  H1           -6.3363148839      -12.1679578198        4.5046908506  CLST         166          1.0000000000
       498       166  TIP3  H2           -7.0297749491      -12.2901587163        5.4504044794  CLST         166          1.0000000000
       499       167  TIP3  OH2          -0.0550724528       -7.6216196125       -9.4075275977  CLST         167          1.0000000000
       500       167  TIP3  H1           -0.2022545101       -8.2317072772      -10.1281819558  CLST         167          1.0000000000
       501       167  TIP3  H2            0.8567083911       -8.0160474089       -9.3432546200  CLST         167          1.0000000000
       502       168  TIP3  OH2          -2.8526652739       -2.3344927300        1.5911285031  CLST         168          1.0000000000
       503       168  TIP3  H1           -2.7585240119       -3.0423740064        2.1897808454  CLST         168          1.0000000000
       504       168  TIP3  H2           -2.8685728732       -2.9775947146        0.8939733257  CLST         168          1.0000000000
       505       169  TIP3  OH2           0.9034211989       12.1061162278       12.3019975441  CLST         169          1.0000000000
       506       169  TIP3  H1            1.7321194647       11.5323731549       12.2683997014  CLST         169          1.0000000000
       507       169  TIP3  H2            1.5989666979       12.7229356248       12.6856776057  CLST         169          1.0000000000
       508       170  TIP3  OH2         -14.3528097373      -12.8084923967        4.9800977063  CLST         170          1.0000000000
       509       170  TIP3  H1          -13.7045407684      -13.4444184691        5.2309099412  CLST         170          1.0000000000
       510       170  TIP3  H2          -14.3189756758      -12.5150646615        5.8974372739  CLST         170          1.0000000000
       511       171  TIP3  OH2          -9.6447692797        2.4467720817        2.5529370488  CLST         171          1.0000000000
       512       171  TIP3  H1           -8.7711900910        2.7960100340        2.5727118211  CLST         171          1.0000000000
       513       171  TIP3  H2           -9.6449020046        2.1233066299        3.4629292233  CLST         171          1.0000000000
       514       172  TIP3  OH2          13.9709275006       -7.1704990585      -11.8938953018  CLST         172          1.0000000000
       515       172  TIP3  H1           13.9046472027       -7.1563274915      -10.8763927628  CLST         172          1.0000000000
       516       172  TIP3  H2           13.3007373067       -7.8943858263      -11.7026730722  CLST         172          1.0000000000
       517       173  TIP3  OH2         -12.6391870884       -5.6565379846        2.9329876951  CLST         173          1.0000000000
       518       173  TIP3  H1          -13.3148210665       -4.9030747284        3.0409373161  CLST         173          1.0000000000
       519       173  TIP3  H2          -12.8182772855       -5.6884682274        1.9729869304  CLST         173          1.0000000000
       520       174  TIP3  OH2           5.5015930444      -14.1747975154        5.8797726820  CLST         174          1.0000000000
       521       174  TIP3  H1            5.0793480023      -14.6904246827        6.5816465132  CLST         174          1.0000000000
       522       174  TIP3  H2            4.6863308942      -13.6269047707        5.9798065883  CLST         174          1.0000000000
       523       175  TIP3  OH2           4.4224847780       -3.8098802293        7.9331921903  CLST         175          1.0000000000
       524       175  TIP3  H1            4.2497723085       -4.2411811852        7.0992987522  CLST         175          1.0000000000
       525       175  TIP3  H2            5.2758296343       -3.5487087347        7.6960280284  CLST         175          1.0000000000
       526       176  TIP3  OH2           8.3536127623        2.4694304795      -11.1830851618  CLST         176          1.0000000000
       527       176  TIP3  H1            9.2621506341        2.1110542053      -10.9754943077  CLST         176          1.0000000000
       528       176  TIP3  H2            8.3180465869        1.8667363811      -11.9513673743  CLST         176          1.0000000000
       529       177  TIP3  OH2          -4.0673701676       10.6014850863        7.3208317737  CLST         177          1.0000000000
       530       177  TIP3  H1           -3.2890506487       10.6968993692        6.7727063608  CLST         177          1.0000000000
       531       177  TIP3  H2           -4.2947860338        9.7852293161        6.8688881067  CLST         177          1.0000000000
       532       178  TIP3  OH2           4.1732458484       -6.4258507818        0.9564133441  CLST         178          1.0000000000
       533       178  TIP3  H1            3.4842349373       -6.2773216829        0.2919861550  CLST         178          1.0000000000
       534       178  TIP3  H2            3.4570182582       -6.2750049658        1.5464443650  CLST         178          1.0000000000
       535       179  TIP3  OH2           2.6480864310      -10.0726149944        0.3203820523  CLST         179          1.0000000000
       536       179  TIP3  H1            1.9154408052       -9.4449180308        0.4033344202  CLST         179          1.0000000000
       537       179  TIP3  H2            3.2952210273       -9.4415427891        0.6639706097  CLST         179          1.0000000000
       538       180  TIP3  OH2          -2.0225284286       -3.5612054477        8.2619855496  CLST         180          1.0000000000
       539       180  TIP3  H1           -2.1405594280       -2.7062701845        8.7336066970  CLST         180          1.0000000000
       540       180  TIP3  H2           -2.7491336747       -3.4647424540        7.6404885136  CLST         180          1.0000000000
       541       181  TIP3  OH2         -12.2474556480        0.1032065221      -11.1042618184  CLST         181          1.0000000000
       542       181  TIP3  H1          -11.3259188636       -0.1101678769      -10.7712161548  CLST         181          1.0000000000
       543       181  TIP3  H2          -12.3690939464       -0.6577234000      -10.4559435251  CLST         181          1.0000000000
       544       182  TIP3  OH2         -10.1199392730      -12.8047554422        5.5832556654  CLST         182          1.0000000000
       545       182  TIP3  H1          -10.7933407353      -12.4535910596        6.1176758162  CLST         182          1.0000000000
       546       182  TIP3  H2           -9.5092054272      -12.4079235100        6.1980094222  CLST         182          1.0000000000
       547       183  TIP3  OH2          11.5884433870        5.4864545001        4.5585691925  CLST         183          1.0000000000
       548       183  TIP3  H1           11.9931870357        5.2721492991        3.7319093522  CLST         183          1.0000000000
       549       183  TIP3  H2           11.2882557161        6.2706920424        4.1298180830  CLST         183          1.0000000000
       550       184  TIP3  OH2          -0.0307902216       -0.2781372169        8.0083709723  CLST         184          1.0000000000
       551       184  TIP3  H1            0.8792174655       -0.7446175805        7.9660717979  CLST         184          1.0000000000
       552       184  TIP3  H2           -0.3613366296       -0.7877661725        8.8172590478  CLST         184          1.0000000000
       553       185  TIP3  OH2           9.3013322625       12.8897952434       -3.8374316090  CLST         185          1.0000000000
       554       185  TIP3  H1            8.2987165965       12.5929471964       -3.9364179630  CLST         185          1.0000000000
       555       185  TIP3  H2            8.9351612586       13.7704348889       -3.8302247006  CLST         185          1.0000000000
       556       186  TIP3  OH2          11.8875961551        0.0055775177        4.2850430075  CLST         186          1.0000000000
       557       186  TIP3  H1           11.8295283142        0.5273715752        3.4413834028  CLST         186          1.0000000000
       558       186  TIP3  H2           11.0641318989        0.4370217324        4.5590233920  CLST         186          1.0000000000
       559       187  TIP3  OH2          -9.9277689737       -7.7073273058      -11.3987042173  CLST         187          1.0000000000
       560       187  TIP3  H1          -10.3591230986       -7.5480597424      -10.4967548292  CLST         187          1.0000000000
       561       187  TIP3  H2           -9.7234060781       -6.7740534702      -11.2271698312  CLST         187          1.0000000000
       562       188  TIP3  OH2         -14.5560950364       -0.5997721461        0.6904265136  CLST         188          1.0000000000
       563       188  TIP3  H1          -14.6098538614       -0.3059534386        1.5092868274  CLST         188          1.0000000000
       564       188  TIP3  H2          -14.9867921981       -1.0131678300       -0.0587886396  CLST         188          1.0000000000
       565       189  TIP3  OH2          14.1106747392        0.8579320978       14.9945194475  CLST         189          1.0000000000
       566       189  TIP3  H1           14.9860425731        1.3294112231       14.8494571606  CLST         189          1.0000000000
       567       189  TIP3  H2           14.5358467066        0.2392778035       14.3683309025  CLST         189          1.0000000000
       568       190  TIP3  OH2           0.8964094180       -7.8477791747        3.5727220231  CLST         190          1.0000000000
       569       190  TIP3  H1            1.9310363921       -7.9698735777        3.6651815969  CLST         190          1.0000000000
       570       190  TIP3  H2            1.0568759781       -6.8600350207        3.5206834363  CLST         190          1.0000000000
       571       191  TIP3  OH2          -0.9074009239       13.9801449015       -4.1528405313  CLST         191          1.0000000000
       572       191  TIP3  H1           -1.6606403941       14.0099941759       -3.7002734498  CLST         191          1.0000000000
       573       191  TIP3  H2           -1.4210989102       14.9945194475       -4.0560999414  CLST         191          1.0000000000
       574       192  TIP3  OH2          -5.1037222929       -0.3135355330       -0.8330924273  CLST         192          1.0000000000
       575       192  TIP3  H1           -5.8460533897       -0.4121615079       -1.3783165088  CLST         192          1.0000000000
       576       192  TIP3  H2           -5.7741917548        0.2342972931       -0.2493697892  CLST         192          1.0000000000
       577       193  TIP3  OH2         -12.8153114909      -13.0876657061        7.0239352875  CLST         193          1.0000000000
       578       193  TIP3  H1          -12.0546106136      -13.3527296061        7.5533825021  CLST         193          1.0000000000
       579       193  TIP3  H2          -12.4643530381      -12.2048964838        7.2567136579  CLST         193          1.0000000000
       580       194  TIP3  OH2          12.5269216814       12.5811142170      -11.4921911870  CLST         194          1.0000000000
       581       194  TIP3  H1           12.0670717045       13.3799413938      -11.7281773093  CLST         194          1.0000000000
       582       194  TIP3  H2           13.1165452274       12.3402604451      -12.1557174849  CLST         194          1.0000000000
       583       195  TIP3  OH2           5.3411327609        2.5936849283        3.5654490315  CLST         195          1.0000000000
       584       195  TIP3  H1            4.4280053270        2.7741592106        2.8567945935  CLST         195          1.0000000000
       585       195  TIP3  H2            4.5103715143        1.9469190201        3.3698739924  CLST         195          1.0000000000
       586       196  TIP3  OH2           7.3290535322        6.1064237906       11.0899082775  CLST         196          1.0000000000
       587       196  TIP3  H1            7.9627143238        5.3158790106       11.3573250750  CLST         196          1.0000000000
       588       196  TIP3  H2            7.6252071265        6.4677466596       11.8874992477  CLST         196          1.0000000000
       589       197  TIP3  OH2          -4.3740603322       -9.4387117581        3.6831626860  CLST         197          1.0000000000
       590       197  TIP3  H1           -4.8126963679       -8.9142502017        3.0039201232  CLST         197          1.0000000000
       591       197  TIP3  H2           -3.7691882543       -8.6611287771        3.8482273475  CLST         197          1.0000000000
       592       198  TIP3  OH2          -4.4461766766       -8.9311971357       -5.9698036359  CLST         198          1.0000000000
       593       198  TIP3  H1           -4.1841520692       -9.0481244493       -6.9029040313  CLST         198          1.0000000000
       594       198  TIP3  H2           -5.2890658148       -9.3378399026       -6.2371709922  CLST         198          1.0000000000
       595       199  TIP3  OH2          11.3666226607        7.7454142167       -2.2475036515  CLST         199          1.0000000000
       596       199  TIP3  H1           11.3195256700        8.6191378700       -1.8531256817  CLST         199          1.0000000000
       597       199  TIP3  H2           12.2294797649        7.6948667582       -1.8543134707  CLST         199          1.0000000000
       598       200  TIP3  OH2          -4.8943889519       -7.7332755079       -1.1785524403  CLST         200          1.0000000000
       599       200  TIP3  H1           -3.9555562614       -7.7588122967       -1.4677388460  CLST         200          1.0000000000
       600       200  TIP3  H2           -4.7286337157       -6.7364404088       -1.2805141851  CLST         200          1.0000000000
       601       201  TIP3  OH2          13.9043400459      -10.7828449079       12.0479821929  CLST         201          1.0000000000
       602       201  TIP3  H1           14.3909029629      -10.1613453839       12.5869514226  CLST         201          1.0000000000
       603       201  TIP3  H2           13.2777154279      -10.1576062288       11.7003503957  CLST         201          1.0000000000
       604       202  TIP3  OH2          -2.8291969096       -9.7412523338        7.9061666433  CLST         202          1.0000000000
       605       202  TIP3  H1           -2.3160383538      -10.3484591266        8.1813318561  CLST         202          1.0000000000
       606       202  TIP3  H2           -2.5519437044      -10.4952675410        7.1320093982  CLST         202          1.0000000000
       607       203  TIP3  OH2          10.3650530395        4.3080576113       13.9080201201  CLST         203          1.0000000000
       608       203  TIP3  H1            9.6758289177        3.7333153421       13.2507885317  CLST         203          1.0000000000
       609       203  TIP3  H2            9.6336691063        3.6723182870       14.3112313950  CLST         203          1.0000000000
       610       204  TIP3  OH2          -5.2332412496        6.1260459474        5.9352819829  CLST         204          1.0000000000
       611       204  TIP3  H1           -6.1414949680        6.3729361015        6.0327009512  CLST         204          1.0000000000
       612       204  TIP3  H2           -4.9534353463        6.8736393307        6.4704621598  CLST         204          1.0000000000
       613       205  TIP3  OH2          -2.3352565848        1.4588721427       -4.8496615961  CLST         205          1.0000000000
       614       205  TIP3  H1           -1.5936147276        1.7567362117       -5.4320997813  CLST         205          1.0000000000
       615       205  TIP3  H2           -2.7676858172        2.0218329230       -5.7967915344  CLST         205          1.0000000000
       616       206  TIP3  OH2          -8.4049009350       -1.3886008897        4.7147091357  CLST         206          1.0000000000
       617       206  TIP3  H1           -8.6480455810       -1.6338176378        5.6236508526  CLST         206          1.0000000000
       618       206  TIP3  H2           -7.9673045555       -0.6033791925        5.0729073031  CLST         206          1.0000000000
       619       207  TIP3  OH2          -7.9332792133        9.5546169796        0.4591537155  CLST         207          1.0000000000
       620       207  TIP3  H1           -7.6734027376        8.4697427637        0.6214181921  CLST         207          1.0000000000
       621       207  TIP3  H2           -8.3627061345        9.0806022584        1.0275418680  CLST         207          1.0000000000
       622       208  TIP3  OH2           9.4953380759       14.5577611586      -11.3742356200  CLST         208          1.0000000000
       623       208  TIP3  H1            9.7143294273       14.2997603405      -12.2389630222  CLST         208          1.0000000000
       624       208  TIP3  H2           10.3785832159       14.9531984051      -11.1225976254  CLST         208          1.0000000000
       625       209  TIP3  OH2          -6.5017009258       -6.3025839426      -14.4783574289  CLST         209          1.0000000000
       626       209  TIP3  H1           -7.4010074874       -5.9593957235      -14.6698166063  CLST         209          1.0000000000
       627       209  TIP3  H2           -7.0241679904       -6.9566401420      -14.0842089688  CLST         209          1.0000000000
       628       210  TIP3  OH2          -2.2741010961        1.2656301497        8.0476480501  CLST         210          1.0000000000
       629       210  TIP3  H1           -1.7081974296        0.4669453234        8.1077465676  CLST         210          1.0000000000
       630       210  TIP3  H2           -2.1845579384        1.4169616282        9.0113194007  CLST         210          1.0000000000
       631       211  TIP3  OH2          -0.6792037446        0.2506502726       -3.0432942602  CLST         211          1.0000000000
       632       211  TIP3  H1           -1.3518291673       -0.3891481634       -2.8599178777  CLST         211          1.0000000000
       633       211  TIP3  H2           -1.3455066010        0.8603519785       -3.4435143564  CLST         211          1.0000000000
       634       212  TIP3  OH2           6.8609143866        3.2277895454        5.3542316080  CLST         212          1.0000000000
       635       212  TIP3  H1            6.4243800765        2.4289188530        4.9186985731  CLST         212          1.0000000000
       636       212  TIP3  H2            5.7658199133        3.3533092188        4.9889544918  CLST         212          1.0000000000
       637       213  TIP3  OH2           2.0478103349       -5.2818834694       -0.0664643825  CLST         213          1.0000000000
       638       213  TIP3  H1            2.0493123106       -4.3368879364       -0.2382049122  CLST         213          1.0000000000
       639       213  TIP3  H2            1.8101911226       -5.5079339111       -0.9244636873  CLST         213          1.0000000000
       640       214  TIP3  OH2           2.0712101833       -6.6991673637      -11.7833340068  CLST         214          1.0000000000
       641       214  TIP3  H1            2.1527411158       -7.5627245476      -11.4287703151  CLST         214          1.0000000000
       642       214  TIP3  H2            2.9069371443       -6.5295778275      -11.2648400034  CLST         214          1.0000000000
       643       215  TIP3  OH2         -12.7607476015        2.8364359252      -11.0762470190  CLST         215          1.0000000000
       644       215  TIP3  H1          -12.8796964310        1.7298445087      -10.7466917958  CLST         215          1.0000000000
       645       215  TIP3  H2          -13.1809300260        2.2629902021      -11.7058932545  CLST         215          1.0000000000
       646       216  TIP3  OH2          11.6901862510       -6.3650455410       -4.6197960103  CLST         216          1.0000000000
       647       216  TIP3  H1           11.1233236774       -7.0165628270       -4.2083655087  CLST         216          1.0000000000
       648       216  TIP3  H2           10.8693331009       -6.2711258242       -5.1452829831  CLST         216          1.0000000000
       649       217  TIP3  OH2          -6.6516222800        9.0401927789        4.4316474820  CLST         217          1.0000000000
       650       217  TIP3  H1           -5.6307369936        8.8884393268        4.4583594315  CLST         217          1.0000000000
       651       217  TIP3  H2           -6.7680892043        8.1249605733        4.0152926022  CLST         217          1.0000000000
       652       218  TIP3  OH2           5.7613766432       -7.3027275369       -8.3388530122  CLST         218          1.0000000000
       653       218  TIP3  H1            5.8290846665       -8.1868968455       -7.9705889068  CLST         218          1.0000000000
       654       218  TIP3  H2            5.8139623135       -7.4492542019       -7.1633949878  CLST         218          1.0000000000
       655       219  TIP3  OH2           2.9037409170      -13.6042976279        7.2921559512  CLST         219          1.0000000000
       656       219  TIP3  H1            2.6658789724      -13.1584147163        8.1216657907  CLST         219          1.0000000000
       657       219  TIP3  H2            3.6682441825      -13.7209372126        7.8235257227  CLST         219          1.0000000000
       658       220  TIP3  OH2           2.5629937379        1.5288797835      -11.0885757645  CLST         220          1.0000000000
       659       220  TIP3  H1            2.7650995858        1.8309737121      -12.0149717426  CLST         220          1.0000000000
       660       220  TIP3  H2            3.5520957665        1.3056003941      -11.2027170910  CLST         220          1.0000000000
       661       221  TIP3  OH2           1.6335816814       -0.2913534829        2.7775727610  CLST         221          1.0000000000
       662       221  TIP3  H1            0.7460914646       -0.1073662471        2.5012560963  CLST         221          1.0000000000
       663       221  TIP3  H2            1.6171734900        0.4679225653        3.3625409214  CLST         221          1.0000000000
       664       222  TIP3  OH2          12.1240428811        0.4800645609        1.6816122711  CLST         222          1.0000000000
       665       222  TIP3  H1           12.6639319431       -0.0296079296        1.1045875093  CLST         222          1.0000000000
       666       222  TIP3  H2           11.3185472631        0.4468960401        1.1145095004  CLST         222          1.0000000000
       667       223  TIP3  OH2           1.4144469836      -10.5594333078      -12.8910015284  CLST         223          1.0000000000
       668       223  TIP3  H1            1.0407958031      -10.6920706112      -12.0207947321  CLST         223          1.0000000000
       669       223  TIP3  H2            0.5485587775      -10.3032034287      -13.0215423102  CLST         223          1.0000000000
       670       224  TIP3  OH2          -9.1076257922        6.9109743134      -12.7843595264  CLST         224          1.0000000000
       671       224  TIP3  H1           -9.6916557173        6.1045552352      -12.2203524233  CLST         224          1.0000000000
       672       224  TIP3  H2           -8.8044112782        6.0223712693      -12.6994277990  CLST         224          1.0000000000
       673       225  TIP3  OH2          13.1518296384        3.7728858590       -7.5285893172  CLST         225          1.0000000000
       674       225  TIP3  H1           12.2038913458        3.7945049297       -7.5667378300  CLST         225          1.0000000000
       675       225  TIP3  H2           13.1775699943        3.0878046682       -6.8753812718  CLST         225          1.0000000000
       676       226  TIP3  OH2           4.9850605970        4.9086992644       10.9309275659  CLST         226          1.0000000000
       677       226  TIP3  H1            5.8196071821        5.3219265533       10.6320988460  CLST         226          1.0000000000
       678       226  TIP3  H2            5.3755097088        4.8864310967       11.7867891505  CLST         226          1.0000000000
       679       227  TIP3  OH2          -6.4433137404        1.1509490108        9.7363607117  CLST         227          1.0000000000
       680       227  TIP3  H1           -6.8152166332        0.9097586736       10.5989706314  CLST         227          1.0000000000
       681       227  TIP3  H2           -6.0703713454        0.2960190864        9.3993887646  CLST         227          1.0000000000
       682       228  TIP3  OH2          -8.7969070773       -5.4000979372       10.5117598267  CLST         228          1.0000000000
       683       228  TIP3  H1           -9.2015126797       -5.3249778310        9.6873014536  CLST         228          1.0000000000
       684       228  TIP3  H2           -7.8511245597       -5.5550179454       10.4181183423  CLST         228          1.0000000000
       685       229  TIP3  OH2          11.3193129791        7.8748394595      -14.9945194475  CLST         229          1.0000000000
       686       229  TIP3  H1           11.1093731216        8.1136146967      -14.1205845221  CLST         229          1.0000000000
       687       229  TIP3  H2           11.5816498931        6.9895727620      -14.5752424650  CLST         229          1.0000000000
       688       230  TIP3  OH2         -10.8356331020       -3.5433727706        8.8376584306  CLST         230          1.0000000000
       689       230  TIP3  H1          -11.1485947402       -4.4098915215        8.5453594001  CLST         230          1.0000000000
       690       230  TIP3  H2          -11.6531844637       -3.3893900460        9.2827868132  CLST         230          1.0000000000
       691       231  TIP3  OH2          -0.4320193715        3.0484730048      -11.9325415573  CLST         231          1.0000000000
       692       231  TIP3  H1            0.1885233551        2.5143880381      -11.4257670077  CLST         231          1.0000000000
       693       231  TIP3  H2            0.2804283217        2.9172166719      -12.5585301982  CLST         231          1.0000000000
       694       232  TIP3  OH2           1.7523352674      -14.9945194475      -12.1873897531  CLST         232          1.0000000000
       695       232  TIP3  H1            1.6478109021      -14.5218423629      -11.3607588465  CLST         232          1.0000000000
       696       232  TIP3  H2            2.0421873647      -14.2869461544      -12.6639577995  CLST         232          1.0000000000
       697       233  TIP3  OH2         -12.4799253820        9.8498229926        2.0815932693  CLST         233          1.0000000000
       698       233  TIP3  H1          -13.0636314157        9.2799313118        2.6692157739  CLST         233          1.0000000000
       699       233  TIP3  H2          -13.3145250285       10.0416340373        1.6921051653  CLST         233          1.0000000000
       700       234  TIP3  OH2          -2.2634928565        4.6878958396       -8.1138606142  CLST         234          1.0000000000
       701       234  TIP3  H1           -2.2966246131        5.6763809372       -8.1007463793  CLST         234          1.0000000000
       702       234  TIP3  H2           -2.0169164943        4.7840680317       -9.0526712750  CLST         234          1.0000000000
       703       235  TIP3  OH2         -10.4061107657        5.3051684037       -5.6437785018  CLST         235          1.0000000000
       704       235  TIP3  H1          -10.5767433240        4.8372344115       -6.4327777378  CLST         235          1.0000000000
       705       235  TIP3  H2           -9.4989728763        5.3127476244       -5.9787869167  CLST         235          1.0000000000
       706       236  TIP3  OH2         -12.2357607688      -10.7757906021       13.6884583588  CLST         236          1.0000000000
       707       236  TIP3  H1          -11.4831641954      -10.6213728534       12.8252618127  CLST         236          1.0000000000
       708       236  TIP3  H2          -12.3117665539       -9.9989589561       12.9269837815  CLST         236          1.0000000000
       709       237  TIP3  OH2          -6.4135976125       -6.6893603432       10.4452346991  CLST         237          1.0000000000
       710       237  TIP3  H1           -5.7759474641       -6.9828600935        9.8038946259  CLST         237          1.0000000000
       711       237  TIP3  H2           -5.7000274370       -6.8297185059       11.0727600120  CLST         237          1.0000000000
       712       238  TIP3  OH2          -0.7731636082        4.0028766596       -2.9397296355  CLST         238          1.0000000000
       713       238  TIP3  H1           -1.5285525710        4.2107575841       -3.5839339722  CLST         238          1.0000000000
       714       238  TIP3  H2           -1.5766154703        3.8554247782       -2.3630003200  CLST         238          1.0000000000
       715       239  TIP3  OH2           8.0998025633        7.3980748820        0.1085170929  CLST         239          1.0000000000
       716       239  TIP3  H1            8.5163588924        6.6331431643       -0.3260006440  CLST         239          1.0000000000
       717       239  TIP3  H2            9.0205685829        7.4733708553        0.3358997111  CLST         239          1.0000000000
       718       240  TIP3  OH2          -9.9637814192        8.7396424476        1.7279730721  CLST         240          1.0000000000
       719       240  TIP3  H1          -10.9076623772        8.9090789857        1.9182645303  CLST         240          1.0000000000
       720       240  TIP3  H2          -10.3181353994        7.8641234664        1.9940814222  CLST         240          1.0000000000
       721       241  TIP3  OH2          11.1172056408       -4.4803338102       -1.6539847116  CLST         241          1.0000000000
       722       241  TIP3  H1           10.7603993928       -4.8711714051       -2.4443144041  CLST         241          1.0000000000
       723       241  TIP3  H2           11.9258887269       -4.3440149493       -2.2249400148  CLST         241          1.0000000000
       724       242  TIP3  OH2           9.4957955396       -1.5579892799       -4.2330530599  CLST         242          1.0000000000
       725       242  TIP3  H1           10.4494326806       -1.5985177785       -4.0325341651  CLST         242          1.0000000000
       726       242  TIP3  H2            9.4618163275       -2.3254736095       -3.6397354297  CLST         242          1.0000000000
       727       243  TIP3  OH2           5.0579248997        9.6165079501      -11.9785788312  CLST         243          1.0000000000
       728       243  TIP3  H1            4.4171944524       10.3399344378      -11.8388895899  CLST         243          1.0000000000
       729       243  TIP3  H2            4.7467973769        9.3233148060      -11.0571774952  CLST         243          1.0000000000
       730       244  TIP3  OH2          -9.0271115572       -6.5019315154      -14.3876560052  CLST         244          1.0000000000
       731       244  TIP3  H1           -9.2764079865       -6.0257918285      -13.6171331017  CLST         244          1.0000000000
       732       244  TIP3  H2           -9.8708377308       -6.2733991221      -14.8267109542  CLST         244          1.0000000000
       733       245  TIP3  OH2         -13.0631777395        6.2381304119        2.7995727291  CLST         245          1.0000000000
       734       245  TIP3  H1          -13.0838176116        7.0272869633        3.3577277725  CLST         245          1.0000000000
       735       245  TIP3  H2          -12.2152732169        6.1731516493        3.3039952620  CLST         245          1.0000000000
       736       246  TIP3  OH2          -9.2518858249        6.4015844460       -1.8000132035  CLST         246          1.0000000000
       737       246  TIP3  H1          -10.1866451903        6.3042159692       -1.8409780914  CLST         246          1.0000000000
       738       246  TIP3  H2           -9.2849277615        7.3184541160       -1.6632205481  CLST         246          1.0000000000
       739       247  TIP3  OH2          -4.5070272043        8.1923437153        7.6182656326  CLST         247          1.0000000000
       740       247  TIP3  H1           -3.4328898943        8.4907282332        8.0657504471  CLST         247          1.0000000000
       741       247  TIP3  H2           -4.2940943591        7.8578787356        8.4624110753  CLST         247          1.0000000000
       742       248  TIP3  OH2          10.0025583808       -7.7007568564        7.8890696925  CLST         248          1.0000000000
       743       248  TIP3  H1            9.3996792033       -8.4427944723        7.8875598203  CLST         248          1.0000000000
       744       248  TIP3  H2            9.9599417471       -7.5185864808        6.9784666894  CLST         248          1.0000000000
       745       249  TIP3  OH2           9.9291434158        5.7617747412       -1.1337606697  CLST         249          1.0000000000
       746       249  TIP3  H1           10.6982219875        5.1629665721       -0.9293972953  CLST         249          1.0000000000
       747       249  TIP3  H2           10.4258367529        6.3125993859       -1.6828222652  CLST         249          1.0000000000
       748       250  TIP3  OH2           5.9867598271       -4.8555278293        3.2968058322  CLST         250          1.0000000000
       749       250  TIP3  H1            6.1831991225       -5.6352757963        2.7681178928  CLST         250          1.0000000000
       750       250  TIP3  H2            5.5496789184       -5.4390922442        3.9096898249  CLST         250          1.0000000000
       751       251  TIP3  OH2         -14.4431685179      -11.3678695505        1.8728791581  CLST         251          1.0000000000
       752       251  TIP3  H1          -14.2454404848      -11.9904296226        1.1720671085  CLST         251          1.0000000000
       753       251  TIP3  H2          -14.6278692622      -12.1614855065        2.4410302833  CLST         251          1.0000000000
       754       252  TIP3  OH2          -6.7157164519      -14.8728126470      -11.8724112764  CLST         252          1.0000000000
       755       252  TIP3  H1           -7.6112855686      -14.4396043130      -11.8128794065  CLST         252          1.0000000000
       756       252  TIP3  H2           -6.7724742412      -14.3589848528      -12.7662121451  CLST         252          1.0000000000
       757       253  TIP3  OH2           0.6522618735        7.5547006070        8.0295502417  CLST         253          1.0000000000
       758       253  TIP3  H1            0.8071426133        7.0960264487        7.1993667280  CLST         253          1.0000000000
       759       253  TIP3  H2            1.6000438741        7.5095735584        8.0972293230  CLST         253          1.0000000000
       760       254  TIP3  OH2         -11.2885308615        1.5547370402      -14.5131439366  CLST         254          1.0000000000
       761       254  TIP3  H1          -11.9431239706        0.8165305136      -14.6112854425  CLST         254          1.0000000000
       762       254  TIP3  H2          -12.0729351076        1.7634156229      -14.0542041314  CLST         254          1.0000000000
       763       255  TIP3  OH2           4.1698881793        0.0836864045       -0.8019507081  CLST         255          1.0000000000
       764       255  TIP3  H1            4.1732819061       -0.3738318832        0.0833582987  CLST         255          1.0000000000
       765       255  TIP3  H2            3.2745558666       -0.2436471235       -0.7807460138  CLST         255          1.0000000000
       766       256  TIP3  OH2          14.1435648690       -3.5576359926      -12.1825279486  CLST         256          1.0000000000
       767       256  TIP3  H1           14.7121938790       -3.3062933230      -12.9007022692  CLST         256          1.0000000000
       768       256  TIP3  H2           13.8025914902       -4.2368554952      -12.7461740640  CLST         256          1.0000000000
       769       257  TIP3  OH2          -6.7961931887      -13.4360360582       10.3189634457  CLST         257          1.0000000000
       770       257  TIP3  H1           -7.3508955028      -14.0723917594        9.8813077777  CLST         257          1.0000000000
       771       257  TIP3  H2           -6.1568639313      -14.1318425772       10.2856934781  CLST         257          1.0000000000
       772       258  TIP3  OH2         -10.3051245185      -11.9136590834       -6.1851221229  CLST         258          1.0000000000
       773       258  TIP3  H1           -9.5756095438      -11.9361339596       -5.5997823068  CLST         258          1.0000000000
       774       258  TIP3  H2          -10.1820013994      -10.9808251291       -6.1933956915  CLST         258          1.0000000000
       775       259  TIP3  OH2           2.6481554500        1.7357010436       14.0689891591  CLST         259          1.0000000000
       776       259  TIP3  H1            2.8816317745        0.8140704039       13.8270702027  CLST         259          1.0000000000
       777       259  TIP3  H2            2.8737081426        1.3847697360       14.9181945513  CLST         259          1.0000000000
       778       260  TIP3  OH2         -10.7132871422      -10.3206580848       -9.5655388505  CLST         260          1.0000000000
       779       260  TIP3  H1          -11.5518454600      -10.6341538201       -9.8672676511  CLST         260          1.0000000000
       780       260  TIP3  H2          -11.1051105954       -9.6128123145       -9.0920126219  CLST         260          1.0000000000
       781       261  TIP3  OH2           6.9523666944        1.2276416217       -0.1948082733  CLST         261          1.0000000000
       782       261  TIP3  H1            7.0435686124        1.5471895800       -1.1166101732  CLST         261          1.0000000000
       783       261  TIP3  H2            6.2399429452        1.8273485324       -0.0794190227  CLST         261          1.0000000000
       784       262  TIP3  OH2          -1.9080308201       14.2196315971        2.9534294256  CLST         262          1.0000000000
       785       262  TIP3  H1           -2.3807205942       13.9257421519        3.7048935401  CLST         262          1.0000000000
       786       262  TIP3  H2           -1.2866710753       13.5236441209        3.0077205151  CLST         262          1.0000000000
       787       263  TIP3  OH2           6.7438300677        3.9393756461        1.7767163967  CLST         263          1.0000000000
       788       263  TIP3  H1            6.3286397881        3.7764638210        0.9047925900  CLST         263          1.0000000000
       789       263  TIP3  H2            6.1064168671        3.1567195433        2.0053009599  CLST         263          1.0000000000
       790       264  TIP3  OH2          -3.1244945155       10.2342411128       10.3167556498  CLST         264          1.0000000000
       791       264  TIP3  H1           -2.4195405125       10.7795885711       10.6345152786  CLST         264          1.0000000000
       792       264  TIP3  H2           -2.6612897384       10.2351488089        9.4914344291  CLST         264          1.0000000000
       793       265  TIP3  OH2         -12.6695182237       12.8356235766       -0.3359554558  CLST         265          1.0000000000
       794       265  TIP3  H1          -13.2232520119       12.9700397860       -1.0467087265  CLST         265          1.0000000000
       795       265  TIP3  H2          -13.1930161114       12.0595339182       -0.1314787568  CLST         265          1.0000000000
       796       266  TIP3  OH2          -4.0428066142        1.5567206244        4.0859990346  CLST         266          1.0000000000
       797       266  TIP3  H1           -4.1310082097        0.9965100304        3.2640216141  CLST         266          1.0000000000
       798       266  TIP3  H2           -3.9971220572        2.2328630330        3.4172078758  CLST         266          1.0000000000
       799       267  TIP3  OH2          -7.2053665304       11.8167857239       -5.2490903996  CLST         267          1.0000000000
       800       267  TIP3  H1           -7.6436929159       11.5547611197       -6.0757535312  CLST         267          1.0000000000
       801       267  TIP3  H2           -8.0892370244       11.8030413863       -4.8479770906  CLST         267          1.0000000000
       802       268  TIP3  OH2           4.8407031029        3.7655047604      -14.0373533798  CLST         268          1.0000000000
       803       268  TIP3  H1            5.6361678060        4.0627795445      -13.5762250517  CLST         268          1.0000000000
       804       268  TIP3  H2            4.8165738542        4.6259595648      -14.5046667219  CLST         268          1.0000000000
       805       269  TIP3  OH2           9.3823480462       -0.2707048498       11.3590067060  CLST         269          1.0000000000
       806       269  TIP3  H1           10.2356027354       -0.2440154908       11.7648921446  CLST         269          1.0000000000
       807       269  TIP3  H2            9.1529290529       -0.4838135131       12.2227421151  CLST         269          1.0000000000
       808       270  TIP3  OH2          -8.2725499578       -6.2633937696        6.1748771227  CLST         270          1.0000000000
       809       270  TIP3  H1           -8.2589550458       -6.0308693320        5.2767289387  CLST         270          1.0000000000
       810       270  TIP3  H2           -7.4363622411       -5.8471375246        6.3684207549  CLST         270          1.0000000000
       811       271  TIP3  OH2         -11.7665346431       12.2085878437       11.4742603193  CLST         271          1.0000000000
       812       271  TIP3  H1          -11.3347126312       12.2910593513       12.2973451233  CLST         271          1.0000000000
       813       271  TIP3  H2          -11.1460505645       12.8550655391       11.1115396508  CLST         271          1.0000000000
       814       272  TIP3  OH2           6.6347861375      -14.1145514984        3.2563856416  CLST         272          1.0000000000
       815       272  TIP3  H1            7.0440919270      -13.2200636490        3.9475022861  CLST         272          1.0000000000
       816       272  TIP3  H2            6.3415593136      -13.8848928712        4.2786721492  CLST         272          1.0000000000
       817       273  TIP3  OH2          -8.3578252670       11.1042637044       -7.7086991758  CLST         273          1.0000000000
       818       273  TIP3  H1           -9.1606910086       11.4136399310       -8.2331675900  CLST         273          1.0000000000
       819       273  TIP3  H2           -9.0687126014       10.3718233138       -7.5566411740  CLST         273          1.0000000000
       820       274  TIP3  OH2          -6.7542312775        0.6702365879       14.1508465948  CLST         274          1.0000000000
       821       274  TIP3  H1           -7.5346538156        0.8009209020       14.6914481623  CLST         274          1.0000000000
       822       274  TIP3  H2           -7.4810136311        0.8474061733       13.4771890749  CLST         274          1.0000000000
       823       275  TIP3  OH2           3.8355825073      -14.9945194475       -0.8041234564  CLST         275          1.0000000000
       824       275  TIP3  H1            3.2089123076      -14.6021231677       -0.4703301242  CLST         275          1.0000000000
       825       275  TIP3  H2            3.2804664463      -14.1347455482       -1.3116372452  CLST         275          1.0000000000
       826       276  TIP3  OH2           2.4531742884       -9.9933706562        7.1884885592  CLST         276          1.0000000000
       827       276  TIP3  H1            2.4128043937      -10.0413088964        8.1439812761  CLST         276          1.0000000000
       828       276  TIP3  H2            3.2728585407       -9.5045001810        7.4280170417  CLST         276          1.0000000000
       829       277  TIP3  OH2          -7.1190563781        7.0768846516        2.5314989372  CLST         277          1.0000000000
       830       277  TIP3  H1           -7.5153107840        6.4215922421        1.9802550613  CLST         277          1.0000000000
       831       277  TIP3  H2           -6.3179681988        6.7473376208        2.1575603697  CLST         277          1.0000000000
       832       278  TIP3  OH2           5.1211504926      -10.2313915726        9.8817387216  CLST         278          1.0000000000
       833       278  TIP3  H1            5.2427918071       -9.4375798533        9.3938446665  CLST         278          1.0000000000
       834       278  TIP3  H2            4.3701033837       -9.8734550362       10.3723344030  CLST         278          1.0000000000
       835       279  TIP3  OH2          12.1147795548       -5.8006742312        7.5214907635  CLST         279          1.0000000000
       836       279  TIP3  H1           11.5644716206       -6.1326346802        6.7818034553  CLST         279          1.0000000000
       837       279  TIP3  H2           12.4853572596       -5.3229329520        6.7469595050  CLST         279          1.0000000000
       838       280  TIP3  OH2           7.0422186281       -8.9597538994       12.9576913498  CLST         280          1.0000000000
       839       280  TIP3  H1            7.3196947180       -9.8541751557       12.8125754475  CLST         280          1.0000000000
       840       280  TIP3  H2            7.8266902633       -8.4966058802       12.7552775820  CLST         280          1.0000000000
       841       281  TIP3  OH2          -1.8152548018        4.7042088206       10.6095141585  CLST         281          1.0000000000
       842       281  TIP3  H1           -2.3061385416        3.9606405000       10.6623033411  CLST         281          1.0000000000
       843       281  TIP3  H2           -1.4819824555        4.8619337125       11.4596331949  CLST         281          1.0000000000
       844       282  TIP3  OH2          10.5681524664       10.6853085902      -10.9062444124  CLST         282          1.0000000000
       845       282  TIP3  H1           11.1257938104        9.9417964024      -11.2623270421  CLST         282          1.0000000000
       846       282  TIP3  H2           11.3916189109       11.1506870564      -11.1388301721  CLST         282          1.0000000000
       847       283  TIP3  OH2          -2.9203458879       -4.4459726085        0.0051454312  CLST         283          1.0000000000
       848       283  TIP3  H1           -3.6609287840       -4.7192947342       -0.4724550745  CLST         283          1.0000000000
       849       283  TIP3  H2           -2.9033647717       -5.3163771460        0.4438203441  CLST         283          1.0000000000
       850       284  TIP3  OH2           4.0211344974       10.6810567191        2.1165018966  CLST         284          1.0000000000
       851       284  TIP3  H1            4.4457222749        9.8461802890        2.1079481140  CLST         284          1.0000000000
       852       284  TIP3  H2            3.4328447342       10.1756170541        2.6923353815  CLST         284          1.0000000000
       853       285  TIP3  OH2         -11.5431317828       -6.1179094197        8.3304445533  CLST         285          1.0000000000
       854       285  TIP3  H1          -10.7242028347       -6.4992976890        7.9233732260  CLST         285          1.0000000000
       855       285  TIP3  H2          -11.9433025233       -6.2812373685        7.4330909206  CLST         285          1.0000000000
       856       286  TIP3  OH2          -2.6673261231       -9.8155494565      -10.7589652595  CLST         286          1.0000000000
       857       286  TIP3  H1           -2.9180494462       -9.4041490462      -11.5846160707  CLST         286          1.0000000000
       858       286  TIP3  H2           -3.5887796433      -10.0669700636      -10.5430480785  CLST         286          1.0000000000
       859       287  TIP3  OH2           2.7923993862       -0.8115954797       -7.8394464471  CLST         287          1.0000000000
       860       287  TIP3  H1            2.6341572354        0.1429753044       -7.9511047435  CLST         287          1.0000000000
       861       287  TIP3  H2            3.6569102660       -0.5933004804       -8.2166206409  CLST         287          1.0000000000
       862       288  TIP3  OH2          13.4953818137      -14.1615086229       -8.5630291794  CLST         288          1.0000000000
       863       288  TIP3  H1           13.2481153201      -13.4129500657       -7.9267816717  CLST         288          1.0000000000
       864       288  TIP3  H2           14.0292391293      -14.7139619660       -7.9477082606  CLST         288          1.0000000000
       865       289  TIP3  OH2          14.1694278895        3.8776777692      -10.2495814239  CLST         289          1.0000000000
       866       289  TIP3  H1           13.7186102879        4.0624874300       -9.4007674552  CLST         289          1.0000000000
       867       289  TIP3  H2           14.9481844698        3.6651772232       -9.8160763941  CLST         289          1.0000000000
       868       290  TIP3  OH2          11.6362170308        1.0175361527       11.8490751989  CLST         290          1.0000000000
       869       290  TIP3  H1           11.3014696140        1.1252391148       12.7123729617  CLST         290          1.0000000000
       870       290  TIP3  H2           11.9221527875        1.9371266036       12.0143201461  CLST         290          1.0000000000
       871       291  TIP3  OH2         -11.0913132820       -9.6032090859       -2.8704497873  CLST         291          1.0000000000
       872       291  TIP3  H1          -10.7449912047       -9.8575617461       -2.1331536553  CLST         291          1.0000000000
       873       291  TIP3  H2          -11.1797809694       -9.0753112679       -1.8906337833  CLST         291          1.0000000000
       874       292  TIP3  OH2           8.9824602183       -1.8728774547      -11.7579465505  CLST         292          1.0000000000
       875       292  TIP3  H1            8.2669417976       -2.5821950616      -11.7386166818  CLST         292          1.0000000000
       876       292  TIP3  H2            8.9575734408       -1.9822685743      -10.7945820223  CLST         292          1.0000000000
       877       293  TIP3  OH2           2.3213205645        2.7677427484      -13.4241434919  CLST         293          1.0000000000
       878       293  TIP3  H1            2.2474234283        3.7525062483      -13.4652632927  CLST         293          1.0000000000
       879       293  TIP3  H2            3.2326560087        2.9904886048      -13.6702364329  CLST         293          1.0000000000
       880       294  TIP3  OH2           1.9750079140        7.8153155314        0.8512581065  CLST         294          1.0000000000
       881       294  TIP3  H1            1.7928020999        7.7694431564        1.6728933579  CLST         294          1.0000000000
       882       294  TIP3  H2            2.7486649924        8.0760733716        1.4898539739  CLST         294          1.0000000000
       883       295  TIP3  OH2           3.6975134229       12.8441433668       -4.5832681430  CLST         295          1.0000000000
       884       295  TIP3  H1            3.0926476742       13.2023241586       -3.8897705163  CLST         295          1.0000000000
       885       295  TIP3  H2            3.9161398619       13.6666794681       -4.9956382267  CLST         295          1.0000000000
       886       296  TIP3  OH2           2.6855217982        5.5089586027      -11.2264406090  CLST         296          1.0000000000
       887       296  TIP3  H1            2.4963985782        5.3639210539      -12.1239388636  CLST         296          1.0000000000
       888       296  TIP3  H2            1.8223882528        5.1718450559      -11.0838127945  CLST         296          1.0000000000
       889       297  TIP3  OH2          13.3979275488       -0.0521632943        9.1057096997  CLST         297          1.0000000000
       890       297  TIP3  H1           13.5721025833        0.8566654504        8.9832944042  CLST         297          1.0000000000
       891       297  TIP3  H2           14.3098221882       -0.2602785275        9.4255701108  CLST         297          1.0000000000
       892       298  TIP3  OH2          12.3375343190       -5.1564353805      -12.6728564708  CLST         298          1.0000000000
       893       298  TIP3  H1           11.6511473229       -5.7670261606      -13.0553007223  CLST         298          1.0000000000
       894       298  TIP3  H2           12.8349366316       -6.0305746308      -12.6083165920  CLST         298          1.0000000000
       895       299  TIP3  OH2           3.4261764740       -5.6262624917       -7.7743513096  CLST         299          1.0000000000
       896       299  TIP3  H1            2.6313833594       -5.0387751697       -7.9233300001  CLST         299          1.0000000000
       897       299  TIP3  H2            3.8778395442       -4.9255559617       -7.4241959459  CLST         299          1.0000000000
       898       300  TIP3  OH2          10.3622341503       -6.7716145090      -13.8432289139  CLST         300          1.0000000000
       899       300  TIP3  H1           10.1259438353       -6.0395477594      -14.6693906097  CLST         300          1.0000000000
       900       300  TIP3  H2            9.4331356320       -6.1654701206      -13.8170377126  CLST         300          1.0000000000
       901       301  TIP3  OH2          11.2326252324       -6.8661346954        0.2949852246  CLST         301          1.0000000000
       902       301  TIP3  H1           11.1010258138       -6.3690808737       -0.5218771078  CLST         301          1.0000000000
       903       301  TIP3  H2           10.7329161170       -7.5205154277       -0.1758926556  CLST         301          1.0000000000
       904       302  TIP3  OH2          11.3835730170       -7.2493403705       11.9217916330  CLST         302          1.0000000000
       905       302  TIP3  H1           11.5568543726       -6.5983078516       11.3199855267  CLST         302          1.0000000000
       906       302  TIP3  H2           11.5021506158       -8.0177620278       11.3568888517  CLST         302          1.0000000000
       907       303  TIP3  OH2          -8.7953292954       11.7858922033        6.8880867280  CLST         303          1.0000000000
       908       303  TIP3  H1           -9.4601243939       12.0583714104        6.1557779609  CLST         303          1.0000000000
       909       303  TIP3  H2           -8.3638080257       12.6450620789        6.5604342478  CLST         303          1.0000000000
       910       304  TIP3  OH2          -1.9777735210        8.1699677246       -0.7014003824  CLST         304          1.0000000000
       911       304  TIP3  H1           -2.4370940305        7.8424733534        0.0630871649  CLST         304          1.0000000000
       912       304  TIP3  H2           -2.7168837005        8.7645370760       -0.7769376138  CLST         304          1.0000000000
       913       305  TIP3  OH2          -2.4987843672       -6.4385768785      -10.3434761566  CLST         305          1.0000000000
       914       305  TIP3  H1           -1.8260975281       -5.5664626882      -10.6208308864  CLST         305          1.0000000000
       915       305  TIP3  H2           -1.4933993328       -6.6338815363      -10.7338219157  CLST         305          1.0000000000
       916       306  TIP3  OH2          -8.4186805734      -14.3063092135       -7.1562738445  CLST         306          1.0000000000
       917       306  TIP3  H1           -7.4995155561      -14.2672415458       -7.3019661323  CLST         306          1.0000000000
       918       306  TIP3  H2           -8.2128682114      -14.0377604801       -6.2473333339  CLST         306          1.0000000000
       919       307  TIP3  OH2           0.8872761575       10.2089734030      -14.3759476806  CLST         307          1.0000000000
       920       307  TIP3  H1            1.2524865429       10.5850607586      -13.5653247027  CLST         307          1.0000000000
       921       307  TIP3  H2            1.5839218950        9.5055371400      -14.1721424867  CLST         307          1.0000000000
       922       308  TIP3  OH2          12.5961771835       -3.2347138878       13.3476491224  CLST         308          1.0000000000
       923       308  TIP3  H1           12.4102454197       -3.1775057638       12.3616083579  CLST         308          1.0000000000
       924       308  TIP3  H2           13.3810330378       -3.7539090350       13.5807974637  CLST         308          1.0000000000
       925       309  TIP3  OH2          12.7086912573       12.4426394869       14.9923151192  CLST         309          1.0000000000
       926       309  TIP3  H1           12.0122362115       11.7983694612       14.8348093815  CLST         309          1.0000000000
       927       309  TIP3  H2           12.6444953147       12.5808575631       14.0803022073  CLST         309          1.0000000000
       928       310  TIP3  OH2           4.2300631728       14.5029594520       -6.5737892874  CLST         310          1.0000000000
       929       310  TIP3  H1            3.9522695926       14.8564934032       -7.4746584214  CLST         310          1.0000000000
       930       310  TIP3  H2            3.8079689994       13.7844721885       -7.4314927698  CLST         310          1.0000000000
       931       311  TIP3  OH2          -5.5989411882        5.7260495758       -5.2411809958  CLST         311          1.0000000000
       932       311  TIP3  H1           -6.6198378055        5.3496230202       -5.5986088387  CLST         311          1.0000000000
       933       311  TIP3  H2           -5.8521494963        5.7332740272       -6.1939548771  CLST         311          1.0000000000
       934       312  TIP3  OH2           5.0324308696       -8.8675545844        7.7281114175  CLST         312          1.0000000000
       935       312  TIP3  H1            4.9962967216       -7.9973457241        8.2280946344  CLST         312          1.0000000000
       936       312  TIP3  H2            5.9986769918       -8.4977874426        7.5657391432  CLST         312          1.0000000000
       937       313  TIP3  OH2          -2.1621534661        7.9247069080       10.9987971868  CLST         313          1.0000000000
       938       313  TIP3  H1           -2.8476185285        8.5922064137       11.0052877888  CLST         313          1.0000000000
       939       313  TIP3  H2           -2.9212128291        7.4541006979       10.5621839442  CLST         313          1.0000000000
       940       314  TIP3  OH2           9.5813812254       -2.4675137487       -1.9398404025  CLST         314          1.0000000000
       941       314  TIP3  H1            9.7058658489       -3.3446465976       -1.5589928516  CLST         314          1.0000000000
       942       314  TIP3  H2            8.8308248262       -2.4558349044       -1.4054343815  CLST         314          1.0000000000
       943       315  TIP3  OH2           4.4962794216        9.8684824660       -2.9350201408  CLST         315          1.0000000000
       944       315  TIP3  H1            3.7667195145        9.3265564641       -2.7302564402  CLST         315          1.0000000000
       945       315  TIP3  H2            4.3115010470       10.6336521421       -2.3329001537  CLST         315          1.0000000000
       946       316  TIP3  OH2          13.9575904683       -6.5794642731       -5.9911167538  CLST         316          1.0000000000
       947       316  TIP3  H1           13.0227820702       -6.5745775034       -5.7568356892  CLST         316          1.0000000000
       948       316  TIP3  H2           14.0073206678       -5.7817915227       -6.4360049085  CLST         316          1.0000000000
       949       317  TIP3  OH2          -2.6359704046       -9.9136069522       -2.4816673000  CLST         317          1.0000000000
       950       317  TIP3  H1           -2.1702054606       -9.8152880708       -3.3232995053  CLST         317          1.0000000000
       951       317  TIP3  H2           -2.1286618454       -9.1482104623       -2.1394607081  CLST         317          1.0000000000
       952       318  TIP3  OH2          -1.3828407481        9.8719503662       -5.0609036436  CLST         318          1.0000000000
       953       318  TIP3  H1           -2.2945803832        9.6591385701       -5.3581316523  CLST         318          1.0000000000
       954       318  TIP3  H2           -1.7895420897       10.7221498383       -4.7914412873  CLST         318          1.0000000000
       955       319  TIP3  OH2           6.1862890763       -7.9308544489       -2.2344564611  CLST         319          1.0000000000
       956       319  TIP3  H1            6.7929465524       -8.2003331079       -2.9102111804  CLST         319          1.0000000000
       957       319  TIP3  H2            6.4565909076       -8.7790355064       -1.8403074708  CLST         319          1.0000000000
       958       320  TIP3  OH2           5.6470541337       12.5784164609      -12.1060790795  CLST         320          1.0000000000
       959       320  TIP3  H1            6.1291805389       11.7440614055      -12.5777936422  CLST         320          1.0000000000
       960       320  TIP3  H2            6.3492818787       11.9284208776      -11.5155042424  CLST         320          1.0000000000
       961       321  TIP3  OH2           1.5049126463      -11.2512546153        9.3401591563  CLST         321          1.0000000000
       962       321  TIP3  H1            1.7275136206      -11.8639101407       10.0376622973  CLST         321          1.0000000000
       963       321  TIP3  H2            1.6650601502      -10.5965319825        9.9928417569  CLST         321          1.0000000000
       964       322  TIP3  OH2           0.7507928367        5.6908009813        9.8473387821  CLST         322          1.0000000000
       965       322  TIP3  H1            0.2411273810        6.3028275914        9.2988205851  CLST         322          1.0000000000
       966       322  TIP3  H2            0.0827058490        5.0698954301       10.0853846230  CLST         322          1.0000000000
       967       323  TIP3  OH2           8.1486403592        3.2462486644       12.7128318694  CLST         323          1.0000000000
       968       323  TIP3  H1            7.2167052605        2.9434687527       12.7867513218  CLST         323          1.0000000000
       969       323  TIP3  H2            7.9766034606        2.8155112842       11.8161025286  CLST         323          1.0000000000
       970       324  TIP3  OH2           6.7476365949        3.2892204565       -1.5591564251  CLST         324          1.0000000000
       971       324  TIP3  H1            5.9756834596        3.8550518702       -1.6344014150  CLST         324          1.0000000000
       972       324  TIP3  H2            7.1761021987        4.0015871322       -1.9914986364  CLST         324          1.0000000000
       973       325  TIP3  OH2         -12.2262374954       -8.4053083231       11.7547406694  CLST         325          1.0000000000
       974       325  TIP3  H1          -12.5243612737       -7.5908458599       11.2281340366  CLST         325          1.0000000000
       975       325  TIP3  H2          -11.5054056117       -7.6685521605       11.8881538330  CLST         325          1.0000000000
       976       326  TIP3  OH2         -12.2357403528        9.2060537478       -5.2379425804  CLST         326          1.0000000000
       977       326  TIP3  H1          -12.2330218828       10.0547733760       -4.9542757214  CLST         326          1.0000000000
       978       326  TIP3  H2          -11.7971104652        9.1206136450       -6.0582584031  CLST         326          1.0000000000
       979       327  TIP3  OH2          12.1476717405       -5.6091159986       10.0486626171  CLST         327          1.0000000000
       980       327  TIP3  H1           12.1134763862       -5.9821362879        9.2043097411  CLST         327          1.0000000000
       981       327  TIP3  H2           12.5183979627       -5.0249383184        9.0737495896  CLST         327          1.0000000000
       982       328  TIP3  OH2         -12.2669183660       -7.8153304265      -12.8400955956  CLST         328          1.0000000000
       983       328  TIP3  H1          -11.4005873521       -7.6705385951      -12.4076558672  CLST         328          1.0000000000
       984       328  TIP3  H2          -12.1237956370       -8.7235646835      -12.4388135707  CLST         328          1.0000000000
       985       329  TIP3  OH2           6.4521461673       -4.3108486459       -1.6531071852  CLST         329          1.0000000000
       986       329  TIP3  H1            5.9184603957       -4.1534774554       -0.8860702109  CLST         329          1.0000000000
       987       329  TIP3  H2            5.7635985673       -4.1127568057       -2.2945245410  CLST         329          1.0000000000
       988       330  TIP3  OH2          12.8362905566        5.7618638968      -14.2957506688  CLST         330          1.0000000000
       989       330  TIP3  H1           13.5181450276        6.4250122775      -14.4397387126  CLST         330          1.0000000000
       990       330  TIP3  H2           13.4291708539        5.4952060080      -13.6053748488  CLST         330          1.0000000000
       991       331  TIP3  OH2          -4.7003259742       -0.1248460141        6.0847095440  CLST         331          1.0000000000
       992       331  TIP3  H1           -4.3075792665        0.3010994203        5.2841765892  CLST         331          1.0000000000
       993       331  TIP3  H2           -5.5614559237        0.2080257671        5.7320095838  CLST         331          1.0000000000
       994       332  TIP3  OH2          -8.7630994942        9.1151117890       -2.1722642354  CLST         332          1.0000000000
       995       332  TIP3  H1           -9.1060417614        9.9697594483       -1.9053416159  CLST         332          1.0000000000
       996       332  TIP3  H2           -8.1600000241        9.3378664338       -1.4015440379  CLST         332          1.0000000000
       997       333  TIP3  OH2          -6.8555415678       -8.7110302229       -6.8840525336  CLST         333          1.0000000000
       998       333  TIP3  H1           -7.3892956335       -8.9405510963       -7.6815198176  CLST         333          1.0000000000
       999       333  TIP3  H2           -7.4503251533       -7.8989487957       -6.8520425661  CLST         333          1.0000000000
      1000       334  TIP3  OH2         -10.5852640377        8.1069278691       -9.5005676893  CLST         334          1.0000000000
      1001       334  TIP3  H1          -10.0822538431        8.8454624089       -9.6992572023  CLST         334          1.0000000000
      1002       334  TIP3  H2          -10.6682950943        8.3986583189       -8.5539948729  CLST         334          1.0000000000
      1003       335  TIP3  OH2           1.5005497383       -0.1113098016       -1.0909862858  CLST         335          1.0000000000
      1004       335  TIP3  H1            1.2505009159       -0.8887745967       -0.5868320118  CLST         335          1.0000000000
      1005       335  TIP3  H2            0.7726819155       -0.2262099583       -1.7572473638  CLST         335          1.0000000000
      1006       336  TIP3  OH2          11.6257063699        5.4813103074        1.3398557839  CLST         336          1.0000000000
      1007       336  TIP3  H1           10.7888666747        5.0766357857        1.2185375991  CLST         336          1.0000000000
      1008       336  TIP3  H2           11.0069768222        6.2350052435        1.2057646379  CLST         336          1.0000000000
      1009       337  TIP3  OH2           1.8181442219      -14.6415466246        5.3201740036  CLST         337          1.0000000000
      1010       337  TIP3  H1            2.0521827666      -13.5514846740        5.6928552230  CLST         337          1.0000000000
      1011       337  TIP3  H2            2.0578995842      -13.9302950337        4.6741769635  CLST         337          1.0000000000
      1012       338  TIP3  OH2          -4.2885697012        2.7386386641      -11.5812365735  CLST         338          1.0000000000
      1013       338  TIP3  H1           -4.2780397343        2.7043438508      -12.5429660905  CLST         338          1.0000000000
      1014       338  TIP3  H2           -5.2054284490        2.8897515939      -11.7526617747  CLST         338          1.0000000000
      1015       339  TIP3  OH2           5.0825850009        2.1484038915       -8.0075251544  CLST         339          1.0000000000
      1016       339  TIP3  H1            4.1619041143        2.0305648304       -7.7928356419  CLST         339          1.0000000000
      1017       339  TIP3  H2            4.7846175292        2.8005965085       -8.6205791344  CLST         339          1.0000000000
      1018       340  TIP3  OH2         -10.8780500046       11.7850818125       -8.7693038456  CLST         340          1.0000000000
      1019       340  TIP3  H1          -11.8025294906       11.4131751585       -8.7912339742  CLST         340          1.0000000000
      1020       340  TIP3  H2          -11.1069596735       12.4265498878       -8.0652854505  CLST         340          1.0000000000
      1021       341  TIP3  OH2          -2.0081289318       14.1906642168       -0.4609507058  CLST         341          1.0000000000
      1022       341  TIP3  H1           -1.7168887123       13.4052878287       -0.9500978072  CLST         341          1.0000000000
      1023       341  TIP3  H2           -2.8265140401       13.9149061069       -0.8234045025  CLST         341          1.0000000000
      1024       342  TIP3  OH2         -11.8236952380        3.7069138323        9.5832354864  CLST         342          1.0000000000
      1025       342  TIP3  H1          -12.1561880728        2.9867418510       10.1564687136  CLST         342          1.0000000000
      1026       342  TIP3  H2          -11.1154351332        3.5368046079       10.2028917878  CLST         342          1.0000000000
      1027       343  TIP3  OH2          -0.6593828609       -1.8092898986      -14.0636601792  CLST         343          1.0000000000
      1028       343  TIP3  H1           -1.2118202140       -0.9666091989      -13.9925682044  CLST         343          1.0000000000
      1029       343  TIP3  H2           -0.9816440161       -1.7100539696      -14.9945194475  CLST         343          1.0000000000
      1030       344  TIP3  OH2           8.9934212896        3.9635457904        4.1545490229  CLST         344          1.0000000000
      1031       344  TIP3  H1            8.0493952835        4.3747499428        4.8045799148  CLST         344          1.0000000000
      1032       344  TIP3  H2            8.3277419794        3.3261788784        4.3080549181  CLST         344          1.0000000000
      1033       345  TIP3  OH2           0.0676492660        9.9084757280       -0.2597095460  CLST         345          1.0000000000
      1034       345  TIP3  H1            0.6503799150        9.2275036164        0.0521646742  CLST         345          1.0000000000
      1035       345  TIP3  H2           -0.6205998355        9.2686631833       -0.2028582977  CLST         345          1.0000000000
      1036       346  TIP3  OH2          -4.7070419136      -14.6457003843        6.2925196752  CLST         346          1.0000000000
      1037       346  TIP3  H1           -5.0083197605      -13.7107042971        6.1148931567  CLST         346          1.0000000000
      1038       346  TIP3  H2           -4.0906136122      -14.2182010161        6.8851864816  CLST         346          1.0000000000
      1039       347  TIP3  OH2         -13.5839292365      -11.4975242543       -1.9446659837  CLST         347          1.0000000000
      1040       347  TIP3  H1          -13.4893691534      -10.9015165648       -2.7194541147  CLST         347          1.0000000000
      1041       347  TIP3  H2          -13.7889648885      -10.7339638355       -1.3590824677  CLST         347          1.0000000000
      1042       348  TIP3  OH2           4.2864127943        7.5595222073       -7.3702629916  CLST         348          1.0000000000
      1043       348  TIP3  H1            4.8932921412        7.8184510609       -6.9185690733  CLST         348          1.0000000000
      1044       348  TIP3  H2            4.4439008810        7.2414403780       -6.1997386595  CLST         348          1.0000000000
      1045       349  TIP3  OH2           8.2437580117        9.6121938841        2.4591343647  CLST         349          1.0000000000
      1046       349  TIP3  H1            8.4277415102        9.7859680749        1.4976604679  CLST         349          1.0000000000
      1047       349  TIP3  H2            7.3928512473        9.2766071288        2.1512944481  CLST         349          1.0000000000
      1048       350  TIP3  OH2          -8.7123908876        0.6895988718      -14.1022170893  CLST         350          1.0000000000
      1049       350  TIP3  H1           -9.0735916821       -0.1849192972      -13.8893609347  CLST         350          1.0000000000
      1050       350  TIP3  H2           -9.6146568094        0.8072027259      -14.3479103682  CLST         350          1.0000000000
      1051       351  TIP3  OH2          10.2074110204        3.2683214231        5.9777551854  CLST         351          1.0000000000
      1052       351  TIP3  H1           10.4963590191        3.8293658311        5.2763873793  CLST         351          1.0000000000
      1053       351  TIP3  H2           10.1495415806        2.8617604040        4.8648797151  CLST         351          1.0000000000
      1054       352  TIP3  OH2           5.3924439908       -0.3171445088       -8.5049839190  CLST         352          1.0000000000
      1055       352  TIP3  H1            5.9657500524       -0.6291972930       -7.7132488386  CLST         352          1.0000000000
      1056       352  TIP3  H2            5.7047868635        0.5453461612       -8.2192299226  CLST         352          1.0000000000
      1057       353  TIP3  OH2          -1.2719659365        9.4733123405      -12.9186184110  CLST         353          1.0000000000
      1058       353  TIP3  H1           -0.5013883597        9.2923948472      -13.5342859708  CLST         353          1.0000000000
      1059       353  TIP3  H2           -1.5418651848        8.6028194722      -12.9903010241  CLST         353          1.0000000000
      1060       354  TIP3  OH2         -12.0950959200      -10.9745745523      -14.0472375392  CLST         354          1.0000000000
      1061       354  TIP3  H1          -12.4122869807      -10.6429439096      -14.8690995019  CLST         354          1.0000000000
      1062       354  TIP3  H2          -11.5593715673      -11.5562816901      -14.5951759942  CLST         354          1.0000000000
      1063       355  TIP3  OH2           1.6835998967      -13.7680447282       -9.6118437722  CLST         355          1.0000000000
      1064       355  TIP3  H1            1.4202957334      -13.2077459512       -8.8604575797  CLST         355          1.0000000000
      1065       355  TIP3  H2            1.0135037019      -12.8387349328       -9.9312015120  CLST         355          1.0000000000
      1066       356  TIP3  OH2         -12.9088546268       -4.9520411327       -3.2929409377  CLST         356          1.0000000000
      1067       356  TIP3  H1          -13.2055445915       -5.7017155974       -3.8106986464  CLST         356          1.0000000000
      1068       356  TIP3  H2          -13.3428261489       -4.3310701233       -3.8756760875  CLST         356          1.0000000000
      1069       357  TIP3  OH2          -6.7500099805       -9.7685530414        4.9263967617  CLST         357          1.0000000000
      1070       357  TIP3  H1           -5.9590061823       -9.7645897268        4.3933806382  CLST         357          1.0000000000
      1071       357  TIP3  H2           -6.6458880225       -8.7957189558        4.8128312318  CLST         357          1.0000000000
      1072       358  TIP3  OH2          -2.3498862233       -7.5436535472        4.0788967912  CLST         358          1.0000000000
      1073       358  TIP3  H1           -1.3641024971       -7.5512324234        4.1058650287  CLST         358          1.0000000000
      1074       358  TIP3  H2           -2.2731342883       -7.3266425321        5.0993713978  CLST         358          1.0000000000
      1075       359  TIP3  OH2          10.2608194398       10.0064055335       -1.6206375797  CLST         359          1.0000000000
      1076       359  TIP3  H1           10.3312085415       10.4793869452       -0.7678158311  CLST         359          1.0000000000
      1077       359  TIP3  H2           10.3349592646       10.8838370605       -1.9647448193  CLST         359          1.0000000000
      1078       360  TIP3  OH2           7.3808244756       12.8104399321       12.9112685780  CLST         360          1.0000000000
      1079       360  TIP3  H1            8.1895298129       13.2557365559       12.7145568739  CLST         360          1.0000000000
      1080       360  TIP3  H2            7.0425757438       12.5573976500       12.0636027102  CLST         360          1.0000000000
      1081       361  TIP3  OH2          -6.0314394742      -11.1974299674       10.8463046414  CLST         361          1.0000000000
      1082       361  TIP3  H1           -6.1654869379      -10.9002941010        9.9268381614  CLST         361          1.0000000000
      1083       361  TIP3  H2           -6.2365006174      -12.1470693317       10.6986432030  CLST         361          1.0000000000
      1084       362  TIP3  OH2           4.5233206044       -3.6542623839       10.3492790808  CLST         362          1.0000000000
      1085       362  TIP3  H1            4.9119429419       -3.2590297150        9.5277856542  CLST         362          1.0000000000
      1086       362  TIP3  H2            5.4352292082       -3.9238848415       10.5730741430  CLST         362          1.0000000000
      1087       363  TIP3  OH2           5.1265319521       -4.5528050927       14.0750155866  CLST         363          1.0000000000
      1088       363  TIP3  H1            5.2564240093       -4.8185221388       14.9945194475  CLST         363          1.0000000000
      1089       363  TIP3  H2            5.9317346900       -4.0608949963       14.1416987630  CLST         363          1.0000000000
      1090       364  TIP3  OH2          -1.1826922695        4.9204926484       13.2121269095  CLST         364          1.0000000000
      1091       364  TIP3  H1           -0.2599660158        4.6826897966       13.5295596201  CLST         364          1.0000000000
      1092       364  TIP3  H2           -1.0661320592        5.8505245353       13.1864436664  CLST         364          1.0000000000
      1093       365  TIP3  OH2          -7.8797986548        4.6663926642      -11.9522103739  CLST         365          1.0000000000
      1094       365  TIP3  H1           -8.3500124052        4.7399670731      -11.1051989424  CLST         365          1.0000000000
      1095       365  TIP3  H2           -7.1246661230        4.9489343045      -11.4161620411  CLST         365          1.0000000000
      1096       366  TIP3  OH2         -10.0375828436       -2.7208406497        0.5030430557  CLST         366          1.0000000000
      1097       366  TIP3  H1          -10.9455206210       -2.4714792886        0.7269901108  CLST         366          1.0000000000
      1098       366  TIP3  H2          -10.3863934779       -2.8758362842       -0.4183869167  CLST         366          1.0000000000
      1099       367  TIP3  OH2          13.6327109097       10.4861848354       11.6781436911  CLST         367          1.0000000000
      1100       367  TIP3  H1           13.2430850197       11.3324252045       11.3537551243  CLST         367          1.0000000000
      1101       367  TIP3  H2           13.0424116599       10.7242077796       12.4288085106  CLST         367          1.0000000000
      1102       368  TIP3  OH2          -9.7966121336       -1.2556278964       12.7985751453  CLST         368          1.0000000000
      1103       368  TIP3  H1          -10.6486812452       -1.3224311461       12.3962093782  CLST         368          1.0000000000
      1104       368  TIP3  H2           -9.5444902382       -2.2148358554       12.8462978586  CLST         368          1.0000000000
      1105       369  TIP3  OH2           7.7205572082        9.4163640265       -2.3610251347  CLST         369          1.0000000000
      1106       369  TIP3  H1            8.6842121584        9.5614462117       -2.3779066435  CLST         369          1.0000000000
      1107       369  TIP3  H2            7.8419295059        8.4951482893       -2.1515500425  CLST         369          1.0000000000
      1108       370  TIP3  OH2          -6.6864343340      -13.0840242766       -0.8645832822  CLST         370          1.0000000000
      1109       370  TIP3  H1           -5.9161369062      -13.4114786452       -0.3649526110  CLST         370          1.0000000000
      1110       370  TIP3  H2           -7.0792230418      -13.1309859699        0.0142956604  CLST         370          1.0000000000
      1111       371  TIP3  OH2           8.6864245014       12.2170087497        9.7113326953  CLST         371          1.0000000000
      1112       371  TIP3  H1            8.7100479229       11.6071257728        8.9428506267  CLST         371          1.0000000000
      1113       371  TIP3  H2            7.6692653728       12.2342105483        9.5982452382  CLST         371          1.0000000000
      1114       372  TIP3  OH2          -1.1625876955       11.8562218827       -1.6736664621  CLST         372          1.0000000000
      1115       372  TIP3  H1           -1.7451105901       11.1980745766       -2.1405585061  CLST         372          1.0000000000
      1116       372  TIP3  H2           -0.6833012733       11.0337096521       -1.4238560846  CLST         372          1.0000000000
      1117       373  TIP3  OH2           8.8814292969       -5.6128149879        8.6276789627  CLST         373          1.0000000000
      1118       373  TIP3  H1            8.7382994038       -6.5560233476        8.7336773983  CLST         373          1.0000000000
      1119       373  TIP3  H2            9.7081898119       -5.9416597157        8.1350104114  CLST         373          1.0000000000
      1120       374  TIP3  OH2          11.3338813204       -9.9399132686       -4.6906476942  CLST         374          1.0000000000
      1121       374  TIP3  H1           10.9533176891      -10.3037746312       -3.8479969589  CLST         374          1.0000000000
      1122       374  TIP3  H2           11.5258314150      -10.8542000503       -4.8891169546  CLST         374          1.0000000000
      1123       375  TIP3  OH2           1.4567154045       13.5580507990       -2.9286124999  CLST         375          1.0000000000
      1124       375  TIP3  H1            1.4626258231       14.2712083907       -2.2669743986  CLST         375          1.0000000000
      1125       375  TIP3  H2            0.5809644906       13.9397286825       -3.1333968129  CLST         375          1.0000000000
      1126       376  TIP3  OH2          10.8904113710        4.2381188844       -8.6852435302  CLST         376          1.0000000000
      1127       376  TIP3  H1            9.9171225031        4.4658621379       -8.8567102142  CLST         376          1.0000000000
      1128       376  TIP3  H2           11.1863847393        4.8252045167       -9.4289265150  CLST         376          1.0000000000
      1129       377  TIP3  OH2           7.8996165765       11.1688620111      -12.1352661562  CLST         377          1.0000000000
      1130       377  TIP3  H1            8.6213071832       10.7508574929      -12.7082834889  CLST         377          1.0000000000
      1131       377  TIP3  H2            8.7769099742       11.3193673210      -11.6215488936  CLST         377          1.0000000000
      1132       378  TIP3  OH2           6.4427262214        9.4990900395        7.5625525233  CLST         378          1.0000000000
      1133       378  TIP3  H1            6.8768532711        8.6402478781        7.7826659804  CLST         378          1.0000000000
      1134       378  TIP3  H2            5.8965281007        9.5000436966        8.3620330305  CLST         378          1.0000000000
      1135       379  TIP3  OH2          -6.5918516693      -10.7147746044       -1.8920435282  CLST         379          1.0000000000
      1136       379  TIP3  H1           -5.9965428552      -10.9687742810       -2.6666062230  CLST         379          1.0000000000
      1137       379  TIP3  H2           -6.7429310420      -11.6856363516       -1.9855735084  CLST         379          1.0000000000
      1138       380  TIP3  OH2           7.7129764489       11.5971727075        4.3848587465  CLST         380          1.0000000000
      1139       380  TIP3  H1            6.7900304999       11.6020624438        4.1725101009  CLST         380          1.0000000000
      1140       380  TIP3  H2            7.7204212726       10.9603771603        3.6870645343  CLST         380          1.0000000000
      1141       381  TIP3  OH2          -7.5252871720       -6.6378558089      -10.2267871919  CLST         381          1.0000000000
      1142       381  TIP3  H1           -8.0078471584       -6.2396467165      -10.9374245039  CLST         381          1.0000000000
      1143       381  TIP3  H2           -6.6475492211       -6.3907031829      -10.5367993270  CLST         381          1.0000000000
      1144       382  TIP3  OH2          -3.6267748642        2.3776710788       -2.0141434492  CLST         382          1.0000000000
      1145       382  TIP3  H1           -4.0531458188        2.6650892502       -2.7965474541  CLST         382          1.0000000000
      1146       382  TIP3  H2           -3.9003525164        1.5202659642       -2.4218524116  CLST         382          1.0000000000
      1147       383  TIP3  OH2          -7.5876879655       -9.4831696147        8.5117348714  CLST         383          1.0000000000
      1148       383  TIP3  H1           -6.5872236269       -9.5350212319        8.4795354821  CLST         383          1.0000000000
      1149       383  TIP3  H2           -7.4274676996      -10.2336884834        7.8768575635  CLST         383          1.0000000000
      1150       384  TIP3  OH2         -11.7920743495       -5.2402938655       13.1934906306  CLST         384          1.0000000000
      1151       384  TIP3  H1          -11.5420549332       -6.1400865963       13.3885064125  CLST         384          1.0000000000
      1152       384  TIP3  H2          -12.2554037455       -5.5214851823       12.4709732585  CLST         384          1.0000000000
      1153       385  TIP3  OH2           7.8263168369        0.4021219869        9.1798535091  CLST         385          1.0000000000
      1154       385  TIP3  H1            8.1840948315        1.2101253339        9.3259088888  CLST         385          1.0000000000
      1155       385  TIP3  H2            8.5382147689        0.6490441304       10.0198810377  CLST         385          1.0000000000
      1156       386  TIP3  OH2         -12.4492137227       -8.8407758500        8.5182018374  CLST         386          1.0000000000
      1157       386  TIP3  H1          -12.7927754233       -7.9201380966        8.6240280775  CLST         386          1.0000000000
      1158       386  TIP3  H2          -11.6643832072       -8.4199409795        8.8144403702  CLST         386          1.0000000000
      1159       387  TIP3  OH2          -0.9974577830      -12.6581406410       -0.9647952156  CLST         387          1.0000000000
      1160       387  TIP3  H1           -1.3303881406      -13.2153774316       -0.4804228530  CLST         387          1.0000000000
      1161       387  TIP3  H2           -0.8913571786      -12.6368951354        0.1433771792  CLST         387          1.0000000000
      1162       388  TIP3  OH2           3.3523987215        7.0510765986        7.2803374424  CLST         388          1.0000000000
      1163       388  TIP3  H1            2.8861951315        7.1644278110        6.4290651996  CLST         388          1.0000000000
      1164       388  TIP3  H2            4.1261222276        6.8474766186        6.6836078623  CLST         388          1.0000000000
      1165       389  TIP3  OH2          -3.6698167129      -10.9625801880       -0.1798926048  CLST         389          1.0000000000
      1166       389  TIP3  H1           -4.5530027425      -10.5646308995       -0.4323366320  CLST         389          1.0000000000
      1167       389  TIP3  H2           -3.5177532863      -10.6793765069       -1.1343456387  CLST         389          1.0000000000
      1168       390  TIP3  OH2          -0.8793294905        5.1879283500        4.5104605415  CLST         390          1.0000000000
      1169       390  TIP3  H1           -0.1745093264        4.6798828077        4.9706202014  CLST         390          1.0000000000
      1170       390  TIP3  H2           -0.6827545353        4.5586103266        3.8250946413  CLST         390          1.0000000000
      1171       391  TIP3  OH2          -5.9447966400       -5.0830612572        1.6486269896  CLST         391          1.0000000000
      1172       391  TIP3  H1           -6.0305053225       -4.2301727480        1.2465326938  CLST         391          1.0000000000
      1173       391  TIP3  H2           -6.8891901882       -5.2056183159        1.8279828661  CLST         391          1.0000000000
      1174       392  TIP3  OH2           5.0271598501        9.3661827794       -5.4027187756  CLST         392          1.0000000000
      1175       392  TIP3  H1            5.8807318072        9.0507382599       -5.0415923367  CLST         392          1.0000000000
      1176       392  TIP3  H2            4.6934652886        9.1453537219       -4.5017964745  CLST         392          1.0000000000
      1177       393  TIP3  OH2          13.1913435970       11.1048415493       -7.7903440633  CLST         393          1.0000000000
      1178       393  TIP3  H1           12.9618955747       10.1536339826       -8.1377676768  CLST         393          1.0000000000
      1179       393  TIP3  H2           12.4535534727       10.9417038128       -7.1062316579  CLST         393          1.0000000000
      1180       394  TIP3  OH2           1.4919034636        6.7784085500        5.5280993027  CLST         394          1.0000000000
      1181       394  TIP3  H1            1.0198181503        7.0954648213        4.7288238751  CLST         394          1.0000000000
      1182       394  TIP3  H2            1.5669823353        6.0338309159        4.9893630078  CLST         394          1.0000000000
      1183       395  TIP3  OH2          -6.1008206514        7.3363350791       -0.1560717317  CLST         395          1.0000000000
      1184       395  TIP3  H1           -5.5482236048        7.0129081252        0.4516073905  CLST         395          1.0000000000
      1185       395  TIP3  H2           -5.2128211463        8.0178539794       -0.0947928492  CLST         395          1.0000000000
      1186       396  TIP3  OH2          -3.5206997084        9.2637337978       -2.3679550769  CLST         396          1.0000000000
      1187       396  TIP3  H1           -3.5079801987        8.6334980395       -3.1150373873  CLST         396          1.0000000000
      1188       396  TIP3  H2           -4.4127311642        9.4965310077       -2.7012754084  CLST         396          1.0000000000
      1189       397  TIP3  OH2           2.6922552669      -12.8557993765      -13.4883502186  CLST         397          1.0000000000
      1190       397  TIP3  H1            2.4282855182      -11.9305236599      -13.3934145312  CLST         397          1.0000000000
      1191       397  TIP3  H2            3.3165301499      -12.5864986597      -12.7532543507  CLST         397          1.0000000000
      1192       398  TIP3  OH2           8.7000608903       -4.5164503227        0.7022169073  CLST         398          1.0000000000
      1193       398  TIP3  H1            8.4752983065       -5.5709733822        0.4971910430  CLST         398          1.0000000000
      1194       398  TIP3  H2            8.1803816902       -4.7664368052        0.1320447977  CLST         398          1.0000000000
      1195       399  TIP3  OH2         -14.2846181940       -2.8997984536       13.0539028175  CLST         399          1.0000000000
      1196       399  TIP3  H1          -14.5701960107       -3.7736961569       13.2618895257  CLST         399          1.0000000000
      1197       399  TIP3  H2          -14.0582657104       -2.7776404619       13.9839533807  CLST         399          1.0000000000
      1198       400  TIP3  OH2         -13.3248927869        8.5734104252        4.3132349687  CLST         400          1.0000000000
      1199       400  TIP3  H1          -13.5971833167        9.2298216620        4.9846408505  CLST         400          1.0000000000
      1200       400  TIP3  H2          -13.1865018315        8.0804011436        5.1572984828  CLST         400          1.0000000000
      1201       401  TIP3  OH2           1.3875341559        5.2891426257      -13.5541197539  CLST         401          1.0000000000
      1202       401  TIP3  H1            1.5056315701        5.1369864832      -14.4954068168  CLST         401          1.0000000000
      1203       401  TIP3  H2            0.9649350440        6.1743116893      -13.7114549203  CLST         401          1.0000000000
      1204       402  TIP3  OH2          14.4665373158       -5.0581635325       14.2711016185  CLST         402          1.0000000000
      1205       402  TIP3  H1           14.0455918291       -5.9577306666       14.1695869890  CLST         402          1.0000000000
      1206       402  TIP3  H2           14.9945194475       -5.4949674590       14.9851048653  CLST         402          1.0000000000
      1207       403  TIP3  OH2         -13.5662569609       12.2870903662       -2.6398653735  CLST         403          1.0000000000
      1208       403  TIP3  H1          -14.3861049568       12.2779385043       -2.8066159284  CLST         403          1.0000000000
      1209       403  TIP3  H2          -13.2369419673       12.2226376483       -3.5482232040  CLST         403          1.0000000000
      1210       404  TIP3  OH2           5.4708106407       -2.9275874409        0.4993253575  CLST         404          1.0000000000
      1211       404  TIP3  H1            4.6298551931       -2.4206482036        0.7872828592  CLST         404          1.0000000000
      1212       404  TIP3  H2            5.5675867763       -2.8701569517        1.4480195518  CLST         404          1.0000000000
      1213       405  TIP3  OH2           2.3116281636        8.4769594001       -3.3299746450  CLST         405          1.0000000000
      1214       405  TIP3  H1            1.8290762478        9.2787269523       -3.2728941174  CLST         405          1.0000000000
      1215       405  TIP3  H2            1.4340702823        8.1125990321       -3.0622485013  CLST         405          1.0000000000
      1216       406  TIP3  OH2          -9.2012101931       -2.5518055207       -7.2665144164  CLST         406          1.0000000000
      1217       406  TIP3  H1           -8.6473028020       -1.8300717574       -6.7669428344  CLST         406          1.0000000000
      1218       406  TIP3  H2           -9.9167468364       -1.9515612512       -6.9385468651  CLST         406          1.0000000000
      1219       407  TIP3  OH2           5.3822700178        5.5454404644        5.0121207268  CLST         407          1.0000000000
      1220       407  TIP3  H1            6.1328117044        5.2094246525        5.6162919386  CLST         407          1.0000000000
      1221       407  TIP3  H2            6.1592031300        5.8874063235        4.5137029645  CLST         407          1.0000000000
      1222       408  TIP3  OH2         -14.1537809873       -4.6455389464       -5.5466997205  CLST         408          1.0000000000
      1223       408  TIP3  H1          -14.1857052760       -3.6138780454       -5.5594790128  CLST         408          1.0000000000
      1224       408  TIP3  H2          -14.2619583549       -4.6396600399       -6.5334350405  CLST         408          1.0000000000
      1225       409  TIP3  OH2          -2.3098971778      -12.6433560892        1.3725135382  CLST         409          1.0000000000
      1226       409  TIP3  H1           -2.7087416482      -13.0400427057        2.1604055170  CLST         409          1.0000000000
      1227       409  TIP3  H2           -1.8594095589      -12.0540910218        2.1230676932  CLST         409          1.0000000000
      1228       410  TIP3  OH2          12.1860854444       -2.5373536302       10.7330197387  CLST         410          1.0000000000
      1229       410  TIP3  H1           11.6464424436       -2.1316537763       10.0562351836  CLST         410          1.0000000000
      1230       410  TIP3  H2           12.6719402041       -2.7210928028        9.8397641451  CLST         410          1.0000000000
      1231       411  TIP3  OH2           8.2539984226      -13.4417241456       -2.7381115313  CLST         411          1.0000000000
      1232       411  TIP3  H1            7.9167284284      -13.7371501540       -1.8986510542  CLST         411          1.0000000000
      1233       411  TIP3  H2            7.4511459372      -13.4995365919       -3.1920194090  CLST         411          1.0000000000
      1234       412  TIP3  OH2          13.5778804102       -4.2968788242       -7.3748349488  CLST         412          1.0000000000
      1235       412  TIP3  H1           12.4385393125       -4.0589423774       -7.6679217479  CLST         412          1.0000000000
      1236       412  TIP3  H2           13.0712065139       -3.7628287012       -6.7698299926  CLST         412          1.0000000000
      1237       413  TIP3  OH2           7.5446238567        8.3797428200       -5.1291980027  CLST         413          1.0000000000
      1238       413  TIP3  H1            7.7745054502        8.3519839700       -4.1282849053  CLST         413          1.0000000000
      1239       413  TIP3  H2            8.5558813644        8.3208509084       -5.2381960759  CLST         413          1.0000000000
      1240       414  TIP3  OH2          -9.1296487893       -5.1680989342      -11.8131586491  CLST         414          1.0000000000
      1241       414  TIP3  H1           -8.4109645439       -4.3148935578      -11.7652698881  CLST         414          1.0000000000
      1242       414  TIP3  H2           -9.4953751836       -4.3673391138      -11.5102197038  CLST         414          1.0000000000
      1243       415  TIP3  OH2         -14.4497069777        0.9052062897        5.3614672259  CLST         415          1.0000000000
      1244       415  TIP3  H1          -14.3508301367        1.8032620477        5.6715141576  CLST         415          1.0000000000
      1245       415  TIP3  H2          -14.0525134955        0.6138048482        6.1695864212  CLST         415          1.0000000000
      1246       416  TIP3  OH2          11.4929016119       12.2532774980       -2.2614353447  CLST         416          1.0000000000
      1247       416  TIP3  H1           11.9682679285       12.4116002702       -3.0327958644  CLST         416          1.0000000000
      1248       416  TIP3  H2           10.8867350712       12.8824838395       -2.7470981800  CLST         416          1.0000000000
      1249       417  TIP3  OH2          10.6149709023      -12.3037788628       -5.2375309114  CLST         417          1.0000000000
      1250       417  TIP3  H1           10.2718596523      -13.0102041555       -4.6461537223  CLST         417          1.0000000000
      1251       417  TIP3  H2            9.7421210862      -12.4760806705       -5.6438329940  CLST         417          1.0000000000
      1252       418  TIP3  OH2          -1.5597520914        5.2800336890        0.8732836115  CLST         418          1.0000000000
      1253       418  TIP3  H1           -2.1969480302        5.5087968556        0.0155601181  CLST         418          1.0000000000
      1254       418  TIP3  H2           -2.4939544372        4.7424877510        0.4940383892  CLST         418          1.0000000000
      1255       419  TIP3  OH2          -7.7897547810        9.4504647810        7.9408196721  CLST         419          1.0000000000
      1256       419  TIP3  H1           -8.3442623996       10.2275444697        7.2618324611  CLST         419          1.0000000000
      1257       419  TIP3  H2           -8.3225180249       10.1283007347        8.4968959582  CLST         419          1.0000000000
      1258       420  TIP3  OH2           3.2692897334        9.3022627213      -13.8058974874  CLST         420          1.0000000000
      1259       420  TIP3  H1            3.6478473681        9.0267255135      -12.9514200291  CLST         420          1.0000000000
      1260       420  TIP3  H2            3.6681487757        8.4381887305      -14.0504265140  CLST         420          1.0000000000
      1261       421  TIP3  OH2          -3.6921377244        6.9313176250       -3.6612937082  CLST         421          1.0000000000
      1262       421  TIP3  H1           -4.4168903762        6.4216102187       -4.0245219171  CLST         421          1.0000000000
      1263       421  TIP3  H2           -3.3280895712        6.1089412696       -3.3218654580  CLST         421          1.0000000000
      1264       422  TIP3  OH2           3.3481773747      -10.5928910984       -2.4049625608  CLST         422          1.0000000000
      1265       422  TIP3  H1            3.0558530701      -11.3124964030       -1.9066187585  CLST         422          1.0000000000
      1266       422  TIP3  H2            3.1832412100      -10.0086746322       -1.6442366286  CLST         422          1.0000000000
      1267       423  TIP3  OH2          -5.4806274937        5.2687802333        1.7930533942  CLST         423          1.0000000000
      1268       423  TIP3  H1           -4.5574932070        4.6476797269        1.6696384608  CLST         423          1.0000000000
      1269       423  TIP3  H2           -4.6772054826        5.1602394552        2.5140767732  CLST         423          1.0000000000
      1270       424  TIP3  OH2          -9.2866008412        8.6777402012        4.9153325003  CLST         424          1.0000000000
      1271       424  TIP3  H1           -8.6611036039        9.3650824489        4.8117893625  CLST         424          1.0000000000
      1272       424  TIP3  H2           -9.2670214154        8.3937500482        4.0042708317  CLST         424          1.0000000000
      1273       425  TIP3  OH2          -9.6511800095        2.2778449463       -9.2461057467  CLST         425          1.0000000000
      1274       425  TIP3  H1          -10.1539032740        1.5148141566       -9.1291370472  CLST         425          1.0000000000
      1275       425  TIP3  H2          -10.3939103951        2.8136313646       -9.1876394051  CLST         425          1.0000000000
      1276       426  TIP3  OH2          -0.8111276843       -9.2351274220       -4.3025337774  CLST         426          1.0000000000
      1277       426  TIP3  H1            0.1201145022       -9.3318537043       -4.3991830958  CLST         426          1.0000000000
      1278       426  TIP3  H2           -0.7329498847       -9.2934481586       -5.2562629856  CLST         426          1.0000000000
      1279       427  TIP3  OH2         -10.0829966517        2.3100669715        5.2254827913  CLST         427          1.0000000000
      1280       427  TIP3  H1           -9.9849554904        3.3002119514        5.1076038165  CLST         427          1.0000000000
      1281       427  TIP3  H2          -10.8489149827        2.4441169152        5.7355069930  CLST         427          1.0000000000
      1282       428  TIP3  OH2          -6.3110814990       13.5331602471        6.7171100989  CLST         428          1.0000000000
      1283       428  TIP3  H1           -5.7677501025       14.2383424940        6.4540645423  CLST         428          1.0000000000
      1284       428  TIP3  H2           -6.3044229558       12.8805476750        6.0100886310  CLST         428          1.0000000000
      1285       429  TIP3  OH2           0.2047708486      -11.5997646837      -10.6851112896  CLST         429          1.0000000000
      1286       429  TIP3  H1           -0.7303311249      -12.1383553904      -11.0536445071  CLST         429          1.0000000000
      1287       429  TIP3  H2           -0.4439634211      -11.7115020326      -10.2057661334  CLST         429          1.0000000000
      1288       430  TIP3  OH2           0.3857705692        9.6682322463       10.0088314568  CLST         430          1.0000000000
      1289       430  TIP3  H1            0.0683172691       10.5593175839       10.7410096453  CLST         430          1.0000000000
      1290       430  TIP3  H2            0.8144495727        9.6912661634       10.8829395716  CLST         430          1.0000000000
      1291       431  TIP3  OH2          -6.1439824286       -3.6790387079       -3.9177094585  CLST         431          1.0000000000
      1292       431  TIP3  H1           -5.7278857994       -3.3634728672       -4.7264917651  CLST         431          1.0000000000
      1293       431  TIP3  H2           -6.6479068774       -4.2594679429       -4.4777726302  CLST         431          1.0000000000
      1294       432  TIP3  OH2          -5.2419799972        3.5283332640       -3.7012528967  CLST         432          1.0000000000
      1295       432  TIP3  H1           -6.0929244469        3.1714484946       -3.4793754117  CLST         432          1.0000000000
      1296       432  TIP3  H2           -5.8427906030        4.3598765394       -3.4594985887  CLST         432          1.0000000000
      1297       433  TIP3  OH2          -9.3908362232        3.4385272494       10.4468260318  CLST         433          1.0000000000
      1298       433  TIP3  H1           -8.5218176095        3.8288136342       10.5828269421  CLST         433          1.0000000000
      1299       433  TIP3  H2           -9.4389950045        3.5362593936       11.3904338508  CLST         433          1.0000000000
      1300       434  TIP3  OH2           0.9244940981       -4.1011075555        9.6705575332  CLST         434          1.0000000000
      1301       434  TIP3  H1            0.0800673699       -3.8649179987       10.1217084877  CLST         434          1.0000000000
      1302       434  TIP3  H2            1.3679039405       -3.2251337077        9.8017118949  CLST         434          1.0000000000
      1303       435  TIP3  OH2           7.2460168775       -8.0793072061        6.3696600193  CLST         435          1.0000000000
      1304       435  TIP3  H1            7.8139719836       -8.2578578645        5.3456234495  CLST         435          1.0000000000
      1305       435  TIP3  H2            6.8342950584       -7.5239084933        5.6080156878  CLST         435          1.0000000000
      1306       436  TIP3  OH2          -6.8987633546       14.0915012638       -1.7923533106  CLST         436          1.0000000000
      1307       436  TIP3  H1           -6.7529021572       14.9265210500       -1.8224407331  CLST         436          1.0000000000
      1308       436  TIP3  H2           -7.3894849984       14.3390281872       -1.0958438525  CLST         436          1.0000000000
      1309       437  TIP3  OH2          -1.0073257386      -13.5200713929        5.2809886637  CLST         437          1.0000000000
      1310       437  TIP3  H1           -1.7590302034      -12.8180658645        5.4226397338  CLST         437          1.0000000000
      1311       437  TIP3  H2           -0.5103359808      -12.6089419732        5.2552564181  CLST         437          1.0000000000
      1312       438  TIP3  OH2         -12.1105369810       -1.0728317628       -3.1155634706  CLST         438          1.0000000000
      1313       438  TIP3  H1          -11.6996404740       -1.7769168859       -2.5872613124  CLST         438          1.0000000000
      1314       438  TIP3  H2          -12.2182027272       -0.4874972525       -2.3460831064  CLST         438          1.0000000000
      1315       439  TIP3  OH2          -3.9564360390       -3.7303615703        3.4418578685  CLST         439          1.0000000000
      1316       439  TIP3  H1           -4.7216862957       -3.7346010278        3.9742823797  CLST         439          1.0000000000
      1317       439  TIP3  H2           -4.9832608301       -4.0278599504        2.9735664171  CLST         439          1.0000000000
      1318       440  TIP3  OH2         -10.0373614177      -11.3734057642       12.1009298274  CLST         440          1.0000000000
      1319       440  TIP3  H1          -10.2790546707      -10.6814805495       11.5375136489  CLST         440          1.0000000000
      1320       440  TIP3  H2           -9.5276933615      -11.6106078790       11.2932057006  CLST         440          1.0000000000
      1321       441  TIP3  OH2         -14.3603550350        3.4283598814        7.1797853049  CLST         441          1.0000000000
      1322       441  TIP3  H1          -14.4174480081        4.3607461617        7.1072191242  CLST         441          1.0000000000
      1323       441  TIP3  H2          -14.8586741488        3.4441716267        6.3338675700  CLST         441          1.0000000000
      1324       442  TIP3  OH2           9.4249383404        0.4301188453      -12.4139404841  CLST         442          1.0000000000
      1325       442  TIP3  H1            9.8326756310       -0.4255748781      -12.2789992452  CLST         442          1.0000000000
      1326       442  TIP3  H2           10.0938892882        0.6295953042      -13.0430444506  CLST         442          1.0000000000
      1327       443  TIP3  OH2           8.1345982688       -8.3387357990        3.6549417368  CLST         443          1.0000000000
      1328       443  TIP3  H1            8.9435582277       -8.0127741331        3.2006440652  CLST         443          1.0000000000
      1329       443  TIP3  H2            7.8075137245       -7.9520613688        2.7986742923  CLST         443          1.0000000000
      1330       444  TIP3  OH2          12.9025423254        8.2780985201       -0.2900370891  CLST         444          1.0000000000
      1331       444  TIP3  H1           13.1600941734        9.1555205931       -0.1801569193  CLST         444          1.0000000000
      1332       444  TIP3  H2           13.5345803512        7.9858272879        0.3212742093  CLST         444          1.0000000000
      1333       445  TIP3  OH2          -8.9980029211       -9.8165086930       14.1400125613  CLST         445          1.0000000000
      1334       445  TIP3  H1           -8.2994446148       -9.5739304850       13.5082125828  CLST         445          1.0000000000
      1335       445  TIP3  H2           -9.0066115337       -8.9857684122       14.4759875629  CLST         445          1.0000000000
      1336       446  TIP3  OH2          12.5263986209       10.7505971910       -0.2611186980  CLST         446          1.0000000000
      1337       446  TIP3  H1           12.1193315411       11.3470483813        0.4333544390  CLST         446          1.0000000000
      1338       446  TIP3  H2           12.0992699599       11.3322033046       -0.8603781750  CLST         446          1.0000000000
      1339       447  TIP3  OH2          -3.5823884579       13.5812328495        5.0844732941  CLST         447          1.0000000000
      1340       447  TIP3  H1           -4.1490864313       14.3311609969        5.2774406498  CLST         447          1.0000000000
      1341       447  TIP3  H2           -4.3394262722       12.9902155649        4.9503367570  CLST         447          1.0000000000
      1342       448  TIP3  OH2         -10.8458660052        9.1101576678      -12.6854038400  CLST         448          1.0000000000
      1343       448  TIP3  H1          -10.1044542198        9.3657288376      -12.1744227380  CLST         448          1.0000000000
      1344       448  TIP3  H2          -10.2526799188        8.3771819512      -12.8778088425  CLST         448          1.0000000000
      1345       449  TIP3  OH2           5.3067127822       -7.8633843704       -5.5985560527  CLST         449          1.0000000000
      1346       449  TIP3  H1            5.1227003976       -8.6726346427       -5.0801846030  CLST         449          1.0000000000
      1347       449  TIP3  H2            4.5697057999       -7.5259558122       -4.9811079286  CLST         449          1.0000000000
      1348       450  TIP3  OH2           4.7387511359       10.2640583893       11.5822252438  CLST         450          1.0000000000
      1349       450  TIP3  H1            5.6338136807        9.8619024391       11.6546950310  CLST         450          1.0000000000
      1350       450  TIP3  H2            4.6942313753        9.8084301227       10.6729598399  CLST         450          1.0000000000
      1351       451  TIP3  OH2         -12.6458482025       11.1887994142      -12.7703325534  CLST         451          1.0000000000
      1352       451  TIP3  H1          -12.2877711168       11.4522462114      -13.6373571671  CLST         451          1.0000000000
      1353       451  TIP3  H2          -11.7942982196       10.6417339604      -12.8061843367  CLST         451          1.0000000000
      1354       452  TIP3  OH2         -10.0485298892       14.5614100663        1.4523809782  CLST         452          1.0000000000
      1355       452  TIP3  H1          -10.9190460234       14.1343714049        1.7034316096  CLST         452          1.0000000000
      1356       452  TIP3  H2          -10.5684340943       14.8782714389        0.7241545688  CLST         452          1.0000000000
      1357       453  TIP3  OH2          -3.3271657287       -8.4264164394      -13.3703334570  CLST         453          1.0000000000
      1358       453  TIP3  H1           -4.2982234788       -8.5823238141      -13.3091932282  CLST         453          1.0000000000
      1359       453  TIP3  H2           -3.3930599710       -9.0918984996      -14.0993488482  CLST         453          1.0000000000
      1360       454  TIP3  OH2          13.5022207039      -13.1722175293       11.1826435441  CLST         454          1.0000000000
      1361       454  TIP3  H1           13.8555754523      -13.5872702042       11.9930140474  CLST         454          1.0000000000
      1362       454  TIP3  H2           14.0994042856      -12.4574769739       11.5749265757  CLST         454          1.0000000000
      1363       455  TIP3  OH2         -13.1948378708       -9.9082437814       -4.1674733841  CLST         455          1.0000000000
      1364       455  TIP3  H1          -13.0803758196       -8.9525275746       -3.9872448258  CLST         455          1.0000000000
      1365       455  TIP3  H2          -12.2501605750       -9.8161695974       -4.1173410119  CLST         455          1.0000000000
      1366       456  TIP3  OH2          -7.6962865580        7.0693313115        6.5421339985  CLST         456          1.0000000000
      1367       456  TIP3  H1           -7.6109033133        7.8714271480        7.1156999003  CLST         456          1.0000000000
      1368       456  TIP3  H2           -8.2063855257        7.6441060225        5.9624125467  CLST         456          1.0000000000
      1369       457  TIP3  OH2          -3.9999676062      -12.9352445743        8.1769432903  CLST         457          1.0000000000
      1370       457  TIP3  H1           -3.8825659965      -12.7767608553        9.1151641984  CLST         457          1.0000000000
      1371       457  TIP3  H2           -3.0272979003      -13.1438832198        8.2951195570  CLST         457          1.0000000000
      1372       458  TIP3  OH2          -2.1351218457       12.0333738161      -11.4229163697  CLST         458          1.0000000000
      1373       458  TIP3  H1           -3.0617912126       12.3871008525      -11.4250975317  CLST         458          1.0000000000
      1374       458  TIP3  H2           -2.4184691870       11.4012917892      -12.0338014726  CLST         458          1.0000000000
      1375       459  TIP3  OH2         -13.5763547497        7.1835871653       -4.0120424599  CLST         459          1.0000000000
      1376       459  TIP3  H1          -13.6851801246        7.7405130531       -3.2536177877  CLST         459          1.0000000000
      1377       459  TIP3  H2          -13.0301318703        7.7235541504       -4.5339985084  CLST         459          1.0000000000
      1378       460  TIP3  OH2           7.1921637467        9.5975839335      -13.8350045558  CLST         460          1.0000000000
      1379       460  TIP3  H1            6.7197191831        9.6617940257      -13.0171551625  CLST         460          1.0000000000
      1380       460  TIP3  H2            6.7160409810       10.3020966647      -14.2859039290  CLST         460          1.0000000000
      1381       461  TIP3  OH2           0.4038447634        7.7229162435      -12.9913596429  CLST         461          1.0000000000
      1382       461  TIP3  H1           -0.2861488968        7.2752528666      -12.4748904881  CLST         461          1.0000000000
      1383       461  TIP3  H2            0.6441922601        8.1414594137      -12.1206131813  CLST         461          1.0000000000
      1384       462  TIP3  OH2           4.2047871069        7.8105340601      -10.1064673244  CLST         462          1.0000000000
      1385       462  TIP3  H1            3.3975345835        7.2502626646      -10.2400678780  CLST         462          1.0000000000
      1386       462  TIP3  H2            4.1910622884        7.3740141060       -9.2083553234  CLST         462          1.0000000000
      1387       463  TIP3  OH2          -1.1601783966      -11.5608223765       -8.0301131656  CLST         463          1.0000000000
      1388       463  TIP3  H1           -2.0008688070      -11.9024669138       -8.2981562805  CLST         463          1.0000000000
      1389       463  TIP3  H2           -1.3993437896      -11.7368649916       -7.1029530372  CLST         463          1.0000000000
      1390       464  TIP3  OH2          -2.2026785227        2.4697255810       14.2756939379  CLST         464          1.0000000000
      1391       464  TIP3  H1           -2.8165889610        2.8551715920       13.8525363592  CLST         464          1.0000000000
      1392       464  TIP3  H2           -1.9127291955        3.2353900770       14.0927109127  CLST         464          1.0000000000
      1393       465  TIP3  OH2         -14.3446633467        5.9241445366        8.2443108927  CLST         465          1.0000000000
      1394       465  TIP3  H1          -14.2997954222        5.4409189164        9.0592618494  CLST         465          1.0000000000
      1395       465  TIP3  H2          -14.7921065893        6.6390947000        8.7093890918  CLST         465          1.0000000000
      1396       466  TIP3  OH2          -4.1096008626      -13.4742947614        3.2787646523  CLST         466          1.0000000000
      1397       466  TIP3  H1           -4.5614299075      -14.1655841769        3.6439577176  CLST         466          1.0000000000
      1398       466  TIP3  H2           -4.9259764991      -13.2555367205        2.8884637054  CLST         466          1.0000000000
      1399       467  TIP3  OH2           4.4130963186       14.8624527991        8.0643973448  CLST         467          1.0000000000
      1400       467  TIP3  H1            5.2021921221       14.4050623838        8.4233311398  CLST         467          1.0000000000
      1401       467  TIP3  H2            4.0511380038       14.8111316561        8.9781777850  CLST         467          1.0000000000
      1402       468  TIP3  OH2          -8.4606477338       -1.1961940233        2.0666038387  CLST         468          1.0000000000
      1403       468  TIP3  H1           -8.5311047489       -1.5567711674        2.9435796310  CLST         468          1.0000000000
      1404       468  TIP3  H2           -9.2522203882       -1.6028813342        1.7443974912  CLST         468          1.0000000000
      1405       469  TIP3  OH2           6.8779851830        0.7123385079       14.7134868413  CLST         469          1.0000000000
      1406       469  TIP3  H1            6.0076322213        0.6082376796       14.3790380897  CLST         469          1.0000000000
      1407       469  TIP3  H2            6.7467101426        1.4860157796       14.1135121734  CLST         469          1.0000000000
      1408       470  TIP3  OH2           1.3098720798       11.4712171790       -8.5813813670  CLST         470          1.0000000000
      1409       470  TIP3  H1            1.6792659795       12.3535001255       -8.4387324487  CLST         470          1.0000000000
      1410       470  TIP3  H2            1.8351099842       11.1391083992       -7.9479598546  CLST         470          1.0000000000
      1411       471  TIP3  OH2           5.5400689576        5.5517602004       -2.2331412589  CLST         471          1.0000000000
      1412       471  TIP3  H1            4.4316935019        5.7942563274       -2.6711747964  CLST         471          1.0000000000
      1413       471  TIP3  H2            4.7079921142        5.8687844654       -1.7024758018  CLST         471          1.0000000000
      1414       472  TIP3  OH2           5.2132455246      -12.0607878200       -7.1591706856  CLST         472          1.0000000000
      1415       472  TIP3  H1            4.8791240562      -12.9182702943       -7.5231056688  CLST         472          1.0000000000
      1416       472  TIP3  H2            5.6063405954      -12.6165279437       -6.4338581931  CLST         472          1.0000000000
      1417       473  TIP3  OH2          -3.8696129892        3.1700593793        1.3339849676  CLST         473          1.0000000000
      1418       473  TIP3  H1           -2.9160326050        2.9269624132        1.4061361262  CLST         473          1.0000000000
      1419       473  TIP3  H2           -3.7388897645        2.6569166772        0.4768452459  CLST         473          1.0000000000
      1420       474  TIP3  OH2           8.3103949015        4.5560195220        7.7154993013  CLST         474          1.0000000000
      1421       474  TIP3  H1            7.9801406746        4.2047849990        7.0201244616  CLST         474          1.0000000000
      1422       474  TIP3  H2            9.0851195388        4.0694281945        7.0350913443  CLST         474          1.0000000000
      1423       475  TIP3  OH2           6.2747603370       -3.9658256491       -7.8116765178  CLST         475          1.0000000000
      1424       475  TIP3  H1            5.9046898753       -3.3816494403       -8.4735824142  CLST         475          1.0000000000
      1425       475  TIP3  H2            7.0430685106       -3.9114576406       -8.3832419085  CLST         475          1.0000000000
      1426       476  TIP3  OH2           3.3398793227       10.0613455481       -8.0383415004  CLST         476          1.0000000000
      1427       476  TIP3  H1            3.5131781195        9.0996867230       -7.8800498456  CLST         476          1.0000000000
      1428       476  TIP3  H2            3.2899779034       10.0971919720       -7.0283847592  CLST         476          1.0000000000
      1429       477  TIP3  OH2          -7.4181451576       -3.4642327910       -9.8405502643  CLST         477          1.0000000000
      1430       477  TIP3  H1           -6.4731862410       -3.3274573529      -10.0092449359  CLST         477          1.0000000000
      1431       477  TIP3  H2           -7.2745462050       -4.1186321867       -9.1476716293  CLST         477          1.0000000000
      1432       478  TIP3  OH2           0.5911310151       -4.8940644618      -12.5573069511  CLST         478          1.0000000000
      1433       478  TIP3  H1            0.6985389181       -5.8581930980      -12.6852599846  CLST         478          1.0000000000
      1434       478  TIP3  H2            1.2458771934       -5.1224619972      -11.8383211968  CLST         478          1.0000000000
      1435       479  TIP3  OH2           0.2580823829       -1.3401080068       -7.3315186777  CLST         479          1.0000000000
      1436       479  TIP3  H1            0.6415372719       -1.1842367109       -6.3846419250  CLST         479          1.0000000000
      1437       479  TIP3  H2            1.2133838393       -1.4759869761       -7.5259557165  CLST         479          1.0000000000
      1438       480  TIP3  OH2           5.7044409887       -1.0951583910        9.2528332278  CLST         480          1.0000000000
      1439       480  TIP3  H1            6.5760108094       -1.4924908050        9.2369001966  CLST         480          1.0000000000
      1440       480  TIP3  H2            6.2353565948       -0.2872521930        9.1079853216  CLST         480          1.0000000000
      1441       481  TIP3  OH2          -6.9345231778        2.0863675132       -5.9215068120  CLST         481          1.0000000000
      1442       481  TIP3  H1           -7.3544191634        2.9037410086       -5.5393688711  CLST         481          1.0000000000
      1443       481  TIP3  H2           -6.7518030999        2.7237318022       -6.5640452957  CLST         481          1.0000000000
      1444       482  TIP3  OH2           3.7142676037       -7.8032399471        4.1589297301  CLST         482          1.0000000000
      1445       482  TIP3  H1            4.4591563788       -7.4981418708        4.7379032168  CLST         482          1.0000000000
      1446       482  TIP3  H2            3.4937591948       -6.8699627654        4.2410129481  CLST         482          1.0000000000
      1447       483  TIP3  OH2         -14.9945194475        0.2294344800       -8.1828514730  CLST         483          1.0000000000
      1448       483  TIP3  H1          -14.6846633530       -0.6339370478       -8.4046225510  CLST         483          1.0000000000
      1449       483  TIP3  H2          -14.1895095105        0.4483690237       -7.7181279118  CLST         483          1.0000000000
      1450       484  TIP3  OH2          14.9361910752       -2.2119069454       -8.9862853405  CLST         484          1.0000000000
      1451       484  TIP3  H1           14.4349644592       -2.9691937204       -8.6642283266  CLST         484          1.0000000000
      1452       484  TIP3  H2           14.2446470858       -1.8139219986       -9.5766249338  CLST         484          1.0000000000
      1453       485  TIP3  OH2          -3.5056673474        5.4926250137        3.9140879577  CLST         485          1.0000000000
      1454       485  TIP3  H1           -2.7518609111        5.5974539092        4.5119757084  CLST         485          1.0000000000
      1455       485  TIP3  H2           -4.0388524765        5.6834296359        4.7207240864  CLST         485          1.0000000000
      1456       486  TIP3  OH2          11.6222479989       13.0236554793       -9.1928109051  CLST         486          1.0000000000
      1457       486  TIP3  H1           11.8865831260       12.5894367476       -8.3606040040  CLST         486          1.0000000000
      1458       486  TIP3  H2           12.4681396628       12.8881639988       -9.6774577422  CLST         486          1.0000000000
      1459       487  TIP3  OH2           2.5139106294       -5.6333268187        3.3454474298  CLST         487          1.0000000000
      1460       487  TIP3  H1            2.5371021636       -4.8819651139        4.0575483573  CLST         487          1.0000000000
      1461       487  TIP3  H2            2.8437412681       -4.8412731254        2.8591534987  CLST         487          1.0000000000
      1462       488  TIP3  OH2         -11.6433848447       -0.7179664440       11.0589371668  CLST         488          1.0000000000
      1463       488  TIP3  H1          -11.8130921499        0.2389142472       11.1360005849  CLST         488          1.0000000000
      1464       488  TIP3  H2          -10.9830500024       -0.3951373796       10.3868770417  CLST         488          1.0000000000
      1465       489  TIP3  OH2          -8.6382692722        7.9829820157       -4.6835937968  CLST         489          1.0000000000
      1466       489  TIP3  H1           -8.8059235965        8.4350458368       -3.8364170947  CLST         489          1.0000000000
      1467       489  TIP3  H2           -8.2804744868        7.3428827550       -4.0554756434  CLST         489          1.0000000000
      1468       490  TIP3  OH2         -11.0461283950       10.9768540672        5.1476192949  CLST         490          1.0000000000
      1469       490  TIP3  H1          -10.8318318698       10.0847348532        5.3149095159  CLST         490          1.0000000000
      1470       490  TIP3  H2          -10.3864497871       10.9929094178        4.4605394442  CLST         490          1.0000000000
      1471       491  TIP3  OH2          -1.0903732542      -10.0345261480       11.0157108735  CLST         491          1.0000000000
      1472       491  TIP3  H1           -0.3156094071      -10.1287686059       10.4869414390  CLST         491          1.0000000000
      1473       491  TIP3  H2           -0.5104801882       -9.3990736849       11.4783748189  CLST         491          1.0000000000
      1474       492  TIP3  OH2          -2.0904332848       10.2252797095        2.6155261308  CLST         492          1.0000000000
      1475       492  TIP3  H1           -1.5980865467       10.9957046762        2.8369639321  CLST         492          1.0000000000
      1476       492  TIP3  H2           -2.5652484884       10.7718564825        1.9579524692  CLST         492          1.0000000000
      1477       493  TIP3  OH2          -6.3716648480       10.5435210348       -3.1523482178  CLST         493          1.0000000000
      1478       493  TIP3  H1           -6.6457861116       11.2641532806       -3.6680382441  CLST         493          1.0000000000
      1479       493  TIP3  H2           -7.2602414974       10.2065966236       -3.2279458874  CLST         493          1.0000000000
      1480       494  TIP3  OH2         -13.9238290135       10.6577365299       11.9479010944  CLST         494          1.0000000000
      1481       494  TIP3  H1          -14.7850967276       10.9094831402       11.8269666435  CLST         494          1.0000000000
      1482       494  TIP3  H2          -13.3807070220       11.3465771449       11.4419265147  CLST         494          1.0000000000
      1483       495  TIP3  OH2           3.0776800662      -12.8074484911       13.8145563766  CLST         495          1.0000000000
      1484       495  TIP3  H1            2.7066597135      -12.8064647866       14.6621210448  CLST         495          1.0000000000
      1485       495  TIP3  H2            3.4394540934      -11.9334338546       13.7998637343  CLST         495          1.0000000000
      1486       496  TIP3  OH2         -14.9257436414        6.2916155799        0.4801029554  CLST         496          1.0000000000
      1487       496  TIP3  H1          -14.2843158358        6.3510198366        1.2176353035  CLST         496          1.0000000000
      1488       496  TIP3  H2          -14.9945194475        5.3913658330        0.4530799023  CLST         496          1.0000000000
      1489       497  TIP3  OH2         -13.2611398410       -8.8987909529        3.0120879637  CLST         497          1.0000000000
      1490       497  TIP3  H1          -13.6882846623       -8.8439305918        3.8785476392  CLST         497          1.0000000000
      1491       497  TIP3  H2          -13.5297689849       -9.8365869294        2.9809791092  CLST         497          1.0000000000
      1492       498  TIP3  OH2           4.5136366422       14.1646116596      -10.4850186145  CLST         498          1.0000000000
      1493       498  TIP3  H1            4.6293328513       13.9140686396      -11.4496548630  CLST         498          1.0000000000
      1494       498  TIP3  H2            5.1695690353       13.4013778103      -10.4616286210  CLST         498          1.0000000000
      1495       499  TIP3  OH2           1.5528909653       11.1045562791       -3.0923587194  CLST         499          1.0000000000
      1496       499  TIP3  H1            0.8743666915       11.7688318404       -2.7815245916  CLST         499          1.0000000000
      1497       499  TIP3  H2            2.0954147676       11.8729024211       -2.7586226598  CLST         499          1.0000000000
      1498       500  TIP3  OH2          -6.1354646942       -2.5664989384        4.2164764302  CLST         500          1.0000000000
      1499       500  TIP3  H1           -7.0113032339       -2.2109695044        4.1151554836  CLST         500          1.0000000000
      1500       500  TIP3  H2           -6.1189653811       -1.9403119319        3.4378223170  CLST         500          1.0000000000
      1501       501  TIP3  OH2         -12.2663547945      -13.6107931353       -6.1964515252  CLST         501          1.0000000000
      1502       501  TIP3  H1          -12.9923779156      -12.9756618727       -6.3101068897  CLST         501          1.0000000000
      1503       501  TIP3  H2          -11.5142744495      -13.0068206466       -6.4156669146  CLST         501          1.0000000000
      1504       502  TIP3  OH2          -1.5136207255       -3.9509029816      -11.5090911360  CLST         502          1.0000000000
      1505       502  TIP3  H1           -0.7813393304       -3.3021408464      -11.5281422788  CLST         502          1.0000000000
      1506       502  TIP3  H2           -0.7695979138       -3.7768696453      -12.4458943208  CLST         502          1.0000000000
      1507       503  TIP3  OH2          -0.4515023196       -4.8232703085        1.1807174208  CLST         503          1.0000000000
      1508       503  TIP3  H1            0.0497323475       -5.5562536958        0.7505845011  CLST         503          1.0000000000
      1509       503  TIP3  H2           -1.1164941823       -5.5267991009        1.3457568880  CLST         503          1.0000000000
      1510       504  TIP3  OH2          -4.0590133054       -3.5214591977       12.4669947926  CLST         504          1.0000000000
      1511       504  TIP3  H1           -4.2756101004       -4.3468401760       12.9957624706  CLST         504          1.0000000000
      1512       504  TIP3  H2           -3.5319168505       -3.1850079481       13.2271353130  CLST         504          1.0000000000
      1513       505  TIP3  OH2           5.9632546701       12.1459582954       -9.3296675057  CLST         505          1.0000000000
      1514       505  TIP3  H1            5.9216630630       11.8486429167       -8.4384578329  CLST         505          1.0000000000
      1515       505  TIP3  H2            6.9212268838       12.4721751655       -9.1937794638  CLST         505          1.0000000000
      1516       506  TIP3  OH2          -4.1285519695        3.7572432033       10.6396906808  CLST         506          1.0000000000
      1517       506  TIP3  H1           -4.8036637561        3.6457508020        9.9341612245  CLST         506          1.0000000000
      1518       506  TIP3  H2           -4.1804423171        2.9162927250       11.0697261551  CLST         506          1.0000000000
      1519       507  TIP3  OH2          -2.0610729287        7.1257445137      -12.3487170514  CLST         507          1.0000000000
      1520       507  TIP3  H1           -2.3302437930        6.3852486603      -11.8941716760  CLST         507          1.0000000000
      1521       507  TIP3  H2           -3.0000140494        7.2138321694      -12.5417023473  CLST         507          1.0000000000
      1522       508  TIP3  OH2         -11.4680316708        5.2018096741      -11.2737859960  CLST         508          1.0000000000
      1523       508  TIP3  H1          -12.3783278883        4.6038348819      -10.8623100357  CLST         508          1.0000000000
      1524       508  TIP3  H2          -11.7001222282        4.1527734082      -11.5466987083  CLST         508          1.0000000000
      1525       509  TIP3  OH2           4.9555815154        0.2392784077      -10.8781613301  CLST         509          1.0000000000
      1526       509  TIP3  H1            5.3616322182        0.5338807294      -10.1032279967  CLST         509          1.0000000000
      1527       509  TIP3  H2            5.7062955035        0.1734096474      -11.5111488976  CLST         509          1.0000000000
      1528       510  TIP3  OH2          -4.4817014719        0.3045639451       -3.6166136380  CLST         510          1.0000000000
      1529       510  TIP3  H1           -4.4228151153       -0.1086301856       -4.5132785782  CLST         510          1.0000000000
      1530       510  TIP3  H2           -3.6189523640        0.4056621108       -4.4605356992  CLST         510          1.0000000000
      1531       511  TIP3  OH2         -10.5356220683        1.6334772834       -0.8625792787  CLST         511          1.0000000000
      1532       511  TIP3  H1          -11.1711714177        2.1886713611       -0.3682779972  CLST         511          1.0000000000
      1533       511  TIP3  H2          -10.9786339545        0.9114165136       -0.4113456142  CLST         511          1.0000000000
      1534       512  TIP3  OH2          -3.3453559952       -8.4067844958       -8.6840791240  CLST         512          1.0000000000
      1535       512  TIP3  H1           -2.6464643101       -8.8771345875       -9.1710095440  CLST         512          1.0000000000
      1536       512  TIP3  H2           -3.0781103170       -7.5735148873       -9.0860905074  CLST         512          1.0000000000
      1537       513  TIP3  OH2           9.5221192665       13.8621194476       11.6547097569  CLST         513          1.0000000000
      1538       513  TIP3  H1            9.2808251892       14.6985585990       11.2275379301  CLST         513          1.0000000000
      1539       513  TIP3  H2            9.2990838170       13.4502466449       10.7842209620  CLST         513          1.0000000000
      1540       514  TIP3  OH2          -4.8909727006        7.6843538277      -12.8954114848  CLST         514          1.0000000000
      1541       514  TIP3  H1           -5.5096141707        7.6596999674      -13.5827720664  CLST         514          1.0000000000
      1542       514  TIP3  H2           -5.6808615491        8.0448765991      -12.4178281900  CLST         514          1.0000000000
      1543       515  TIP3  OH2           6.0206654056        6.3175374403       -5.8262558826  CLST         515          1.0000000000
      1544       515  TIP3  H1            6.1646406267        5.8432091173       -4.9719406212  CLST         515          1.0000000000
      1545       515  TIP3  H2            6.6832016667        6.8866437721       -5.3954431078  CLST         515          1.0000000000
      1546       516  TIP3  OH2           9.5809645863        0.0424620415       -7.9309908696  CLST         516          1.0000000000
      1547       516  TIP3  H1           10.5104264032        0.0457105517       -7.7859298361  CLST         516          1.0000000000
      1548       516  TIP3  H2            9.4421444636        0.9250398645       -8.0573238898  CLST         516          1.0000000000
      1549       517  TIP3  OH2          14.0899245971       -7.2455913633       -9.0485659269  CLST         517          1.0000000000
      1550       517  TIP3  H1           14.5561680707       -6.6573648538       -8.4414326901  CLST         517          1.0000000000
      1551       517  TIP3  H2           14.3213777650       -7.9537009443       -8.4420086746  CLST         517          1.0000000000
      1552       518  TIP3  OH2          -0.8440656701       12.0915493697       -5.9544592962  CLST         518          1.0000000000
      1553       518  TIP3  H1           -0.1129091184       12.4716150113       -5.0867149310  CLST         518          1.0000000000
      1554       518  TIP3  H2           -0.9350221032       12.8926459916       -5.4238554668  CLST         518          1.0000000000
      1555       519  TIP3  OH2           1.0688371101        5.2061174460        1.1595631240  CLST         519          1.0000000000
      1556       519  TIP3  H1            0.2611782680        4.8537549534        0.6912152494  CLST         519          1.0000000000
      1557       519  TIP3  H2            0.3569713413        5.8636125232        1.3917405160  CLST         519          1.0000000000
      1558       520  TIP3  OH2           6.6436011469        6.8073355713      -10.5959175639  CLST         520          1.0000000000
      1559       520  TIP3  H1            5.7814111869        7.1231837487      -10.6006334790  CLST         520          1.0000000000
      1560       520  TIP3  H2            6.8325654756        7.6365124219      -10.0899284500  CLST         520          1.0000000000
      1561       521  TIP3  OH2          -5.6674545409       10.3638190318        9.4906230999  CLST         521          1.0000000000
      1562       521  TIP3  H1           -4.7200820255       10.4495074070        9.6816332010  CLST         521          1.0000000000
      1563       521  TIP3  H2           -5.2714311059       10.6722267235        8.6508973795  CLST         521          1.0000000000
      1564       522  TIP3  OH2           3.3997564336        4.0276694344        2.2368501816  CLST         522          1.0000000000
      1565       522  TIP3  H1            2.3172115186        4.2257445584        1.6567428982  CLST         522          1.0000000000
      1566       522  TIP3  H2            3.2257622080        3.7824626444        1.3331277327  CLST         522          1.0000000000
      1567       523  TIP3  OH2           8.2485581488        0.7348447299       -3.4257007123  CLST         523          1.0000000000
      1568       523  TIP3  H1            7.2875045355        0.6030151483       -3.5036857010  CLST         523          1.0000000000
      1569       523  TIP3  H2            8.4905931162       -0.0374782377       -3.9443271296  CLST         523          1.0000000000
      1570       524  TIP3  OH2          -5.6068838375        5.3870394154      -10.6831403142  CLST         524          1.0000000000
      1571       524  TIP3  H1           -5.2020618585        6.2882057960      -10.8326950762  CLST         524          1.0000000000
      1572       524  TIP3  H2           -4.6669986412        5.0629227339      -10.5844290469  CLST         524          1.0000000000
      1573       525  TIP3  OH2          -5.8124856167        5.7866343457       -7.9734280066  CLST         525          1.0000000000
      1574       525  TIP3  H1           -5.2566041495        6.5717937789       -8.2119161656  CLST         525          1.0000000000
      1575       525  TIP3  H2           -5.9521762973        5.7487960617       -8.9556343820  CLST         525          1.0000000000
      1576       526  TIP3  OH2           9.4227490524      -10.9642513533      -12.9363703098  CLST         526          1.0000000000
      1577       526  TIP3  H1            8.8397481231      -10.5305694262      -13.7510250560  CLST         526          1.0000000000
      1578       526  TIP3  H2            8.4361176578      -11.4506812506      -13.4212618705  CLST         526          1.0000000000
      1579       527  TIP3  OH2         -11.5072778282       -3.3270484636       -1.7192064768  CLST         527          1.0000000000
      1580       527  TIP3  H1          -12.1616181432       -3.9597562862       -1.9864570769  CLST         527          1.0000000000
      1581       527  TIP3  H2          -10.9225676722       -3.8371118311       -2.2597221339  CLST         527          1.0000000000
      1582       528  TIP3  OH2           4.3130878892      -12.1182650474      -11.4085862168  CLST         528          1.0000000000
      1583       528  TIP3  H1            4.2247955326      -11.1934645106      -11.3610470680  CLST         528          1.0000000000
      1584       528  TIP3  H2            5.1217505462      -11.9365283936      -10.9810456888  CLST         528          1.0000000000
      1585       529  TIP3  OH2          -6.0778297315       -7.0678939230       -4.7022713995  CLST         529          1.0000000000
      1586       529  TIP3  H1           -5.4631001154       -7.6841571605       -5.1278393341  CLST         529          1.0000000000
      1587       529  TIP3  H2           -6.0217799509       -6.6465968043       -5.5454640424  CLST         529          1.0000000000
      1588       530  TIP3  OH2           3.1909460828       -5.7003894864        6.6087167189  CLST         530          1.0000000000
      1589       530  TIP3  H1            2.7039651477       -6.2591593666        7.3502802729  CLST         530          1.0000000000
      1590       530  TIP3  H2            2.2552412301       -5.5946128055        6.2297260692  CLST         530          1.0000000000
      1591       531  TIP3  OH2          -3.2606970388       -3.2034832641      -14.8879288429  CLST         531          1.0000000000
      1592       531  TIP3  H1           -3.7751737285       -2.3287416498      -14.9298567842  CLST         531          1.0000000000
      1593       531  TIP3  H2           -3.6942951530       -3.3034222248      -14.0901936510  CLST         531          1.0000000000
      1594       532  TIP3  OH2          -1.3440240883       -3.4633935484       -2.0135549729  CLST         532          1.0000000000
      1595       532  TIP3  H1           -1.9461127203       -2.7177799293       -2.1639681450  CLST         532          1.0000000000
      1596       532  TIP3  H2           -1.8076529427       -3.6358560955       -1.2239602677  CLST         532          1.0000000000
      1597       533  TIP3  OH2          -3.0895771749       13.0338444464        7.7631793906  CLST         533          1.0000000000
      1598       533  TIP3  H1           -3.8446474890       13.6234240669        7.4359697406  CLST         533          1.0000000000
      1599       533  TIP3  H2           -3.8721919402       12.5548418110        8.1231281444  CLST         533          1.0000000000
      1600       534  TIP3  OH2           6.9447471200       -4.2563963465       -5.3958204731  CLST         534          1.0000000000
      1601       534  TIP3  H1            6.1249000800       -4.1441681101       -4.8679985169  CLST         534          1.0000000000
      1602       534  TIP3  H2            6.2676633813       -4.0854295738       -6.1059603963  CLST         534          1.0000000000
      1603       535  TIP3  OH2           7.1248404940       -3.9002650124      -11.6085614127  CLST         535          1.0000000000
      1604       535  TIP3  H1            6.5154963550       -3.2082889383      -11.2658995448  CLST         535          1.0000000000
      1605       535  TIP3  H2            6.8491825655       -4.3168989294      -10.8118175401  CLST         535          1.0000000000
      1606       536  TIP3  OH2          14.3810301165        8.0821942978       10.7849327123  CLST         536          1.0000000000
      1607       536  TIP3  H1           14.2962962749        9.0148220183       11.0753533613  CLST         536          1.0000000000
      1608       536  TIP3  H2           14.9756962681        8.4489562582       10.0384795582  CLST         536          1.0000000000
      1609       537  TIP3  OH2           4.5535784792       -4.6460834405       -3.4859532797  CLST         537          1.0000000000
      1610       537  TIP3  H1            3.8259852966       -5.1857258709       -3.1724478878  CLST         537          1.0000000000
      1611       537  TIP3  H2            4.8443164754       -5.5471010068       -3.8133735640  CLST         537          1.0000000000
      1612       538  TIP3  OH2          -0.5138273398        7.5322088928       13.1614488979  CLST         538          1.0000000000
      1613       538  TIP3  H1           -1.1822249961        7.8005093442       12.5747588620  CLST         538          1.0000000000
      1614       538  TIP3  H2           -0.3693156556        8.4517540209       13.4786843528  CLST         538          1.0000000000
      1615       539  TIP3  OH2           5.9983367132        8.6123744070        1.2808793723  CLST         539          1.0000000000
      1616       539  TIP3  H1            6.5013248836        7.9007080938        0.8202579820  CLST         539          1.0000000000
      1617       539  TIP3  H2            5.3813494909        7.8732447511        1.3694740305  CLST         539          1.0000000000
      1618       540  TIP3  OH2          12.1428401560       -1.2510823475       -3.8600061110  CLST         540          1.0000000000
      1619       540  TIP3  H1           12.9984192391       -0.8079132572       -4.0655121554  CLST         540          1.0000000000
      1620       540  TIP3  H2           12.2303380041       -1.3617861311       -2.9278502477  CLST         540          1.0000000000
      1621       541  TIP3  OH2          10.3999376310        7.4124001338        8.1966438578  CLST         541          1.0000000000
      1622       541  TIP3  H1           10.9257737479        7.6356188406        9.0439088246  CLST         541          1.0000000000
      1623       541  TIP3  H2           11.1755277551        6.5708108438        8.3656958442  CLST         541          1.0000000000
      1624       542  TIP3  OH2          13.5601516212        0.7446832899       -5.1042808395  CLST         542          1.0000000000
      1625       542  TIP3  H1           12.7496601841        0.8881670363       -5.6088647556  CLST         542          1.0000000000
      1626       542  TIP3  H2           13.9376121792        1.0259877146       -5.9139165694  CLST         542          1.0000000000
      1627       543  TIP3  OH2          10.0337201478       -6.3889451962        5.6511392456  CLST         543          1.0000000000
      1628       543  TIP3  H1           10.5111903319       -6.7856926073        4.8639572788  CLST         543          1.0000000000
      1629       543  TIP3  H2            9.4830708466       -5.8692675756        5.0103842833  CLST         543          1.0000000000
      1630       544  TIP3  OH2           6.7917562030        4.4425899173      -12.1874083331  CLST         544          1.0000000000
      1631       544  TIP3  H1            7.2729161556        3.9166807003      -11.4991326001  CLST         544          1.0000000000
      1632       544  TIP3  H2            6.5345353485        5.0195726231      -11.4010261511  CLST         544          1.0000000000
      1633       545  TIP3  OH2         -11.8778345204        2.5117955826        7.1355684626  CLST         545          1.0000000000
      1634       545  TIP3  H1          -12.5664769287        2.8274684365        7.4140318130  CLST         545          1.0000000000
      1635       545  TIP3  H2          -12.0241285848        3.5474769291        7.8104293699  CLST         545          1.0000000000
      1636       546  TIP3  OH2          -1.0498314843       11.9029286418       10.6293735127  CLST         546          1.0000000000
      1637       546  TIP3  H1           -0.8654221905       12.7655917725       10.2719889048  CLST         546          1.0000000000
      1638       546  TIP3  H2           -0.6046394480       12.2772684375       11.3741083805  CLST         546          1.0000000000
      1639       547  TIP3  OH2          -2.1479351312        6.9663873026        5.8365252335  CLST         547          1.0000000000
      1640       547  TIP3  H1           -2.1533790219        6.3398701935        6.6180352940  CLST         547          1.0000000000
      1641       547  TIP3  H2           -1.3396627855        6.6006132383        5.5333357405  CLST         547          1.0000000000
      1642       548  TIP3  OH2           2.9429739939       -7.9782520193       12.5140394738  CLST         548          1.0000000000
      1643       548  TIP3  H1            2.6470584606       -6.9926082203       12.5497094916  CLST         548          1.0000000000
      1644       548  TIP3  H2            3.8495813600       -7.6265037618       12.2224515654  CLST         548          1.0000000000
      1645       549  TIP3  OH2          -6.8485253401       14.5776795208        3.2728990637  CLST         549          1.0000000000
      1646       549  TIP3  H1           -7.5084349208       14.9945194475        3.7956141621  CLST         549          1.0000000000
      1647       549  TIP3  H2           -6.9480482646       13.7289515823        3.7152037637  CLST         549          1.0000000000
      1648       550  TIP3  OH2          -7.8883851222        4.5071889571       -4.3994648193  CLST         550          1.0000000000
      1649       550  TIP3  H1           -8.7659574979        3.9937699502       -3.7405000992  CLST         550          1.0000000000
      1650       550  TIP3  H2           -8.3510155359        4.8727186735       -3.7887450749  CLST         550          1.0000000000
      1651       551  TIP3  OH2          -2.3482574721      -13.5041242196       -3.1812834006  CLST         551          1.0000000000
      1652       551  TIP3  H1           -2.0242147113      -13.0169484461       -2.4091420111  CLST         551          1.0000000000
      1653       551  TIP3  H2           -3.1548630095      -13.5886315010       -2.6610126438  CLST         551          1.0000000000
      1654       552  TIP3  OH2          -2.5409412074       -7.8959703245       13.6521113109  CLST         552          1.0000000000
      1655       552  TIP3  H1           -2.7115391372       -8.7392510233       14.1586222349  CLST         552          1.0000000000
      1656       552  TIP3  H2           -2.5155814691       -8.3364406236       12.8125723758  CLST         552          1.0000000000
      1657       553  TIP3  OH2           8.2994143361      -13.7605742773        0.1964615899  CLST         553          1.0000000000
      1658       553  TIP3  H1            8.8847991194      -13.1082389328        0.4365013693  CLST         553          1.0000000000
      1659       553  TIP3  H2            8.2986300691      -14.4799112570        0.8526835068  CLST         553          1.0000000000
      1660       554  TIP3  OH2          -9.3674956364      -12.2855673384       -3.8584889482  CLST         554          1.0000000000
      1661       554  TIP3  H1           -9.6465900238      -11.6416094820       -3.2169276967  CLST         554          1.0000000000
      1662       554  TIP3  H2          -10.2282677914      -12.7725971494       -3.5175443918  CLST         554          1.0000000000
      1663       555  TIP3  OH2         -11.0839923794       -5.2762771324       -7.4050922781  CLST         555          1.0000000000
      1664       555  TIP3  H1          -10.7620728668       -4.3332318937       -7.3354410301  CLST         555          1.0000000000
      1665       555  TIP3  H2          -11.0940466684       -5.2569142557       -6.4296746291  CLST         555          1.0000000000
      1666       556  TIP3  OH2         -10.5540082527       11.3339232458       13.5043921690  CLST         556          1.0000000000
      1667       556  TIP3  H1          -11.1774626845       10.5830418212       13.7244667893  CLST         556          1.0000000000
      1668       556  TIP3  H2           -9.8117362554       10.6216922346       13.5020750579  CLST         556          1.0000000000
      1669       557  TIP3  OH2          -2.5390059699       -6.6089115230        1.6416811482  CLST         557          1.0000000000
      1670       557  TIP3  H1           -2.7649183827       -6.7031117543        2.5757663490  CLST         557          1.0000000000
      1671       557  TIP3  H2           -2.4054419763       -7.5968182333        1.5454331356  CLST         557          1.0000000000
      1672       558  TIP3  OH2         -10.4527712132        6.3405683568        2.8883226052  CLST         558          1.0000000000
      1673       558  TIP3  H1          -10.1748031726        5.7778146566        3.6501361756  CLST         558          1.0000000000
      1674       558  TIP3  H2           -9.8821255042        5.7472572455        2.3585546594  CLST         558          1.0000000000
      1675       559  TIP3  OH2           0.9879788099        2.3739556764       -0.0282049031  CLST         559          1.0000000000
      1676       559  TIP3  H1            1.2912017938        2.6710149353       -0.8019094928  CLST         559          1.0000000000
      1677       559  TIP3  H2            1.5585327121        1.6946568805       -0.7468996449  CLST         559          1.0000000000
      1678       560  TIP3  OH2          12.7030548596      -11.9051160613        1.1869032815  CLST         560          1.0000000000
      1679       560  TIP3  H1           12.6433602786      -12.5942006863        0.5285662234  CLST         560          1.0000000000
      1680       560  TIP3  H2           12.1300949747      -12.9117478101        1.5591991050  CLST         560          1.0000000000
      1681       561  TIP3  OH2         -12.7773619083        8.5861051054      -10.8191387911  CLST         561          1.0000000000
      1682       561  TIP3  H1          -11.8281761704        8.4095599709      -10.8066603536  CLST         561          1.0000000000
      1683       561  TIP3  H2          -12.6391729452        8.8226221285       -9.9001085888  CLST         561          1.0000000000
      1684       562  TIP3  OH2           9.9263660317        6.9435717324       13.1905960819  CLST         562          1.0000000000
      1685       562  TIP3  H1           10.3965987717        7.3010889542       13.9060208626  CLST         562          1.0000000000
      1686       562  TIP3  H2           10.0914710513        6.0758825699       13.6177918611  CLST         562          1.0000000000
      1687       563  TIP3  OH2           3.2271253554      -10.3298957819       -6.8377169342  CLST         563          1.0000000000
      1688       563  TIP3  H1            4.1419522929      -10.6533735996       -6.9573184122  CLST         563          1.0000000000
      1689       563  TIP3  H2            2.7216188429      -11.1424059516       -6.8812079293  CLST         563          1.0000000000
      1690       564  TIP3  OH2           4.5604789876      -13.1914383269       -2.7588176953  CLST         564          1.0000000000
      1691       564  TIP3  H1            4.8994766851      -13.9433880119       -3.6347542701  CLST         564          1.0000000000
      1692       564  TIP3  H2            4.0567600171      -13.3161840589       -3.3892513403  CLST         564          1.0000000000
      1693       565  TIP3  OH2           1.3828531060       12.2900221027        0.4607050897  CLST         565          1.0000000000
      1694       565  TIP3  H1            1.0079847093       11.4747171600        0.0579006170  CLST         565          1.0000000000
      1695       565  TIP3  H2            2.2620434333       12.1669735436        0.0868359510  CLST         565          1.0000000000
      1696       566  TIP3  OH2          -8.7122200289        5.4854930934        0.9911166580  CLST         566          1.0000000000
      1697       566  TIP3  H1           -8.4354554363        4.8800464569        0.4136588380  CLST         566          1.0000000000
      1698       566  TIP3  H2           -8.8710880932        5.6822136876       -0.0788240760  CLST         566          1.0000000000
      1699       567  TIP3  OH2          12.2858584016       -0.1269291355       -8.3024618232  CLST         567          1.0000000000
      1700       567  TIP3  H1           13.2811232898       -0.0058660018       -8.4694302510  CLST         567          1.0000000000
      1701       567  TIP3  H2           12.4059794386       -0.7448593461       -9.0894402060  CLST         567          1.0000000000
      1702       568  TIP3  OH2           8.9645917338       -7.0445768778       11.6828325231  CLST         568          1.0000000000
      1703       568  TIP3  H1            9.6576622968       -7.3450406131       12.2675262267  CLST         568          1.0000000000
      1704       568  TIP3  H2            9.6042604701       -6.3496078477       11.4573445268  CLST         568          1.0000000000
      1705       569  TIP3  OH2          -8.5412413229       -6.4945319936        3.5744404478  CLST         569          1.0000000000
      1706       569  TIP3  H1           -9.1280294205       -6.4641328293        2.5998939001  CLST         569          1.0000000000
      1707       569  TIP3  H2           -9.5077254998       -6.5510938180        3.7083248174  CLST         569          1.0000000000
      1708       570  TIP3  OH2           6.0934842781       11.5493538771       14.9945194475  CLST         570          1.0000000000
      1709       570  TIP3  H1            5.1846623959       11.6349995555       14.7772072472  CLST         570          1.0000000000
      1710       570  TIP3  H2            6.2555816058       11.8827083209       14.0780559375  CLST         570          1.0000000000
      1711       571  TIP3  OH2           9.3647765027        1.2340551694        4.6648919988  CLST         571          1.0000000000
      1712       571  TIP3  H1            8.7354880391        0.9340054086        5.3381960093  CLST         571          1.0000000000
      1713       571  TIP3  H2            8.7637714892        0.6703308576        4.0156410131  CLST         571          1.0000000000
      1714       572  TIP3  OH2           5.2746613254        0.4538756670        2.3898730212  CLST         572          1.0000000000
      1715       572  TIP3  H1            5.4346489437       -0.2171696224        3.0845995456  CLST         572          1.0000000000
      1716       572  TIP3  H2            6.1448964941        0.1694406139        2.0598825279  CLST         572          1.0000000000
      1717       573  TIP3  OH2          -1.9402356600       -6.6039715127       -6.2137365188  CLST         573          1.0000000000
      1718       573  TIP3  H1           -1.6790129340       -7.6196440703       -6.5943128427  CLST         573          1.0000000000
      1719       573  TIP3  H2           -2.5742661879       -6.9756236846       -6.6174883784  CLST         573          1.0000000000
      1720       574  TIP3  OH2          -9.7446901293        0.6946100950        9.6653395668  CLST         574          1.0000000000
      1721       574  TIP3  H1           -9.7196532289        1.8511405063        9.6916771386  CLST         574          1.0000000000
      1722       574  TIP3  H2           -9.2933089632        1.1744161683        9.1665728918  CLST         574          1.0000000000
      1723       575  TIP3  OH2          -3.8948761361       10.7914105525        0.8049938440  CLST         575          1.0000000000
      1724       575  TIP3  H1           -4.1216362270       11.4578417680        0.0284126778  CLST         575          1.0000000000
      1725       575  TIP3  H2           -4.6548949372       11.2679150692        1.2078316193  CLST         575          1.0000000000
      1726       576  TIP3  OH2          -3.3782065396       -2.4413830019        6.3441050045  CLST         576          1.0000000000
      1727       576  TIP3  H1           -3.4433657299       -1.6223991686        5.8688555209  CLST         576          1.0000000000
      1728       576  TIP3  H2           -3.1824378267       -2.7910628739        5.4271270367  CLST         576          1.0000000000
      1729       577  TIP3  OH2         -12.1179991186       10.9645238970        8.5641048128  CLST         577          1.0000000000
      1730       577  TIP3  H1          -11.3399522143       11.3842093518        8.8149144324  CLST         577          1.0000000000
      1731       577  TIP3  H2          -12.2109864831       11.1621510199        7.6459388017  CLST         577          1.0000000000
      1732       578  TIP3  OH2          -1.6908143982        0.9344008395        5.2455868730  CLST         578          1.0000000000
      1733       578  TIP3  H1           -2.5733810392        1.2456648192        5.2043503252  CLST         578          1.0000000000
      1734       578  TIP3  H2           -1.7009063409        0.9680636165        6.1995995365  CLST         578          1.0000000000
      1735       579  TIP3  OH2          -6.5434626081       11.6215494017        1.5759123833  CLST         579          1.0000000000
      1736       579  TIP3  H1           -6.8202678666       12.3832192543        1.0269049931  CLST         579          1.0000000000
      1737       579  TIP3  H2           -7.0375794057       11.0196818182        0.9841885903  CLST         579          1.0000000000
      1738       580  TIP3  OH2          10.9292399539        3.6674792628       -3.1939222418  CLST         580          1.0000000000
      1739       580  TIP3  H1           10.8573114726        2.7289392842       -2.9357813829  CLST         580          1.0000000000
      1740       580  TIP3  H2           11.5569618350        3.7322184565       -2.4555164729  CLST         580          1.0000000000
      1741       581  TIP3  OH2          12.7935044708      -11.5682858018        3.6773304942  CLST         581          1.0000000000
      1742       581  TIP3  H1           13.2360645556      -11.4774861351        2.8150755551  CLST         581          1.0000000000
      1743       581  TIP3  H2           13.7161191039      -11.9025291989        3.9381677859  CLST         581          1.0000000000
      1744       582  TIP3  OH2           6.2558869306       10.7947889225       -7.0626864305  CLST         582          1.0000000000
      1745       582  TIP3  H1            5.4046314589       10.5915892810       -6.6083915688  CLST         582          1.0000000000
      1746       582  TIP3  H2            6.6001449778       11.0328540417       -6.1836275992  CLST         582          1.0000000000
      1747       583  TIP3  OH2          -2.5437269725        4.6707154416      -11.0891502253  CLST         583          1.0000000000
      1748       583  TIP3  H1           -3.0325421030        3.8469603273      -11.1608432072  CLST         583          1.0000000000
      1749       583  TIP3  H2           -1.8269641909        4.0224306789      -11.4221886923  CLST         583          1.0000000000
      1750       584  TIP3  OH2           2.2588123057       -4.0683464683       -9.8308247552  CLST         584          1.0000000000
      1751       584  TIP3  H1            3.2382158758       -4.5787245711      -10.3242129090  CLST         584          1.0000000000
      1752       584  TIP3  H2            3.0179513176       -3.7738933104       -9.6509039384  CLST         584          1.0000000000
      1753       585  TIP3  OH2         -13.9549676773        1.0973280809       -1.8714337346  CLST         585          1.0000000000
      1754       585  TIP3  H1          -13.8736422924        1.7925168742       -2.5714223443  CLST         585          1.0000000000
      1755       585  TIP3  H2          -14.6943715913        0.6074571856       -2.2607477428  CLST         585          1.0000000000
      1756       586  TIP3  OH2          -7.3149424734        8.7695262306       10.4775496334  CLST         586          1.0000000000
      1757       586  TIP3  H1           -6.9716711120        9.1967387297        9.4355243209  CLST         586          1.0000000000
      1758       586  TIP3  H2           -6.8844829307        8.1437847676        9.5798430787  CLST         586          1.0000000000
      1759       587  TIP3  OH2           4.5798803924        4.4992747407       -9.9568358251  CLST         587          1.0000000000
      1760       587  TIP3  H1            3.6843093365        4.4139499409       -9.6742338320  CLST         587          1.0000000000
      1761       587  TIP3  H2            4.2019894508        4.4861980051      -10.8171948950  CLST         587          1.0000000000
      1762       588  TIP3  OH2           4.7542423621       -9.5068019173      -13.8470496601  CLST         588          1.0000000000
      1763       588  TIP3  H1            3.8548922993       -9.6489494404      -14.1515127143  CLST         588          1.0000000000
      1764       588  TIP3  H2            4.4959108245       -9.2735728376      -12.9674679847  CLST         588          1.0000000000
      1765       589  TIP3  OH2           0.3433772635      -14.2770608846        3.2828564100  CLST         589          1.0000000000
      1766       589  TIP3  H1           -0.5212043957      -14.7282657498        3.4072004607  CLST         589          1.0000000000
      1767       589  TIP3  H2            0.3502795329      -14.4760388832        4.2821962870  CLST         589          1.0000000000
      1768       590  TIP3  OH2           2.4327400420        1.9600311736       -8.2248601634  CLST         590          1.0000000000
      1769       590  TIP3  H1            1.6461700136        2.5013747976       -7.9970802799  CLST         590          1.0000000000
      1770       590  TIP3  H2            1.9837601847        2.0077263626       -9.1075976294  CLST         590          1.0000000000
      1771       591  TIP3  OH2         -13.0048272861        0.9226519271       -6.4863037684  CLST         591          1.0000000000
      1772       591  TIP3  H1          -12.2072796371        1.0105812208       -5.9583184327  CLST         591          1.0000000000
      1773       591  TIP3  H2          -13.2237220599        1.8211096752       -6.2469455821  CLST         591          1.0000000000
      1774       592  TIP3  OH2          -4.2066108862       -3.8426858670       -6.2009880656  CLST         592          1.0000000000
      1775       592  TIP3  H1           -3.4688554257       -3.5243303011       -6.7482356847  CLST         592          1.0000000000
      1776       592  TIP3  H2           -4.6788845567       -4.3156267189       -6.9192842282  CLST         592          1.0000000000
      1777       593  TIP3  OH2          -1.6191706134        5.5026923038       -4.6967383244  CLST         593          1.0000000000
      1778       593  TIP3  H1           -1.0187047957        6.2300796886       -4.4822380057  CLST         593          1.0000000000
      1779       593  TIP3  H2           -1.1169898609        5.5032699446       -5.5759890255  CLST         593          1.0000000000
      1780       594  TIP3  OH2          11.3469735091       10.5367596209       13.6270552221  CLST         594          1.0000000000
      1781       594  TIP3  H1           11.3401755820        9.5208581832       14.1862756585  CLST         594          1.0000000000
      1782       594  TIP3  H2           10.5746688528       10.0496553008       14.1939744392  CLST         594          1.0000000000
      1783       595  TIP3  OH2          -9.1563649200       13.5273865293        4.6549579559  CLST         595          1.0000000000
      1784       595  TIP3  H1           -9.8564765546       14.1779439256        4.5192993939  CLST         595          1.0000000000
      1785       595  TIP3  H2           -9.1469285052       13.4342165552        3.6889787546  CLST         595          1.0000000000
      1786       596  TIP3  OH2         -14.0226580323       -0.6518649171        8.8722792068  CLST         596          1.0000000000
      1787       596  TIP3  H1          -13.8276159532       -1.5016080540        9.2837763785  CLST         596          1.0000000000
      1788       596  TIP3  H2          -13.2701008120       -0.5667630141        8.2673242491  CLST         596          1.0000000000
      1789       597  TIP3  OH2          -3.1185643193       -5.1332440478       -4.2228184104  CLST         597          1.0000000000
      1790       597  TIP3  H1           -2.6176759873       -5.1938735254       -5.0748285877  CLST         597          1.0000000000
      1791       597  TIP3  H2           -3.5940304750       -4.4774123535       -4.6964865852  CLST         597          1.0000000000
      1792       598  TIP3  OH2          -8.2040969182       -9.3749933748       -9.2337547958  CLST         598          1.0000000000
      1793       598  TIP3  H1           -9.0658351954       -9.7900098183       -9.0930920554  CLST         598          1.0000000000
      1794       598  TIP3  H2           -8.5653110085       -9.2035265700      -10.1298834739  CLST         598          1.0000000000
      1795       599  TIP3  OH2          11.8374120553        0.0917990126      -12.8505263764  CLST         599          1.0000000000
      1796       599  TIP3  H1           12.3681894811        0.9407295645      -12.9822937996  CLST         599          1.0000000000
      1797       599  TIP3  H2           11.9078728251       -0.0375637300      -13.7510505368  CLST         599          1.0000000000
      1798       600  TIP3  OH2          14.0183768024       -9.8725660754        1.6879421402  CLST         600          1.0000000000
      1799       600  TIP3  H1           14.8804080635      -10.0733990029        1.3127536702  CLST         600          1.0000000000
      1800       600  TIP3  H2           13.5958296149      -10.3714753843        0.9988747570  CLST         600          1.0000000000
      1801       601  TIP3  OH2          -2.2365441161       13.4486458133       -8.0123433282  CLST         601          1.0000000000
      1802       601  TIP3  H1           -1.9308834882       12.9939567951       -7.2340998235  CLST         601          1.0000000000
      1803       601  TIP3  H2           -1.4664589762       14.0523463553       -7.9698411764  CLST         601          1.0000000000
      1804       602  TIP3  OH2          13.7222921432       -3.3499713487        8.5278579282  CLST         602          1.0000000000
      1805       602  TIP3  H1           13.2862320839       -3.2603268882        7.6925829738  CLST         602          1.0000000000
      1806       602  TIP3  H2           14.4031213370       -3.8195983927        7.9356163783  CLST         602          1.0000000000
      1807       603  TIP3  OH2          -8.1492193508       -9.5613268696      -12.0561024146  CLST         603          1.0000000000
      1808       603  TIP3  H1           -8.9905148936       -9.0580400869      -12.0094018855  CLST         603          1.0000000000
      1809       603  TIP3  H2           -8.6579818588      -10.4251539638      -12.0332885396  CLST         603          1.0000000000
      1810       604  TIP3  OH2           0.4027912206       -8.0314154102       12.0385274512  CLST         604          1.0000000000
      1811       604  TIP3  H1            0.5908944883       -7.0897311385       11.7987556886  CLST         604          1.0000000000
      1812       604  TIP3  H2            1.1120844729       -7.9398675994       12.6901355880  CLST         604          1.0000000000
      1813       605  TIP3  OH2           9.9414719732        8.1369579377        3.5556665619  CLST         605          1.0000000000
      1814       605  TIP3  H1            9.3749462138        8.1930050415        2.7768165252  CLST         605          1.0000000000
      1815       605  TIP3  H2            9.8030175862        9.1054859265        3.3033782257  CLST         605          1.0000000000
      1816       606  TIP3  OH2           0.9330164117        8.8436991196       -6.5065172453  CLST         606          1.0000000000
      1817       606  TIP3  H1            1.2783985555        9.6340157487       -6.0706974635  CLST         606          1.0000000000
      1818       606  TIP3  H2            0.0569334624        9.1883121396       -6.2174967637  CLST         606          1.0000000000
      1819       607  TIP3  OH2          -5.0050379564        1.5250851949      -13.6810949638  CLST         607          1.0000000000
      1820       607  TIP3  H1           -5.8790855993        1.6290364576      -13.1592765402  CLST         607          1.0000000000
      1821       607  TIP3  H2           -5.2557977271        1.1403830753      -14.5674292319  CLST         607          1.0000000000
      1822       608  TIP3  OH2          -2.2961501307       -0.0518467381      -11.4457395634  CLST         608          1.0000000000
      1823       608  TIP3  H1           -1.4692239010        0.0324952609      -10.9294963145  CLST         608          1.0000000000
      1824       608  TIP3  H2           -1.9741706504        0.1968297962      -12.3355350383  CLST         608          1.0000000000
      1825       609  TIP3  OH2           3.9245036142        8.3564048875        2.9435674941  CLST         609          1.0000000000
      1826       609  TIP3  H1            4.4403354556        8.7063582056        3.7153666030  CLST         609          1.0000000000
      1827       609  TIP3  H2            4.4320086255        7.5356011616        3.1592190020  CLST         609          1.0000000000
      1828       610  TIP3  OH2          -7.8721579412       -9.0876649763       11.6625489055  CLST         610          1.0000000000
      1829       610  TIP3  H1           -7.1519663824       -9.8159777660       11.1932696981  CLST         610          1.0000000000
      1830       610  TIP3  H2           -7.4617971564       -8.7909227071       10.8341085425  CLST         610          1.0000000000
      1831       611  TIP3  OH2          13.8986252978       -4.3217318737        6.3297382840  CLST         611          1.0000000000
      1832       611  TIP3  H1           14.4738991170       -4.9289427854        5.8249732506  CLST         611          1.0000000000
      1833       611  TIP3  H2           13.9094864455       -3.8066076355        5.5066188044  CLST         611          1.0000000000
      1834       612  TIP3  OH2          -8.9001831842      -10.8027810881        6.3678128576  CLST         612          1.0000000000
      1835       612  TIP3  H1           -8.1647630048      -10.4131226125        5.8226782289  CLST         612          1.0000000000
      1836       612  TIP3  H2           -9.2863470654       -9.9806420106        5.9822586144  CLST         612          1.0000000000
      1837       613  TIP3  OH2           2.6470669655       -2.0909152719       14.4119230488  CLST         613          1.0000000000
      1838       613  TIP3  H1            2.5846948629       -3.0751930877       14.3712384068  CLST         613          1.0000000000
      1839       613  TIP3  H2            1.8361338193       -1.9414663018       13.9338312177  CLST         613          1.0000000000
      1840       614  TIP3  OH2           1.0929388201        4.7490964502       -9.1445531487  CLST         614          1.0000000000
      1841       614  TIP3  H1            1.5245129594        4.9473906440       -8.2987143869  CLST         614          1.0000000000
      1842       614  TIP3  H2            1.0655014135        5.6958784272       -9.0621847423  CLST         614          1.0000000000
      1843       615  TIP3  OH2           1.1315984945        4.4342181672        7.0036188676  CLST         615          1.0000000000
      1844       615  TIP3  H1            1.7255411495        4.6233507025        7.6953735646  CLST         615          1.0000000000
      1845       615  TIP3  H2            1.6333381491        4.7589075160        6.2918442764  CLST         615          1.0000000000
      1846       616  TIP3  OH2          -7.5362941898        4.1164821387       -7.1209789381  CLST         616          1.0000000000
      1847       616  TIP3  H1           -7.8757625256        3.6349214348       -7.8755313408  CLST         616          1.0000000000
      1848       616  TIP3  H2           -7.1987244128        4.6863854902       -7.7964043713  CLST         616          1.0000000000
      1849       617  TIP3  OH2          14.9803850482        2.2227951004       11.6558875722  CLST         617          1.0000000000
      1850       617  TIP3  H1           14.8358790914        1.3035217957       11.8738915139  CLST         617          1.0000000000
      1851       617  TIP3  H2           14.0598942602        2.3913069704       11.8167954215  CLST         617          1.0000000000
      1852       618  TIP3  OH2          -6.9806731593        3.0575062519        2.8202179741  CLST         618          1.0000000000
      1853       618  TIP3  H1           -6.6206981416        3.7564184864        2.2166348880  CLST         618          1.0000000000
      1854       618  TIP3  H2           -6.3315701771        3.3320305293        3.4681506668  CLST         618          1.0000000000
      1855       619  TIP3  OH2           1.3835990666        5.5782738361       -2.7491199921  CLST         619          1.0000000000
      1856       619  TIP3  H1            0.8191826889        4.8562876162       -2.8884266600  CLST         619          1.0000000000
      1857       619  TIP3  H2            0.6698424298        6.2601283364       -2.9655251389  CLST         619          1.0000000000
      1858       620  TIP3  OH2          -3.6262051311        8.5871517130       -5.8120698198  CLST         620          1.0000000000
      1859       620  TIP3  H1           -3.4714154688        7.7251292687       -5.3458277646  CLST         620          1.0000000000
      1860       620  TIP3  H2           -3.9718495751        8.2329909518       -6.6028196555  CLST         620          1.0000000000
      1861       621  TIP3  OH2           0.8299684750        7.4262411034       -8.7210903369  CLST         621          1.0000000000
      1862       621  TIP3  H1            1.1951262266        8.1360588093       -8.1962747985  CLST         621          1.0000000000
      1863       621  TIP3  H2            0.7781858877        7.9957023201       -9.5302430465  CLST         621          1.0000000000
      1864       622  TIP3  OH2           1.9784504603       10.5462974201        3.7557958224  CLST         622          1.0000000000
      1865       622  TIP3  H1            2.4863323224       10.2537327943        4.5261572370  CLST         622          1.0000000000
      1866       622  TIP3  H2            1.2296080783       10.3195428701        4.3861571519  CLST         622          1.0000000000
      1867       623  TIP3  OH2          -0.1478650978       11.9916118496        2.7204890300  CLST         623          1.0000000000
      1868       623  TIP3  H1            0.6576452129       12.1646909087        2.1198307538  CLST         623          1.0000000000
      1869       623  TIP3  H2            0.6028002037       11.5206843200        3.1090428051  CLST         623          1.0000000000
      1870       624  TIP3  OH2          -8.8041658780       -1.8393938052       -3.6366399231  CLST         624          1.0000000000
      1871       624  TIP3  H1           -8.3905068538       -1.1901582414       -4.2159926746  CLST         624          1.0000000000
      1872       624  TIP3  H2           -9.4878977284       -1.1891757001       -3.7477331462  CLST         624          1.0000000000
      1873       625  TIP3  OH2         -10.0703237115      -13.1411286594       -9.0677737997  CLST         625          1.0000000000
      1874       625  TIP3  H1          -10.3823754549      -12.4684920877       -8.4054829623  CLST         625          1.0000000000
      1875       625  TIP3  H2           -9.3761230188      -13.4630177347       -8.5574190459  CLST         625          1.0000000000
      1876       626  TIP3  OH2          13.2251561943       -5.4015759751       -2.9049965691  CLST         626          1.0000000000
      1877       626  TIP3  H1           12.7276601527       -6.1918196958       -3.2119200534  CLST         626          1.0000000000
      1878       626  TIP3  H2           13.3636549403       -5.2376652732       -3.7812638980  CLST         626          1.0000000000
      1879       627  TIP3  OH2          -0.9123914130      -11.4509454301        7.8374196323  CLST         627          1.0000000000
      1880       627  TIP3  H1           -0.0620167692      -11.2819915629        8.2547432466  CLST         627          1.0000000000
      1881       627  TIP3  H2           -0.6484202873      -12.3735940299        8.1487530896  CLST         627          1.0000000000
      1882       628  TIP3  OH2           6.8341981934        9.0888057726       -9.0479435807  CLST         628          1.0000000000
      1883       628  TIP3  H1            6.7391605960        9.9171405345       -9.5203239171  CLST         628          1.0000000000
      1884       628  TIP3  H2            6.6829613576        9.6425248572       -8.3005070034  CLST         628          1.0000000000
      1885       629  TIP3  OH2          -9.7477811425       -0.1648759897       -9.9009391027  CLST         629          1.0000000000
      1886       629  TIP3  H1           -8.8651716503        0.1126000134      -10.3501705447  CLST         629          1.0000000000
      1887       629  TIP3  H2           -9.1721657709       -0.9242948671       -9.9450232033  CLST         629          1.0000000000
      1888       630  TIP3  OH2          11.8396793144       12.1854232361       11.9155610318  CLST         630          1.0000000000
      1889       630  TIP3  H1           11.1362576955       12.8420640588       11.7789644879  CLST         630          1.0000000000
      1890       630  TIP3  H2           11.1307762260       11.7762649766       12.3834712553  CLST         630          1.0000000000
      1891       631  TIP3  OH2         -12.1313378779      -11.5319987847      -11.3645207737  CLST         631          1.0000000000
      1892       631  TIP3  H1          -12.4343049108      -11.5556669316      -12.3342189142  CLST         631          1.0000000000
      1893       631  TIP3  H2          -12.5140490576      -12.3138014589      -11.0056358682  CLST         631          1.0000000000
      1894       632  TIP3  OH2          10.7943719293        2.3059234854        9.2752901056  CLST         632          1.0000000000
      1895       632  TIP3  H1           11.5351656626        1.9767070285        9.9502197524  CLST         632          1.0000000000
      1896       632  TIP3  H2           11.1904207616        1.2656905798        9.1473947135  CLST         632          1.0000000000
      1897       633  TIP3  OH2          -4.2865613774        6.4361929098        9.9970283490  CLST         633          1.0000000000
      1898       633  TIP3  H1           -4.0691425435        5.5187249888       10.2139964774  CLST         633          1.0000000000
      1899       633  TIP3  H2           -5.1335561750        6.0835170590        9.7641111515  CLST         633          1.0000000000
      1900       634  TIP3  OH2          -2.6636039070       -7.2235285652        6.9540525215  CLST         634          1.0000000000
      1901       634  TIP3  H1           -2.8136592971       -8.0002721238        7.4865787756  CLST         634          1.0000000000
      1902       634  TIP3  H2           -2.1699214101       -6.8710248299        7.6963403055  CLST         634          1.0000000000
      1903       635  TIP3  OH2           2.6700082258        2.3972846530       -2.1466092160  CLST         635          1.0000000000
      1904       635  TIP3  H1            2.2295179149        2.6676841991       -3.2826976783  CLST         635          1.0000000000
      1905       635  TIP3  H2            2.4507545569        1.7265633174       -3.0079647698  CLST         635          1.0000000000
      1906       636  TIP3  OH2           5.3450285804       -2.6549954081       -9.9847868344  CLST         636          1.0000000000
      1907       636  TIP3  H1            4.5763649523       -2.2907658546      -10.5262931248  CLST         636          1.0000000000
      1908       636  TIP3  H2            5.3954336216       -1.6962325141       -9.7948744926  CLST         636          1.0000000000
      1909       637  TIP3  OH2           3.6375515886       11.2975599453      -10.5694656269  CLST         637          1.0000000000
      1910       637  TIP3  H1            4.2044996778       11.6001756887       -9.8135056330  CLST         637          1.0000000000
      1911       637  TIP3  H2            3.3055968790       10.7490703323       -9.8055477026  CLST         637          1.0000000000
      1912       638  TIP3  OH2           9.0100383685      -12.2139049834       -7.2559805850  CLST         638          1.0000000000
      1913       638  TIP3  H1            8.7019888487      -12.6890870645       -8.1152181230  CLST         638          1.0000000000
      1914       638  TIP3  H2            9.6861300391      -11.9521020551       -7.8427637950  CLST         638          1.0000000000
      1915       639  TIP3  OH2           7.5552348712      -13.3254629800       -9.2968072093  CLST         639          1.0000000000
      1916       639  TIP3  H1            6.6199860896      -13.6005286400       -9.1912967872  CLST         639          1.0000000000
      1917       639  TIP3  H2            7.6763653761      -14.2929331613       -9.2881565785  CLST         639          1.0000000000
      1918       640  TIP3  OH2          -9.9085195747       -2.9973992301      -10.1675985048  CLST         640          1.0000000000
      1919       640  TIP3  H1           -9.0856312547       -3.1128100657       -9.6411276024  CLST         640          1.0000000000
      1920       640  TIP3  H2           -9.8860837261       -2.6988842759       -9.0203872781  CLST         640          1.0000000000
      1921       641  TIP3  OH2         -13.8135307399       -3.0072247513      -13.3384433318  CLST         641          1.0000000000
      1922       641  TIP3  H1          -13.4848536038       -3.7246946488      -13.1154968551  CLST         641          1.0000000000
      1923       641  TIP3  H2          -12.7744794844       -2.9522066046      -12.8856516333  CLST         641          1.0000000000
      1924       642  TIP3  OH2          -2.1118711860        1.7985934171       10.8752467377  CLST         642          1.0000000000
      1925       642  TIP3  H1           -1.7252212150        1.9996856275       11.5781953850  CLST         642          1.0000000000
      1926       642  TIP3  H2           -2.6237391899        1.8470982075       12.0148185914  CLST         642          1.0000000000
      1927       643  TIP3  OH2         -13.9965196949       -2.9363086287        3.5154225189  CLST         643          1.0000000000
      1928       643  TIP3  H1          -13.6949446656       -2.1380552047        3.9581320526  CLST         643          1.0000000000
      1929       643  TIP3  H2          -14.8687852365       -2.5613820002        3.8209092346  CLST         643          1.0000000000
      1930       644  TIP3  OH2          12.5084980939       -2.7143696308        1.1713692106  CLST         644          1.0000000000
      1931       644  TIP3  H1           13.0764142964       -1.9581572773        1.2059644913  CLST         644          1.0000000000
      1932       644  TIP3  H2           13.0964271198       -3.2207339495        0.5995826667  CLST         644          1.0000000000
      1933       645  TIP3  OH2          -6.8052543449        6.3751012356        8.9336731843  CLST         645          1.0000000000
      1934       645  TIP3  H1           -7.3344204681        6.3269365171        8.1114364387  CLST         645          1.0000000000
      1935       645  TIP3  H2           -6.6959741545        5.4176739476        8.8335727425  CLST         645          1.0000000000
      1936       646  TIP3  OH2           7.1506950116      -11.2352766795       11.7166983038  CLST         646          1.0000000000
      1937       646  TIP3  H1            6.2004358933      -11.2803212355       11.8007979163  CLST         646          1.0000000000
      1938       646  TIP3  H2            7.4167024168      -12.1009256756       11.3635635980  CLST         646          1.0000000000
      1939       647  TIP3  OH2         -12.6845587577       -8.9073597332       -7.3501009610  CLST         647          1.0000000000
      1940       647  TIP3  H1          -13.3636024504       -9.0407847612       -6.7311893054  CLST         647          1.0000000000
      1941       647  TIP3  H2          -12.1692440799       -8.8336661496       -6.4697313524  CLST         647          1.0000000000
      1942       648  TIP3  OH2         -13.8879074923        3.5605923178       -6.3564526418  CLST         648          1.0000000000
      1943       648  TIP3  H1          -14.7459467427        3.9350434860       -6.3085305715  CLST         648          1.0000000000
      1944       648  TIP3  H2          -13.8127878501        3.3880356519       -5.4081130673  CLST         648          1.0000000000
      1945       649  TIP3  OH2          -1.7474649042       -3.1026661856       -7.2880901785  CLST         649          1.0000000000
      1946       649  TIP3  H1           -1.0268732676       -2.5661626760       -7.0524349496  CLST         649          1.0000000000
      1947       649  TIP3  H2           -1.1144314569       -3.8088512795       -7.5023319807  CLST         649          1.0000000000
      1948       650  TIP3  OH2          -4.3754392342       -3.3496883574      -11.5597156869  CLST         650          1.0000000000
      1949       650  TIP3  H1           -3.4064459637       -3.2622162523      -11.2170187206  CLST         650          1.0000000000
      1950       650  TIP3  H2           -4.4092875996       -2.4387238207      -11.2859208810  CLST         650          1.0000000000
      1951       651  TIP3  OH2           0.9755662450       -3.8555887420       14.4310448641  CLST         651          1.0000000000
      1952       651  TIP3  H1            0.1902634856       -4.4152194018       14.5872309719  CLST         651          1.0000000000
      1953       651  TIP3  H2            0.6757941035       -3.1492316851       14.9945194475  CLST         651          1.0000000000
      1954       652  TIP3  OH2           2.3324498599       -8.8883226962        9.8581656693  CLST         652          1.0000000000
      1955       652  TIP3  H1            2.1172394342       -8.3866808153       10.6418712570  CLST         652          1.0000000000
      1956       652  TIP3  H2            2.0707564575       -8.1021115498        9.3784659571  CLST         652          1.0000000000
      1957       653  TIP3  OH2          13.5453197340        1.2172752764       -2.4938303478  CLST         653          1.0000000000
      1958       653  TIP3  H1           12.6428582263        0.7816013196       -2.4756637546  CLST         653          1.0000000000
      1959       653  TIP3  H2           13.2980119242        1.3360063658       -3.4510905889  CLST         653          1.0000000000
      1960       654  TIP3  OH2          -5.9357854611        9.2011753575       12.7759073346  CLST         654          1.0000000000
      1961       654  TIP3  H1           -5.0157044983        9.4334783484       12.9658457977  CLST         654          1.0000000000
      1962       654  TIP3  H2           -6.0586114910        8.8931787470       11.9227237758  CLST         654          1.0000000000
      1963       655  TIP3  OH2          -4.5537166968        1.3053662701       12.5654843939  CLST         655          1.0000000000
      1964       655  TIP3  H1           -4.6046051979        0.4408005012       12.2055345647  CLST         655          1.0000000000
      1965       655  TIP3  H2           -5.2540722027        1.0172314553       13.1319813410  CLST         655          1.0000000000
      1966       656  TIP3  OH2         -14.0935616492       -4.3375676920      -10.6657392496  CLST         656          1.0000000000
      1967       656  TIP3  H1          -14.8085913215       -4.1082449971      -11.2796483409  CLST         656          1.0000000000
      1968       656  TIP3  H2          -14.1293259517       -5.2063276068      -11.1519294217  CLST         656          1.0000000000
      1969       657  TIP3  OH2           4.2211216863       -0.9783303049        4.8730532549  CLST         657          1.0000000000
      1970       657  TIP3  H1            4.7041732733       -0.4504032947        5.4831983981  CLST         657          1.0000000000
      1971       657  TIP3  H2            3.6548207168       -0.2068400348        4.8876640718  CLST         657          1.0000000000
      1972       658  TIP3  OH2         -14.0236872488       -7.2709147759       -4.8469067954  CLST         658          1.0000000000
      1973       658  TIP3  H1          -13.9789331389       -6.5870144622       -5.5049882784  CLST         658          1.0000000000
      1974       658  TIP3  H2          -14.9660072345       -7.2141416931       -4.9413709040  CLST         658          1.0000000000
      1975       659  TIP3  OH2           9.4339058354      -13.2727475464        9.6592596595  CLST         659          1.0000000000
      1976       659  TIP3  H1            9.0475728343      -12.5805717447        9.0947076657  CLST         659          1.0000000000
      1977       659  TIP3  H2            8.5568447609      -13.7174786112        9.8095511553  CLST         659          1.0000000000
      1978       660  TIP3  OH2         -14.3435961791       -9.1431561670        6.6796584516  CLST         660          1.0000000000
      1979       660  TIP3  H1          -14.9945194475       -9.9026548055        6.9102850820  CLST         660          1.0000000000
      1980       660  TIP3  H2          -14.1731340594       -9.2077179889        7.6596285289  CLST         660          1.0000000000
      1981       661  TIP3  OH2           2.9785392468        1.2433474132       -4.7625055696  CLST         661          1.0000000000
      1982       661  TIP3  H1            2.5024443309        1.8865986850       -5.3182021157  CLST         661          1.0000000000
      1983       661  TIP3  H2            2.4151380903        0.4220536449       -4.9757239608  CLST         661          1.0000000000
      1984       662  TIP3  OH2          -8.8458406862       -5.1118573490        1.1754759363  CLST         662          1.0000000000
      1985       662  TIP3  H1           -9.6154087187       -5.4915410138        0.7024545524  CLST         662          1.0000000000
      1986       662  TIP3  H2           -9.4028336178       -4.2800617599        1.1425078029  CLST         662          1.0000000000
      1987       663  TIP3  OH2           6.0496650570       -2.1132816790        3.6066743208  CLST         663          1.0000000000
      1988       663  TIP3  H1            5.5572237213       -2.0275806233        4.4278673704  CLST         663          1.0000000000
      1989       663  TIP3  H2            5.8048557444       -3.0737739374        3.6620645181  CLST         663          1.0000000000
      1990       664  TIP3  OH2          10.3556343766      -14.2637039579        2.3617268495  CLST         664          1.0000000000
      1991       664  TIP3  H1            9.6280169780      -13.7995417838        2.8545002707  CLST         664          1.0000000000
      1992       664  TIP3  H2            9.8430374994      -14.9933829496        2.7502776850  CLST         664          1.0000000000
      1993       665  TIP3  OH2           9.4991545968       10.2079363400      -14.2407029954  CLST         665          1.0000000000
      1994       665  TIP3  H1            8.8738204168        9.4272298276      -14.3641673191  CLST         665          1.0000000000
      1995       665  TIP3  H2            8.8429740201       10.6314067062      -14.7901281436  CLST         665          1.0000000000
      1996       666  TIP3  OH2         -11.5410299395       -7.7020948858       -9.2145683679  CLST         666          1.0000000000
      1997       666  TIP3  H1          -11.7723503541       -7.3371338569       -8.3117613115  CLST         666          1.0000000000
      1998       666  TIP3  H2          -12.3781537405       -8.2133548142       -9.0344614172  CLST         666          1.0000000000
      1999       667  TIP3  OH2         -11.1340011241        5.7291973478        7.7675813600  CLST         667          1.0000000000
      2000       667  TIP3  H1          -11.1953724697        5.3642000362        8.9533044641  CLST         667          1.0000000000
      2001       667  TIP3  H2          -10.9498620657        6.2486946608        8.7298526649  CLST         667          1.0000000000
      2002       668  TIP3  OH2         -12.5255901496        0.0727403414        0.0845898586  CLST         668          1.0000000000
      2003       668  TIP3  H1          -12.8144025824        0.2954115507        0.9613824707  CLST         668          1.0000000000
      2004       668  TIP3  H2          -13.3756415813        0.4711693571       -0.1891379254  CLST         668          1.0000000000
      2005       669  TIP3  OH2          -3.7127019138      -11.6157601990        5.1826541572  CLST         669          1.0000000000
      2006       669  TIP3  H1           -3.9191306383      -12.2612115779        4.4948304907  CLST         669          1.0000000000
      2007       669  TIP3  H2           -4.0923500022      -11.0650908961        4.4073864182  CLST         669          1.0000000000
      2008       670  TIP3  OH2          -6.3793898952       -2.5231480803        1.4513001981  CLST         670          1.0000000000
      2009       670  TIP3  H1           -7.2742030153       -2.2161896865        1.2535765118  CLST         670          1.0000000000
      2010       670  TIP3  H2           -6.1360189390       -1.9577168971        0.6785187146  CLST         670          1.0000000000
      2011       671  TIP3  OH2           4.0698639876       -9.3735296848      -11.0839132740  CLST         671          1.0000000000
      2012       671  TIP3  H1            3.4484655210       -9.1708848241      -10.3670553400  CLST         671          1.0000000000
      2013       671  TIP3  H2            4.9063296338       -8.9493198956      -10.9464271740  CLST         671          1.0000000000
      2014       672  TIP3  OH2          11.8789125596      -12.6826420264        9.1168507499  CLST         672          1.0000000000
      2015       672  TIP3  H1           11.2142798321      -13.2099142013        9.6353508033  CLST         672          1.0000000000
      2016       672  TIP3  H2           12.5006574376      -12.9491335859        9.8041557386  CLST         672          1.0000000000
      2017       673  TIP3  OH2           6.8285155828       -4.3415074907        7.1210588896  CLST         673          1.0000000000
      2018       673  TIP3  H1            7.3102029064       -3.5840326165        6.8306351293  CLST         673          1.0000000000
      2019       673  TIP3  H2            7.6901308895       -4.5969811364        7.5578537786  CLST         673          1.0000000000
      2020       674  TIP3  OH2          -3.7880768793       -0.7181407953        3.0692872575  CLST         674          1.0000000000
      2021       674  TIP3  H1           -3.0736958160       -1.3728064102        3.0292532772  CLST         674          1.0000000000
      2022       674  TIP3  H2           -4.1121190204       -1.4465101269        2.5143483915  CLST         674          1.0000000000
      2023       675  TIP3  OH2          -9.2458173520        2.2784612554       -3.3470470366  CLST         675          1.0000000000
      2024       675  TIP3  H1           -8.6771515209        1.5899029325       -3.0635041958  CLST         675          1.0000000000
      2025       675  TIP3  H2           -9.6028998253        2.2284823378       -2.4557860875  CLST         675          1.0000000000
      2026       676  TIP3  OH2         -13.3812590000        0.0650531522      -13.8536872845  CLST         676          1.0000000000
      2027       676  TIP3  H1          -13.9724474465       -0.5754517365      -13.5679893784  CLST         676          1.0000000000
      2028       676  TIP3  H2          -13.0678370605       -0.6517064195      -13.0116434118  CLST         676          1.0000000000
      2029       677  TIP3  OH2           1.7513262275      -12.1232747265        2.1192661259  CLST         677          1.0000000000
      2030       677  TIP3  H1            1.8529908175      -11.8498092333        1.2312616872  CLST         677          1.0000000000
      2031       677  TIP3  H2            1.1824994720      -12.9456720294        2.2053962521  CLST         677          1.0000000000
      2032       678  TIP3  OH2          11.4212045962       -6.8330976503       -8.5323794742  CLST         678          1.0000000000
      2033       678  TIP3  H1           12.3851549167       -6.8247113196       -8.6907728713  CLST         678          1.0000000000
      2034       678  TIP3  H2           11.5854791916       -5.9777172632       -8.9787079124  CLST         678          1.0000000000
      2035       679  TIP3  OH2           7.2613624548      -10.0595413239      -14.3223505852  CLST         679          1.0000000000
      2036       679  TIP3  H1            7.1163407007       -9.2396961686      -14.7774141198  CLST         679          1.0000000000
      2037       679  TIP3  H2            6.2848297333      -10.1560489714      -14.3751157473  CLST         679          1.0000000000
      2038       680  TIP3  OH2           9.9618175866       -8.1875147581       -1.5625633207  CLST         680          1.0000000000
      2039       680  TIP3  H1           10.0513890337       -9.1415944244       -1.8024069566  CLST         680          1.0000000000
      2040       680  TIP3  H2            9.4259369890       -8.1560686848       -2.3691586737  CLST         680          1.0000000000
      2041       681  TIP3  OH2           7.3265718204        9.1718901558       11.2830542665  CLST         681          1.0000000000
      2042       681  TIP3  H1            7.4304848691        8.3273731679       10.8143559709  CLST         681          1.0000000000
      2043       681  TIP3  H2            8.2042223624        9.3585543857       11.0742867885  CLST         681          1.0000000000
      2044       682  TIP3  OH2           7.9089235107       14.2596022931        2.0018086159  CLST         682          1.0000000000
      2045       682  TIP3  H1            7.1118751316       13.8304981989        1.7668497865  CLST         682          1.0000000000
      2046       682  TIP3  H2            7.4250695559       14.8531005608        2.5453574930  CLST         682          1.0000000000
      2047       683  TIP3  OH2           3.5556131241       11.6867378660      -14.9945194475  CLST         683          1.0000000000
      2048       683  TIP3  H1            2.7285400547       11.5571051737      -14.3717794597  CLST         683          1.0000000000
      2049       683  TIP3  H2            3.5023600486       10.9874435268      -14.5836391594  CLST         683          1.0000000000
      2050       684  TIP3  OH2          12.4131344120        2.6219628553      -12.5193473561  CLST         684          1.0000000000
      2051       684  TIP3  H1           11.9839594433        2.6416814750      -11.6860194920  CLST         684          1.0000000000
      2052       684  TIP3  H2           13.1637484029        2.7734408969      -11.6732008057  CLST         684          1.0000000000
      2053       685  TIP3  OH2           4.0031634857       13.3679065745        2.4523840115  CLST         685          1.0000000000
      2054       685  TIP3  H1            3.8182625170       12.4214944303        2.3765513282  CLST         685          1.0000000000
      2055       685  TIP3  H2            3.3115651470       13.4645999749        1.8020923530  CLST         685          1.0000000000
      2056       686  TIP3  OH2          -1.8139028279      -11.8558717066       -5.2997511803  CLST         686          1.0000000000
      2057       686  TIP3  H1           -2.0772961623      -12.2740733840       -4.4203504255  CLST         686          1.0000000000
      2058       686  TIP3  H2           -2.2431621196      -12.6923475643       -5.6717867320  CLST         686          1.0000000000
      2059       687  TIP3  OH2           2.3996473526       10.9038770724       -5.6650584340  CLST         687          1.0000000000
      2060       687  TIP3  H1            2.1235582517       11.2212987075       -4.8259317305  CLST         687          1.0000000000
      2061       687  TIP3  H2            3.2581152123       11.2811810984       -5.3734274976  CLST         687          1.0000000000
      2062       688  TIP3  OH2          -4.6404569190       -1.0334247461      -10.2513091304  CLST         688          1.0000000000
      2063       688  TIP3  H1           -3.6775490473       -0.6058157254       -9.8330113659  CLST         688          1.0000000000
      2064       688  TIP3  H2           -4.1074068158       -0.1006723954      -10.4798061366  CLST         688          1.0000000000
      2065       689  TIP3  OH2         -11.4922691533       -2.6162664037       -7.6176113440  CLST         689          1.0000000000
      2066       689  TIP3  H1          -12.2821898166       -2.4195298483       -7.0587302080  CLST         689          1.0000000000
      2067       689  TIP3  H2          -12.0024747797       -2.3871088982       -8.3881848184  CLST         689          1.0000000000
      2068       690  TIP3  OH2           9.0359367504      -12.3823388398        4.0142733774  CLST         690          1.0000000000
      2069       690  TIP3  H1            9.5805036444      -12.3133944110        4.8260225766  CLST         690          1.0000000000
      2070       690  TIP3  H2            9.5739655503      -11.7092353140        3.6190081961  CLST         690          1.0000000000
      2071       691  TIP3  OH2          -0.6288873505       10.2116837087       13.6589762358  CLST         691          1.0000000000
      2072       691  TIP3  H1           -0.3597071642       11.0709349021       13.2605875929  CLST         691          1.0000000000
      2073       691  TIP3  H2           -0.1749587446       10.5805753349       14.4425169769  CLST         691          1.0000000000
      2074       692  TIP3  OH2           1.4137104614       -6.5206864216        8.6423021166  CLST         692          1.0000000000
      2075       692  TIP3  H1            0.4401156386       -6.5639064219        8.8007920563  CLST         692          1.0000000000
      2076       692  TIP3  H2            1.2350915062       -5.5577765699        8.5903345396  CLST         692          1.0000000000
      2077       693  TIP3  OH2          -9.3071395375       -4.3217419878       -2.8868171413  CLST         693          1.0000000000
      2078       693  TIP3  H1           -8.5302218649       -4.1473045343       -2.3303874991  CLST         693          1.0000000000
      2079       693  TIP3  H2           -8.9831639057       -3.5847170381       -3.4846246920  CLST         693          1.0000000000
      2080       694  TIP3  OH2          -1.9712403604       11.5640366505        5.8043920446  CLST         694          1.0000000000
      2081       694  TIP3  H1           -2.5956299939       12.3209644554        6.0968308840  CLST         694          1.0000000000
      2082       694  TIP3  H2           -1.4279048955       12.3587526238        5.6559808805  CLST         694          1.0000000000
      2083       695  TIP3  OH2           1.6527398657       10.1696243859        8.0350661355  CLST         695          1.0000000000
      2084       695  TIP3  H1            1.4698705755       10.0130675959        7.0969573126  CLST         695          1.0000000000
      2085       695  TIP3  H2            0.8926265475        9.6450407749        8.2267949037  CLST         695          1.0000000000
      2086       696  TIP3  OH2          -4.4047339165        3.0639943373       -6.1656120170  CLST         696          1.0000000000
      2087       696  TIP3  H1           -3.8004191946        3.8288791405       -6.2289235414  CLST         696          1.0000000000
      2088       696  TIP3  H2           -4.7420479569        3.0676812016       -5.3159198307  CLST         696          1.0000000000
      2089       697  TIP3  OH2           2.6532820938        5.6819613393       11.7535899008  CLST         697          1.0000000000
      2090       697  TIP3  H1            2.0151674808        5.4092505638       11.1094870361  CLST         697          1.0000000000
      2091       697  TIP3  H2            3.3966480567        5.4911429118       11.2541500766  CLST         697          1.0000000000
      2092       698  TIP3  OH2          -3.4366434668        4.9052245104       -1.0586144954  CLST         698          1.0000000000
      2093       698  TIP3  H1           -4.2888098745        4.2629078358       -1.6701937148  CLST         698          1.0000000000
      2094       698  TIP3  H2           -4.3111797622        5.1588912546       -1.2203350570  CLST         698          1.0000000000
      2095       699  TIP3  OH2          -1.4176329196       -4.7446661295        3.7423052529  CLST         699          1.0000000000
      2096       699  TIP3  H1           -2.2375333738       -4.2600029080        3.6324159092  CLST         699          1.0000000000
      2097       699  TIP3  H2           -1.0209912450       -4.2888302991        3.0161104043  CLST         699          1.0000000000
      2098       700  TIP3  OH2          -4.9843304614       -8.2521101262        8.8452450517  CLST         700          1.0000000000
      2099       700  TIP3  H1           -5.1398294243       -7.9563338552        7.9291856881  CLST         700          1.0000000000
      2100       700  TIP3  H2           -4.4468416159       -9.0240880629        8.5962980313  CLST         700          1.0000000000
      2101       701  TIP3  OH2         -14.1076813672       10.3611902370        0.1120747996  CLST         701          1.0000000000
      2102       701  TIP3  H1          -13.7416661823        9.6125417506       -0.4187476631  CLST         701          1.0000000000
      2103       701  TIP3  H2          -14.9763260380       10.1588598686       -0.2527164791  CLST         701          1.0000000000
      2104       702  TIP3  OH2          -5.5478358268       -9.6521377155      -12.6688741058  CLST         702          1.0000000000
      2105       702  TIP3  H1           -5.6161986474      -10.0016464128      -11.7432435707  CLST         702          1.0000000000
      2106       702  TIP3  H2           -6.4666669764       -9.3954865178      -12.5762558948  CLST         702          1.0000000000
      2107       703  TIP3  OH2           3.4013202371        6.0505795110       -3.9778681436  CLST         703          1.0000000000
      2108       703  TIP3  H1            2.5924655184        5.5230217590       -3.9976551509  CLST         703          1.0000000000
      2109       703  TIP3  H2            3.0892867169        6.9471208235       -3.7160813684  CLST         703          1.0000000000
      2110       704  TIP3  OH2         -10.4173338845        5.0176992117       11.8359488472  CLST         704          1.0000000000
      2111       704  TIP3  H1          -10.3400472233        5.8794417204       12.2711008272  CLST         704          1.0000000000
      2112       704  TIP3  H2          -10.3079984122        5.5973961758       11.1072453645  CLST         704          1.0000000000
      2113       705  TIP3  OH2          -0.8364777587       -9.1328193697       -7.0735177518  CLST         705          1.0000000000
      2114       705  TIP3  H1           -0.8502100559       -9.9504129274       -7.5339188353  CLST         705          1.0000000000
      2115       705  TIP3  H2           -0.2428787567       -8.7945793412       -7.7792809942  CLST         705          1.0000000000
      2116       706  TIP3  OH2          -2.1568684910       -1.5822714470        4.5076053067  CLST         706          1.0000000000
      2117       706  TIP3  H1           -1.9054321587       -0.6525563212        4.5877651902  CLST         706          1.0000000000
      2118       706  TIP3  H2           -1.2019472463       -1.6480619470        4.5513869013  CLST         706          1.0000000000
      2119       707  TIP3  OH2           8.8166363823       11.0269575191        7.1890415358  CLST         707          1.0000000000
      2120       707  TIP3  H1            8.4364610616       11.4631777353        6.2029306054  CLST         707          1.0000000000
      2121       707  TIP3  H2            7.9729917962       10.4780016844        6.9423804634  CLST         707          1.0000000000
      2122       708  TIP3  OH2          -0.9236541154       -7.6340244950      -12.2622787968  CLST         708          1.0000000000
      2123       708  TIP3  H1           -1.8690382988       -7.7450842346      -12.2878675572  CLST         708          1.0000000000
      2124       708  TIP3  H2           -0.9411740501       -7.5135104421      -13.1950639557  CLST         708          1.0000000000
      2125       709  TIP3  OH2          -6.5449895665       14.2104208932        0.5591472506  CLST         709          1.0000000000
      2126       709  TIP3  H1           -5.5832279075       14.1979014848        0.8226466900  CLST         709          1.0000000000
      2127       709  TIP3  H2           -6.7179940391       14.4156488222        1.4576834701  CLST         709          1.0000000000
      2128       710  TIP3  OH2          -0.7504454640       14.2375269434      -10.7104534265  CLST         710          1.0000000000
      2129       710  TIP3  H1           -0.6004553012       13.7126119497      -11.4840751175  CLST         710          1.0000000000
      2130       710  TIP3  H2           -1.4090952796       13.5276924022      -10.6339620445  CLST         710          1.0000000000
      2131       711  TIP3  OH2          11.2230608796      -11.2620965483      -11.0466300200  CLST         711          1.0000000000
      2132       711  TIP3  H1           11.3728500486      -12.1207135617      -11.4718656485  CLST         711          1.0000000000
      2133       711  TIP3  H2           10.4970699810      -11.3449677296      -11.6610324005  CLST         711          1.0000000000
      2134       712  TIP3  OH2          -3.4665867040      -10.7962774307       11.6981609587  CLST         712          1.0000000000
      2135       712  TIP3  H1           -3.8378619051      -10.2697045782       10.9684342313  CLST         712          1.0000000000
      2136       712  TIP3  H2           -2.6588590289      -10.6697722722       11.2090514533  CLST         712          1.0000000000
      2137       713  TIP3  OH2           7.2860901591        0.2437227253        6.4698955039  CLST         713          1.0000000000
      2138       713  TIP3  H1            7.5092563655        0.1642175631        7.3961198167  CLST         713          1.0000000000
      2139       713  TIP3  H2            7.6092134510       -0.6250424474        6.4245245280  CLST         713          1.0000000000
      2140       714  TIP3  OH2           5.0691656087       12.3760455448        4.6395093474  CLST         714          1.0000000000
      2141       714  TIP3  H1            4.7471904215       13.0624618743        4.0041521705  CLST         714          1.0000000000
      2142       714  TIP3  H2            4.1615752060       12.7101175937        4.9531217599  CLST         714          1.0000000000
      2143       715  TIP3  OH2          -9.1576452214       -9.4620413385        1.8570251020  CLST         715          1.0000000000
      2144       715  TIP3  H1           -9.6175326485       -8.6741521366        2.1394725470  CLST         715          1.0000000000
      2145       715  TIP3  H2           -9.7777556577      -10.0040032691        2.3211625138  CLST         715          1.0000000000
      2146       716  TIP3  OH2         -13.8154812819      -13.2782905231        0.0223577205  CLST         716          1.0000000000
      2147       716  TIP3  H1          -13.8525494610      -13.8357795533       -0.7618819036  CLST         716          1.0000000000
      2148       716  TIP3  H2          -13.5100643109      -12.5619347613       -0.5591311277  CLST         716          1.0000000000
      2149       717  TIP3  OH2          -6.2703220223      -12.2365382488        2.3457100282  CLST         717          1.0000000000
      2150       717  TIP3  H1           -6.2692591957      -11.3740782509        1.8658359721  CLST         717          1.0000000000
      2151       717  TIP3  H2           -7.1062544784      -12.3535038747        2.0065169362  CLST         717          1.0000000000
      2152       718  TIP3  OH2         -10.7613604479        7.3674039805       13.1801262909  CLST         718          1.0000000000
      2153       718  TIP3  H1          -11.4192135949        8.0449969132       13.4980431808  CLST         718          1.0000000000
      2154       718  TIP3  H2          -10.0355009529        8.0212513768       13.1832842588  CLST         718          1.0000000000
      2155       719  TIP3  OH2          10.5515788834       -7.2451209886        2.9523681524  CLST         719          1.0000000000
      2156       719  TIP3  H1           11.5208577705       -7.3577101531        3.2114715547  CLST         719          1.0000000000
      2157       719  TIP3  H2           10.8729956698       -7.1288400869        2.0265827074  CLST         719          1.0000000000
      2158       720  TIP3  OH2          -4.8704870276       13.0692543421       -8.5467061705  CLST         720          1.0000000000
      2159       720  TIP3  H1           -3.9253126137       13.0884003867       -8.4812532625  CLST         720          1.0000000000
      2160       720  TIP3  H2           -5.0185205797       13.5379777547       -7.6856669481  CLST         720          1.0000000000
      2161       721  TIP3  OH2           4.2280982645       -5.9987430017      -10.1435748744  CLST         721          1.0000000000
      2162       721  TIP3  H1            4.7722649409       -6.0336392392       -9.0969736326  CLST         721          1.0000000000
      2163       721  TIP3  H2            5.3241769951       -6.2932172185       -9.9360738214  CLST         721          1.0000000000
      2164       722  TIP3  OH2          10.0117108795       -2.6841847039        2.0710071017  CLST         722          1.0000000000
      2165       722  TIP3  H1            9.4730751262       -3.2754969624        1.6024328858  CLST         722          1.0000000000
      2166       722  TIP3  H2           10.7987852755       -2.8010317762        1.5405778208  CLST         722          1.0000000000
      2167       723  TIP3  OH2           0.4294186769       12.9975242065        6.0005210257  CLST         723          1.0000000000
      2168       723  TIP3  H1            0.6674516044       13.8971349351        5.5945127300  CLST         723          1.0000000000
      2169       723  TIP3  H2            1.3326768456       12.6373733703        6.0799421427  CLST         723          1.0000000000
      2170       724  TIP3  OH2           8.3463116459       -8.2489967294       -3.7697422326  CLST         724          1.0000000000
      2171       724  TIP3  H1            8.2244938251       -8.7556749733       -4.8284919675  CLST         724          1.0000000000
      2172       724  TIP3  H2            8.4106632760       -7.8186223905       -4.7393795783  CLST         724          1.0000000000
      2173       725  TIP3  OH2          -0.9377833462       -0.0547971046        2.0227338900  CLST         725          1.0000000000
      2174       725  TIP3  H1           -1.8863559817        0.0679912524        2.1474382963  CLST         725          1.0000000000
      2175       725  TIP3  H2           -0.9526998562        0.6623760966        1.4008420795  CLST         725          1.0000000000
      2176       726  TIP3  OH2         -14.1291019892       10.6799908991        5.8592188226  CLST         726          1.0000000000
      2177       726  TIP3  H1          -14.9945194475       10.9266716372        5.5110318133  CLST         726          1.0000000000
      2178       726  TIP3  H2          -13.7866514981       11.5772304124        5.4647139191  CLST         726          1.0000000000
      2179       727  TIP3  OH2          -4.1263540945      -13.4521839129       -0.1702235875  CLST         727          1.0000000000
      2180       727  TIP3  H1           -3.2266163460      -12.7369247312        0.0261759888  CLST         727          1.0000000000
      2181       727  TIP3  H2           -3.7587891852      -13.4041231257        0.5783860970  CLST         727          1.0000000000
      2182       728  TIP3  OH2          -8.0882854168        3.3519656759       -0.5791038379  CLST         728          1.0000000000
      2183       728  TIP3  H1           -7.6557827442        2.4800147735       -0.4137799144  CLST         728          1.0000000000
      2184       728  TIP3  H2           -8.8775239249        2.6938148965       -0.4073728565  CLST         728          1.0000000000
      2185       729  TIP3  OH2          10.5129274898      -10.4821964699        2.7876011580  CLST         729          1.0000000000
      2186       729  TIP3  H1           11.0928780851       -9.8315620086        3.1861043785  CLST         729          1.0000000000
      2187       729  TIP3  H2           11.3285932126      -11.0728638144        2.8374345574  CLST         729          1.0000000000
      2188       730  TIP3  OH2          -4.4049690508       10.9755400387       -5.0142783761  CLST         730          1.0000000000
      2189       730  TIP3  H1           -4.1581944053       10.1890325137       -5.5472648692  CLST         730          1.0000000000
      2190       730  TIP3  H2           -5.2941381214       11.0721529165       -5.4665637744  CLST         730          1.0000000000
      2191       731  TIP3  OH2          13.0362254707       12.4853731841       -4.3801542249  CLST         731          1.0000000000
      2192       731  TIP3  H1           13.3374993800       12.7837800889       -5.2092726215  CLST         731          1.0000000000
      2193       731  TIP3  H2           12.4043388097       11.8929062132       -4.8129658713  CLST         731          1.0000000000
      2194       732  TIP3  OH2          -2.7782439572       -1.0852889761       -2.0846578589  CLST         732          1.0000000000
      2195       732  TIP3  H1           -3.4820065072       -1.1957557012       -1.2798214664  CLST         732          1.0000000000
      2196       732  TIP3  H2           -3.7462507849       -0.5693558398       -2.0328711830  CLST         732          1.0000000000
      2197       733  TIP3  OH2           5.5220379715        2.3788163836       12.5843344053  CLST         733          1.0000000000
      2198       733  TIP3  H1            5.3517201852        1.5668102368       12.0607404737  CLST         733          1.0000000000
      2199       733  TIP3  H2            4.7771764557        2.3252229041       13.1794963043  CLST         733          1.0000000000
      2200       734  TIP3  OH2           8.3369815147       -2.4724706629        5.8779711600  CLST         734          1.0000000000
      2201       734  TIP3  H1            8.1631120178       -3.1124634757        5.1403916065  CLST         734          1.0000000000
      2202       734  TIP3  H2            9.2955149314       -2.5350824300        5.6186411347  CLST         734          1.0000000000
      2203       735  TIP3  OH2         -10.6337876650      -12.6072763744        1.0164200494  CLST         735          1.0000000000
      2204       735  TIP3  H1          -10.8117919079      -12.0720118570        1.8390145073  CLST         735          1.0000000000
      2205       735  TIP3  H2          -11.5700590736      -12.7352582900        0.8638440080  CLST         735          1.0000000000
      2206       736  TIP3  OH2          13.4229410097        2.6130625096        2.7554961739  CLST         736          1.0000000000
      2207       736  TIP3  H1           13.8393173319        2.6891953465        1.8543358878  CLST         736          1.0000000000
      2208       736  TIP3  H2           12.7120069959        2.1395968742        2.2837568132  CLST         736          1.0000000000
      2209       737  TIP3  OH2          11.5079170199       -1.9904433320        8.0171294063  CLST         737          1.0000000000
      2210       737  TIP3  H1           11.1667093731       -2.2158524641        7.1549730860  CLST         737          1.0000000000
      2211       737  TIP3  H2           11.6343471144       -1.0713596731        7.7143318743  CLST         737          1.0000000000
      2212       738  TIP3  OH2          10.3166019549        0.8981004082       14.1007560611  CLST         738          1.0000000000
      2213       738  TIP3  H1            9.3821515305        0.7982997310       14.1741454252  CLST         738          1.0000000000
      2214       738  TIP3  H2           10.4051811032        0.0730609663       14.5029278520  CLST         738          1.0000000000
      2215       739  TIP3  OH2         -13.0452672944        1.3627744481       10.4484827218  CLST         739          1.0000000000
      2216       739  TIP3  H1          -13.9665579069        1.6189794447       10.7251444339  CLST         739          1.0000000000
      2217       739  TIP3  H2          -13.6392762548        0.8617196007        9.7997192860  CLST         739          1.0000000000
      2218       740  TIP3  OH2           6.0246506952      -14.0861803491       -5.3652680256  CLST         740          1.0000000000
      2219       740  TIP3  H1            5.6105247852      -14.9130790579       -6.0198119093  CLST         740          1.0000000000
      2220       740  TIP3  H2            6.5392006418      -14.7035146914       -5.8315925378  CLST         740          1.0000000000
      2221       741  TIP3  OH2          11.6077162694        5.0861540730        9.3941368434  CLST         741          1.0000000000
      2222       741  TIP3  H1           12.1423037583        4.5922350643        9.9876061540  CLST         741          1.0000000000
      2223       741  TIP3  H2           11.5654034939        4.2927967309        8.8602900564  CLST         741          1.0000000000
      2224       742  TIP3  OH2           8.3092947771       -9.7360961910       -6.3647694968  CLST         742          1.0000000000
      2225       742  TIP3  H1            8.4996009066      -10.6531743738       -6.4842191868  CLST         742          1.0000000000
      2226       742  TIP3  H2            7.5881354639       -9.7995326162       -6.9341187962  CLST         742          1.0000000000
      2227       743  TIP3  OH2          -7.1619679708       -0.3076415689      -10.6964109298  CLST         743          1.0000000000
      2228       743  TIP3  H1           -6.6270945223        0.1700459731       -9.9895901823  CLST         743          1.0000000000
      2229       743  TIP3  H2           -6.3571419985       -0.8334418730      -10.6525553765  CLST         743          1.0000000000
      2230       744  TIP3  OH2          -5.9204769511        3.6033954555        5.1179788945  CLST         744          1.0000000000
      2231       744  TIP3  H1           -5.2479564823        3.2107597007        5.7041218237  CLST         744          1.0000000000
      2232       744  TIP3  H2           -5.8367790308        4.4218001514        5.6297699384  CLST         744          1.0000000000
      2233       745  TIP3  OH2           0.1925591373       -8.2798830467        6.6437361225  CLST         745          1.0000000000
      2234       745  TIP3  H1            0.5774951986       -8.9798280847        6.1576846245  CLST         745          1.0000000000
      2235       745  TIP3  H2            0.5414912081       -8.5300942229        7.4484043825  CLST         745          1.0000000000
      2236       746  TIP3  OH2          -7.6028556110       -4.1975712720       -5.9477550930  CLST         746          1.0000000000
      2237       746  TIP3  H1           -7.8987899020       -5.0341155544       -6.4122676926  CLST         746          1.0000000000
      2238       746  TIP3  H2           -7.9340906819       -3.6603353477       -6.6745673807  CLST         746          1.0000000000
      2239       747  TIP3  OH2          11.3277804797       11.7154320629        1.9382619182  CLST         747          1.0000000000
      2240       747  TIP3  H1           11.0252301108       12.2012012073        2.7451018275  CLST         747          1.0000000000
      2241       747  TIP3  H2           11.6923965982       11.1322487973        2.6816334529  CLST         747          1.0000000000
      2242       748  TIP3  OH2           3.3301018468        4.7937226445        8.6874213199  CLST         748          1.0000000000
      2243       748  TIP3  H1            3.9297233312        4.9075307414        9.4097419449  CLST         748          1.0000000000
      2244       748  TIP3  H2            3.3373041793        5.7044469246        8.4605546181  CLST         748          1.0000000000
      2245       749  TIP3  OH2          10.9150107455        9.5506184923        6.5226067503  CLST         749          1.0000000000
      2246       749  TIP3  H1           11.0327262882        8.9591284536        7.2128464231  CLST         749          1.0000000000
      2247       749  TIP3  H2           10.2666057344       10.0488013654        7.0408310872  CLST         749          1.0000000000
      2248       750  TIP3  OH2         -14.0478134530       12.0452870701       -7.8179504085  CLST         750          1.0000000000
      2249       750  TIP3  H1          -14.9945194475       11.8060652652       -7.9256238407  CLST         750          1.0000000000
      2250       750  TIP3  H2          -14.2160681621       11.8207615827       -8.8037882957  CLST         750          1.0000000000
      2251       751  TIP3  OH2           8.5072121215        4.3625462015       -4.2441209942  CLST         751          1.0000000000
      2252       751  TIP3  H1            8.1518129197        3.5451238678       -4.5812986327  CLST         751          1.0000000000
      2253       751  TIP3  H2            9.2626866088        4.1071302776       -3.7242799597  CLST         751          1.0000000000
      2254       752  TIP3  OH2         -12.2160634278       13.1197480491        2.3445153154  CLST         752          1.0000000000
      2255       752  TIP3  H1          -12.6090911831       13.0950111848        1.4535459154  CLST         752          1.0000000000
      2256       752  TIP3  H2          -12.0964587413       12.1826842831        2.3213472701  CLST         752          1.0000000000
      2257       753  TIP3  OH2           9.0212295461        2.5248084016       -7.1088632182  CLST         753          1.0000000000
      2258       753  TIP3  H1            8.5329088387        3.1664012877       -7.6706838064  CLST         753          1.0000000000
      2259       753  TIP3  H2            8.2517001855        2.6854787522       -6.4298615012  CLST         753          1.0000000000
      2260       754  TIP3  OH2          11.6060987259        2.4101124950       -6.3755127376  CLST         754          1.0000000000
      2261       754  TIP3  H1           10.8278885187        2.0024318118       -6.0862788796  CLST         754          1.0000000000
      2262       754  TIP3  H2           10.6407271641        2.9388747344       -6.9556696936  CLST         754          1.0000000000
      2263       755  TIP3  OH2           7.7098500830       -1.4676219501       -0.2959916981  CLST         755          1.0000000000
      2264       755  TIP3  H1            6.8769984758       -2.0064244628       -0.2168331486  CLST         755          1.0000000000
      2265       755  TIP3  H2            7.1772088516       -0.6627342918       -0.4089399967  CLST         755          1.0000000000
      2266       756  TIP3  OH2         -12.7616490628        6.5266560228        5.8755475596  CLST         756          1.0000000000
      2267       756  TIP3  H1          -13.2217983792        6.2981821595        6.7283482127  CLST         756          1.0000000000
      2268       756  TIP3  H2          -12.0633513007        6.4193122135        6.4711559417  CLST         756          1.0000000000
      2269       757  TIP3  OH2          -4.6161295703       -5.0304328073       -2.0039049352  CLST         757          1.0000000000
      2270       757  TIP3  H1           -3.9395339958       -4.8818989314       -2.6776864287  CLST         757          1.0000000000
      2271       757  TIP3  H2           -5.1660845546       -4.5150891089       -2.6428528365  CLST         757          1.0000000000
      2272       758  TIP3  OH2          12.2528597795        4.2536776852       -0.9169602891  CLST         758          1.0000000000
      2273       758  TIP3  H1           12.5539763696        4.7185286487        0.1713799705  CLST         758          1.0000000000
      2274       758  TIP3  H2           12.9008882747        3.9311598625       -0.2737886409  CLST         758          1.0000000000
      2275       759  TIP3  OH2          -7.5593194214       11.3583150635      -11.3316736411  CLST         759          1.0000000000
      2276       759  TIP3  H1           -6.8127211150       11.4982302070      -11.8451119999  CLST         759          1.0000000000
      2277       759  TIP3  H2           -7.1242679805       10.6021746538      -10.9940425568  CLST         759          1.0000000000
      2278       760  TIP3  OH2           7.7855906112       14.5021323058       -6.2391068820  CLST         760          1.0000000000
      2279       760  TIP3  H1            8.4114715668       14.4970729002       -6.9960354887  CLST         760          1.0000000000
      2280       760  TIP3  H2            7.7531319786       13.5430074761       -6.3029297713  CLST         760          1.0000000000
      2281       761  TIP3  OH2          -7.0940711428        8.1011840902      -11.4736933145  CLST         761          1.0000000000
      2282       761  TIP3  H1           -7.7814107637        7.6731306639      -11.9765922894  CLST         761          1.0000000000
      2283       761  TIP3  H2           -7.5013274762        7.8464209908      -10.6948067749  CLST         761          1.0000000000
      2284       762  TIP3  OH2           7.5773344718       -6.0842873522      -13.1809075199  CLST         762          1.0000000000
      2285       762  TIP3  H1            7.1093754471       -6.8195211287      -12.7030297208  CLST         762          1.0000000000
      2286       762  TIP3  H2            7.4892149467       -5.3033694739      -12.7244222747  CLST         762          1.0000000000
      2287       763  TIP3  OH2          -1.2808727184       -6.1229713064        9.0817954628  CLST         763          1.0000000000
      2288       763  TIP3  H1           -1.5637637123       -5.2320318979        8.9389237888  CLST         763          1.0000000000
      2289       763  TIP3  H2           -1.9174663748       -6.1369430672        9.8279181109  CLST         763          1.0000000000
      2290       764  TIP3  OH2           9.0523382522      -11.3420365235        0.6790817599  CLST         764          1.0000000000
      2291       764  TIP3  H1            8.2206160924      -10.8444624767        0.6872265982  CLST         764          1.0000000000
      2292       764  TIP3  H2            9.6325217592      -10.7535542940        1.1504620939  CLST         764          1.0000000000
      2293       765  TIP3  OH2         -14.3163933805      -12.3765108137       13.3821509845  CLST         765          1.0000000000
      2294       765  TIP3  H1          -13.5557197887      -11.8732496931       13.6587273923  CLST         765          1.0000000000
      2295       765  TIP3  H2          -14.9945194475      -12.0538911724       13.8905802014  CLST         765          1.0000000000
      2296       766  TIP3  OH2          11.6706361410       -8.2648496426      -12.0277398217  CLST         766          1.0000000000
      2297       766  TIP3  H1           11.0342142399       -8.0848189477      -12.8068314255  CLST         766          1.0000000000
      2298       766  TIP3  H2           10.9196701191       -8.7913630035      -11.7434829678  CLST         766          1.0000000000
      2299       767  TIP3  OH2           2.2170601688       12.2785076002      -12.6811809494  CLST         767          1.0000000000
      2300       767  TIP3  H1            2.6120687064       12.1056200913      -11.8356871436  CLST         767          1.0000000000
      2301       767  TIP3  H2            2.1446180310       13.2069802065      -12.5537910634  CLST         767          1.0000000000
      2302       768  TIP3  OH2           7.7564796779        7.1671561190        8.3028944690  CLST         768          1.0000000000
      2303       768  TIP3  H1            8.7314735235        7.2393975150        8.5184015532  CLST         768          1.0000000000
      2304       768  TIP3  H2            7.9215793503        6.2437238371        8.5586562365  CLST         768          1.0000000000
      2305       769  TIP3  OH2         -11.7030353774        3.3808686693        1.0308877066  CLST         769          1.0000000000
      2306       769  TIP3  H1          -11.1479228217        2.9857727453        1.7277261932  CLST         769          1.0000000000
      2307       769  TIP3  H2          -12.2899832371        3.5303191853        1.7794076378  CLST         769          1.0000000000
      2308       770  TIP3  OH2          10.2510948696       -4.5562968985       11.3572914111  CLST         770          1.0000000000
      2309       770  TIP3  H1            9.9661548756       -3.9696481992       10.6842439116  CLST         770          1.0000000000
      2310       770  TIP3  H2           11.0816235323       -4.3488271650       10.8621357058  CLST         770          1.0000000000
      2311       771  TIP3  OH2         -10.4883596897        1.0698144180       -5.3891158113  CLST         771          1.0000000000
      2312       771  TIP3  H1           -9.5082664773        1.2654080667       -5.4314433990  CLST         771          1.0000000000
      2313       771  TIP3  H2          -10.3214194040        1.4288063818       -4.4829353679  CLST         771          1.0000000000
      2314       772  TIP3  OH2          12.8615844231      -12.4421018723       -6.6234926231  CLST         772          1.0000000000
      2315       772  TIP3  H1           12.8177926656      -11.4926450224       -6.4626518271  CLST         772          1.0000000000
      2316       772  TIP3  H2           12.2212940807      -12.5169019309       -5.9836268340  CLST         772          1.0000000000
      2317       773  TIP3  OH2          11.9041082730       -4.9257282508        3.5700932623  CLST         773          1.0000000000
      2318       773  TIP3  H1           11.5964751979       -4.1156758305        4.0208747823  CLST         773          1.0000000000
      2319       773  TIP3  H2           12.0202944046       -4.6217495481        2.6988908698  CLST         773          1.0000000000
      2320       774  TIP3  OH2          -7.8497564036       -0.4666931657       -5.8170063124  CLST         774          1.0000000000
      2321       774  TIP3  H1           -6.9126747759       -0.6566102129       -5.9286549943  CLST         774          1.0000000000
      2322       774  TIP3  H2           -7.5371929601        0.4299538014       -6.0834109630  CLST         774          1.0000000000
      2323       775  TIP3  OH2           2.8043641876        1.6218371775        5.2418644021  CLST         775          1.0000000000
      2324       775  TIP3  H1            2.5163136468        1.5796997612        6.3780618097  CLST         775          1.0000000000
      2325       775  TIP3  H2            2.5413295227        2.5791200578        5.4123519444  CLST         775          1.0000000000
      2326       776  TIP3  OH2           0.0817636577        9.7061767557        5.7178247573  CLST         776          1.0000000000
      2327       776  TIP3  H1           -0.5255831168       10.4733078933        5.8288251669  CLST         776          1.0000000000
      2328       776  TIP3  H2           -0.7371877247        9.2743443938        6.1324958669  CLST         776          1.0000000000
      2329       777  TIP3  OH2         -13.1636270879      -10.0776203771        0.1861182721  CLST         777          1.0000000000
      2330       777  TIP3  H1          -12.5987375227       -9.3026443661        0.0723180322  CLST         777          1.0000000000
      2331       777  TIP3  H2          -13.1008523493      -10.2355257926        1.1241834093  CLST         777          1.0000000000
      2332       778  TIP3  OH2         -11.8535836650        5.9015518360       -0.7751797387  CLST         778          1.0000000000
      2333       778  TIP3  H1          -11.7112453071        5.3939508154        0.0233652868  CLST         778          1.0000000000
      2334       778  TIP3  H2          -11.8157060562        5.2552891928       -1.4130573250  CLST         778          1.0000000000
      2335       779  TIP3  OH2          -6.0810876829        4.9297785301       -1.7097059916  CLST         779          1.0000000000
      2336       779  TIP3  H1           -6.8313919725        4.5216332233       -1.2109574124  CLST         779          1.0000000000
      2337       779  TIP3  H2           -6.4932796377        5.7531422358       -1.3464003299  CLST         779          1.0000000000
      2338       780  TIP3  OH2           2.5887187418       14.0229137273       -8.5060082986  CLST         780          1.0000000000
      2339       780  TIP3  H1            2.1808627404       14.9409429072       -9.1310112721  CLST         780          1.0000000000
      2340       780  TIP3  H2            2.8195296012       14.0596847871       -9.4904984433  CLST         780          1.0000000000
      2341       781  TIP3  OH2           9.1289815914       -8.8729875387       -9.6674973757  CLST         781          1.0000000000
      2342       781  TIP3  H1           10.0445335077       -8.9545292253       -9.6000240727  CLST         781          1.0000000000
      2343       781  TIP3  H2            9.0849250216       -9.7650457865       -9.4676714213  CLST         781          1.0000000000
      2344       782  TIP3  OH2          -0.0546527952        3.0087139917        4.4694747211  CLST         782          1.0000000000
      2345       782  TIP3  H1           -0.8191246786        2.3659223467        4.7230148732  CLST         782          1.0000000000
      2346       782  TIP3  H2            0.4332464834        2.1957873599        4.7104210040  CLST         782          1.0000000000
      2347       783  TIP3  OH2          -7.3627411761      -12.5639061366      -13.5527874356  CLST         783          1.0000000000
      2348       783  TIP3  H1           -8.1728283154      -12.2433001364      -13.0414092930  CLST         783          1.0000000000
      2349       783  TIP3  H2           -8.0192532834      -12.5030621604      -14.2848734551  CLST         783          1.0000000000
      2350       784  TIP3  OH2          14.6139857843        5.1974913538       -4.1531836884  CLST         784          1.0000000000
      2351       784  TIP3  H1           14.7747717979        5.9297290463       -4.8139968032  CLST         784          1.0000000000
      2352       784  TIP3  H2           13.8377102175        5.6292141424       -3.8338810814  CLST         784          1.0000000000
      2353       785  TIP3  OH2          10.6242688776        7.8664424080        0.7851932184  CLST         785          1.0000000000
      2354       785  TIP3  H1           11.3121907170        8.4037592788        1.1902005437  CLST         785          1.0000000000
      2355       785  TIP3  H2           11.1867880266        8.1457937293       -0.0059930919  CLST         785          1.0000000000
      2356       786  TIP3  OH2          12.3294637643        3.5667795629       12.1953138438  CLST         786          1.0000000000
      2357       786  TIP3  H1           12.7638019893        4.5436391640       12.5468695614  CLST         786          1.0000000000
      2358       786  TIP3  H2           12.0722482213        4.1972619420       13.1164462310  CLST         786          1.0000000000
      2359       787  TIP3  OH2          -8.0792669490        0.4920191591       11.8100858232  CLST         787          1.0000000000
      2360       787  TIP3  H1           -8.8505598706        0.4731845532       11.2184086708  CLST         787          1.0000000000
      2361       787  TIP3  H2           -8.4927994938       -0.3119850969       12.1458284269  CLST         787          1.0000000000
      2362       788  TIP3  OH2           2.5216413551      -13.1313081763       10.9871248297  CLST         788          1.0000000000
      2363       788  TIP3  H1            2.6119668665      -13.1554656457       11.9703481938  CLST         788          1.0000000000
      2364       788  TIP3  H2            2.9202610144      -14.0482467420       11.0747508909  CLST         788          1.0000000000
      2365       789  TIP3  OH2          -7.0522279742        1.0039084581       -3.1861611041  CLST         789          1.0000000000
      2366       789  TIP3  H1           -6.4399711444        0.1488848458       -3.1298095268  CLST         789          1.0000000000
      2367       789  TIP3  H2           -6.2826746890        0.7236556174       -3.9808630066  CLST         789          1.0000000000
      2368       790  TIP3  OH2         -11.4787048823       -9.2234280257        5.5349817370  CLST         790          1.0000000000
      2369       790  TIP3  H1          -12.1207385851       -9.4614772994        6.2949830955  CLST         790          1.0000000000
      2370       790  TIP3  H2          -11.7028071399       -8.1946816419        5.7406074451  CLST         790          1.0000000000
      2371       791  TIP3  OH2          -4.9920887343       -5.8655975464      -10.7884683838  CLST         791          1.0000000000
      2372       791  TIP3  H1           -4.2426305466       -6.4675100312      -11.0653304323  CLST         791          1.0000000000
      2373       791  TIP3  H2           -4.3869346188       -5.2309151274      -11.1864581689  CLST         791          1.0000000000
      2374       792  TIP3  OH2           7.1034929922       -3.7610918519        9.9153772379  CLST         792          1.0000000000
      2375       792  TIP3  H1            7.6652694464       -4.4920874508        9.6387082947  CLST         792          1.0000000000
      2376       792  TIP3  H2            7.9342863530       -3.3149831276       10.0525256735  CLST         792          1.0000000000
      2377       793  TIP3  OH2          -3.5261602125       13.0884100243       -3.8146015769  CLST         793          1.0000000000
      2378       793  TIP3  H1           -3.7900428996       12.9343244281       -2.8937986016  CLST         793          1.0000000000
      2379       793  TIP3  H2           -3.5424971547       12.1897838172       -4.0888380071  CLST         793          1.0000000000
      2380       794  TIP3  OH2          -0.6365150399        2.6813999005       -6.7690341144  CLST         794          1.0000000000
      2381       794  TIP3  H1           -1.1884320571        2.2337151483       -7.6767269600  CLST         794          1.0000000000
      2382       794  TIP3  H2           -0.7047700256        3.2203066451       -7.5224668496  CLST         794          1.0000000000
      2383       795  TIP3  OH2          -1.9404501229       -9.3148232771        1.2140938401  CLST         795          1.0000000000
      2384       795  TIP3  H1           -2.4829117025      -10.0892484015        0.9248005829  CLST         795          1.0000000000
      2385       795  TIP3  H2           -1.5559599855       -9.9423546414        1.9383234477  CLST         795          1.0000000000
      2386       796  TIP3  OH2           2.7958661011        4.6979478075        4.8586997353  CLST         796          1.0000000000
      2387       796  TIP3  H1            3.0325871721        4.5554294416        4.0892926276  CLST         796          1.0000000000
      2388       796  TIP3  H2            3.8930345824        4.7625049597        4.5190821497  CLST         796          1.0000000000
      2389       797  TIP3  OH2         -11.7587395383        5.3592048391       -3.2363656542  CLST         797          1.0000000000
      2390       797  TIP3  H1          -12.1786040710        6.1532325410       -3.5844598859  CLST         797          1.0000000000
      2391       797  TIP3  H2          -11.3470752612        5.2008262060       -4.0898897997  CLST         797          1.0000000000
      2392       798  TIP3  OH2         -11.1528024756        9.7457790538       10.6844808408  CLST         798          1.0000000000
      2393       798  TIP3  H1          -11.8111586019       10.3580555937       10.3238656015  CLST         798          1.0000000000
      2394       798  TIP3  H2          -11.1964440373       10.2754588051       11.4901977201  CLST         798          1.0000000000
      2395       799  TIP3  OH2           3.8815228462       -1.6874922579      -12.1642122620  CLST         799          1.0000000000
      2396       799  TIP3  H1            3.8429757816       -0.7419095315      -11.7849976310  CLST         799          1.0000000000
      2397       799  TIP3  H2            4.6588398631       -1.2980009993      -12.6289094093  CLST         799          1.0000000000
      2398       800  TIP3  OH2         -10.2635322177        7.0865232404       10.1563128043  CLST         800          1.0000000000
      2399       800  TIP3  H1          -10.6812139240        7.9763452092       10.3467819906  CLST         800          1.0000000000
      2400       800  TIP3  H2           -9.4599038733        7.5546300453        9.9987684669  CLST         800          1.0000000000
      2401       801  TIP3  OH2           8.0516645912      -11.1254371288      -10.4857904796  CLST         801          1.0000000000
      2402       801  TIP3  H1            7.9107251424      -12.0299586925      -10.4249102294  CLST         801          1.0000000000
      2403       801  TIP3  H2            8.7407883083      -11.2194291547      -11.0854304853  CLST         801          1.0000000000
      2404       802  TIP3  OH2           5.6153189287       -0.0930962181       11.8844343186  CLST         802          1.0000000000
      2405       802  TIP3  H1            5.0714826124        0.0552741391       11.0168785741  CLST         802          1.0000000000
      2406       802  TIP3  H2            6.0897834363       -0.6412603136       11.2085301103  CLST         802          1.0000000000
      2407       803  TIP3  OH2           6.6205258657       -9.6366690947        0.3065420433  CLST         803          1.0000000000
      2408       803  TIP3  H1            6.1989330987      -10.5407667659        0.1990529480  CLST         803          1.0000000000
      2409       803  TIP3  H2            5.9281267240       -9.5476269535        1.0253899513  CLST         803          1.0000000000
      2410       804  TIP3  OH2           5.0698929668        6.2425049403        2.0859930461  CLST         804          1.0000000000
      2411       804  TIP3  H1            4.8471374857        5.3539559903        2.1610024765  CLST         804          1.0000000000
      2412       804  TIP3  H2            5.8345460319        5.4149193390        2.0861970335  CLST         804          1.0000000000
      2413       805  TIP3  OH2           7.7301272628       -4.2855469577       14.1267943660  CLST         805          1.0000000000
      2414       805  TIP3  H1            8.2194879953       -4.5743942712       13.3931528659  CLST         805          1.0000000000
      2415       805  TIP3  H2            8.5212813286       -4.4877296608       14.5983089491  CLST         805          1.0000000000
      2416       806  TIP3  OH2           8.7416222929        9.7565600666       13.6425424006  CLST         806          1.0000000000
      2417       806  TIP3  H1            7.8610087346        9.2870707093       13.4589002648  CLST         806          1.0000000000
      2418       806  TIP3  H2            8.4740537763       10.3511771098       12.8674560600  CLST         806          1.0000000000
      2419       807  TIP3  OH2          -4.0563372642        8.1496271055        1.2666059714  CLST         807          1.0000000000
      2420       807  TIP3  H1           -3.9812342874        9.1113340096        1.5198807648  CLST         807          1.0000000000
      2421       807  TIP3  H2           -3.9398996731        8.0098061048        2.2131209058  CLST         807          1.0000000000
      2422       808  TIP3  OH2          -3.8433262228       14.1534100425        1.3144228825  CLST         808          1.0000000000
      2423       808  TIP3  H1           -3.2534057643       14.7499770741        1.8767652505  CLST         808          1.0000000000
      2424       808  TIP3  H2           -2.9482764943       13.9463412243        1.0456763657  CLST         808          1.0000000000
      2425       809  TIP3  OH2           1.8212481421       12.6056863591        9.6097617010  CLST         809          1.0000000000
      2426       809  TIP3  H1            1.6754709051       11.7838146635        9.0888007949  CLST         809          1.0000000000
      2427       809  TIP3  H2            0.8911559902       12.7653465326        9.3737085614  CLST         809          1.0000000000
      2428       810  TIP3  OH2          -1.7457012957        8.8593223627        8.6011402572  CLST         810          1.0000000000
      2429       810  TIP3  H1           -0.6619807432        8.8199874345        8.9414178401  CLST         810          1.0000000000
      2430       810  TIP3  H2           -1.3471504378        8.8470998929        9.6533229763  CLST         810          1.0000000000
      2431       811  TIP3  OH2          -3.8029376198      -12.4414208047       -9.1864138476  CLST         811          1.0000000000
      2432       811  TIP3  H1           -3.9667058515      -13.0019090707       -9.8825530128  CLST         811          1.0000000000
      2433       811  TIP3  H2           -4.2653704272      -11.6064961579       -9.3857485574  CLST         811          1.0000000000
      2434       812  TIP3  OH2          10.7273948467        4.1954949842      -13.9411477933  CLST         812          1.0000000000
      2435       812  TIP3  H1           11.0971341626        3.3405167895      -13.6033580944  CLST         812          1.0000000000
      2436       812  TIP3  H2           11.5104235494        4.6811450813      -14.2636474972  CLST         812          1.0000000000
      2437       813  TIP3  OH2          -2.2536842696        0.7421044522      -13.9934049141  CLST         813          1.0000000000
      2438       813  TIP3  H1           -1.9619113932        1.5806852191      -14.4590119256  CLST         813          1.0000000000
      2439       813  TIP3  H2           -3.1879857258        0.8984066817      -13.9932654064  CLST         813          1.0000000000
      2440       814  TIP3  OH2          -7.3508684669        8.1060287384       -8.8404820246  CLST         814          1.0000000000
      2441       814  TIP3  H1           -7.1629277600        9.0298386669       -8.6394171629  CLST         814          1.0000000000
      2442       814  TIP3  H2           -6.4098068537        7.9455494270       -8.7958459497  CLST         814          1.0000000000
      2443       815  TIP3  OH2          -5.2248473229        1.3189803185       -8.5247781392  CLST         815          1.0000000000
      2444       815  TIP3  H1           -4.8164512494        1.8500672687       -7.8110044756  CLST         815          1.0000000000
      2445       815  TIP3  H2           -5.7048536009        1.9735580533       -8.9006764698  CLST         815          1.0000000000
      2446       816  TIP3  OH2          -8.2333572104      -13.6692282817        1.5872372736  CLST         816          1.0000000000
      2447       816  TIP3  H1           -8.6775700525      -14.5050144755        1.5708165123  CLST         816          1.0000000000
      2448       816  TIP3  H2           -9.1000276866      -13.2924961497        1.7679513161  CLST         816          1.0000000000
      2449       817  TIP3  OH2           3.4744102600       14.4178383731       10.6622825120  CLST         817          1.0000000000
      2450       817  TIP3  H1            3.0099489207       13.7429675411       10.2463841689  CLST         817          1.0000000000
      2451       817  TIP3  H2            3.2469334780       14.1809029524       11.5786877275  CLST         817          1.0000000000
      2452       818  TIP3  OH2          11.6547363456       -3.2563576938       -5.8165096222  CLST         818          1.0000000000
      2453       818  TIP3  H1           11.5500160600       -2.4860946904       -5.3019211936  CLST         818          1.0000000000
      2454       818  TIP3  H2           10.6772661544       -3.1499598854       -5.8798828279  CLST         818          1.0000000000
      2455       819  TIP3  OH2           0.2166098581        0.2903007572      -10.5198659410  CLST         819          1.0000000000
      2456       819  TIP3  H1            0.7123501458       -0.6099116732      -10.9551197610  CLST         819          1.0000000000
      2457       819  TIP3  H2            1.1891134203        0.2964963488      -11.0408040595  CLST         819          1.0000000000
      2458       820  TIP3  OH2         -10.9068670465       -7.5243451911       14.3113520448  CLST         820          1.0000000000
      2459       820  TIP3  H1          -11.5580178192       -7.7757792086       14.9945194475  CLST         820          1.0000000000
      2460       820  TIP3  H2          -10.7727192695       -8.4547132357       14.2243437716  CLST         820          1.0000000000
      2461       821  TIP3  OH2          11.5921006824       -1.0622453775       14.9945194475  CLST         821          1.0000000000
      2462       821  TIP3  H1           12.4913164944       -0.5680856061       14.4698551200  CLST         821          1.0000000000
      2463       821  TIP3  H2           12.0122805472       -1.5826256728       14.3230633820  CLST         821          1.0000000000
      2464       822  TIP3  OH2          -7.2372098524       14.1118518661        9.3643380128  CLST         822          1.0000000000
      2465       822  TIP3  H1           -7.0206327203       13.9411668451        8.4065198886  CLST         822          1.0000000000
      2466       822  TIP3  H2           -7.0651680631       13.2710116926        9.6213358124  CLST         822          1.0000000000
      2467       823  TIP3  OH2          -9.2949941065       -1.8847294667        7.4273657618  CLST         823          1.0000000000
      2468       823  TIP3  H1           -9.6494469475       -2.7134576366        7.8063790856  CLST         823          1.0000000000
      2469       823  TIP3  H2           -8.4232406102       -2.0219075274        7.7213327209  CLST         823          1.0000000000
      2470       824  TIP3  OH2          10.9233863172        0.7115603394        6.9905425933  CLST         824          1.0000000000
      2471       824  TIP3  H1           10.2174717967        1.3584986766        6.5225789519  CLST         824          1.0000000000
      2472       824  TIP3  H2           11.0856561694        1.5411781225        6.9789530532  CLST         824          1.0000000000
      2473       825  TIP3  OH2          -4.8255130345      -11.8994672297      -14.0862442170  CLST         825          1.0000000000
      2474       825  TIP3  H1           -5.7487673324      -12.1779644197      -14.0903209824  CLST         825          1.0000000000
      2475       825  TIP3  H2           -5.1016969653      -11.2924145728      -13.4155542199  CLST         825          1.0000000000
      2476       826  TIP3  OH2           4.3500554631      -14.0537640580        2.0824952090  CLST         826          1.0000000000
      2477       826  TIP3  H1            4.4616409420      -14.9945194475        2.3153537523  CLST         826          1.0000000000
      2478       826  TIP3  H2            5.3227006009      -13.8706717237        2.0056886236  CLST         826          1.0000000000
      2479       827  TIP3  OH2         -10.1241114784        8.6407612228       -6.7848025206  CLST         827          1.0000000000
      2480       827  TIP3  H1           -9.2879284428        8.4099296795       -6.2884873932  CLST         827          1.0000000000
      2481       827  TIP3  H2           -9.9732158258        7.9260185757       -5.8718255690  CLST         827          1.0000000000
      2482       828  TIP3  OH2          -9.8500576525       -7.6297743845       11.3084932447  CLST         828          1.0000000000
      2483       828  TIP3  H1           -9.0188436827       -7.8215236905       11.7588515287  CLST         828          1.0000000000
      2484       828  TIP3  H2           -9.4188984160       -6.7712098457       11.2210070740  CLST         828          1.0000000000
      2485       829  TIP3  OH2           2.9057905716       13.5584975401        5.9467707271  CLST         829          1.0000000000
      2486       829  TIP3  H1            3.7020638088       14.0824165765        6.6164297269  CLST         829          1.0000000000
      2487       829  TIP3  H2            2.9016918457       14.6481643454        6.1842982054  CLST         829          1.0000000000
      2488       830  TIP3  OH2          13.8344601935        2.6228353508        9.0922236042  CLST         830          1.0000000000
      2489       830  TIP3  H1           14.3489448878        3.6139409586        9.6178553664  CLST         830          1.0000000000
      2490       830  TIP3  H2           14.4531566413        3.0897259585        8.7776941429  CLST         830          1.0000000000
      2491       831  TIP3  OH2           3.0213714913        2.1959876492        8.0930941026  CLST         831          1.0000000000
      2492       831  TIP3  H1            3.7858532071        3.0709821622        8.3907725064  CLST         831          1.0000000000
      2493       831  TIP3  H2            2.7663430303        2.9990620091        8.1779543062  CLST         831          1.0000000000
      2494       832  TIP3  OH2         -12.6189367439       -2.3318121003        1.2830973646  CLST         832          1.0000000000
      2495       832  TIP3  H1          -12.9838293733       -1.5347181413        0.9252140575  CLST         832          1.0000000000
      2496       832  TIP3  H2          -13.1017112062       -2.2649373773        2.1135362521  CLST         832          1.0000000000
      2497       833  TIP3  OH2           1.3904006911      -11.8776683755        5.5275329205  CLST         833          1.0000000000
      2498       833  TIP3  H1            1.9503926878      -11.5709243529        6.4812246827  CLST         833          1.0000000000
      2499       833  TIP3  H2            2.3000635604      -11.3058766199        5.6791627923  CLST         833          1.0000000000
      2500       834  TIP3  OH2           3.3727380188       -3.3195714983        4.2155390969  CLST         834          1.0000000000
      2501       834  TIP3  H1            3.0076443763       -2.8583061837        5.0219305376  CLST         834          1.0000000000
      2502       834  TIP3  H2            3.4591414807       -2.3882595238        3.8183189895  CLST         834          1.0000000000
      2503       835  TIP3  OH2           4.2370106170        2.5708054783        0.2124875069  CLST         835          1.0000000000
      2504       835  TIP3  H1            3.7067770687        2.5230354758       -0.8351848113  CLST         835          1.0000000000
      2505       835  TIP3  H2            4.1708604681        1.6957865659       -0.0755882039  CLST         835          1.0000000000
      2506       836  TIP3  OH2           7.2508431641       -5.4290334026       -9.4148568829  CLST         836          1.0000000000
      2507       836  TIP3  H1            6.9991442229       -6.0326765295       -8.6223653441  CLST         836          1.0000000000
      2508       836  TIP3  H2            7.9224523853       -6.1345900587       -9.4991947546  CLST         836          1.0000000000
      2509       837  TIP3  OH2           3.2989474673        5.7602497133       -0.7225748916  CLST         837          1.0000000000
      2510       837  TIP3  H1            2.4287066647        5.7130345765       -1.1536628864  CLST         837          1.0000000000
      2511       837  TIP3  H2            2.7011379422        6.4215825759       -0.1582567929  CLST         837          1.0000000000
      2512       838  TIP3  OH2          -1.7480183264      -13.4691461629      -11.0010316323  CLST         838          1.0000000000
      2513       838  TIP3  H1           -1.4749226397      -14.3806335608      -10.7197828512  CLST         838          1.0000000000
      2514       838  TIP3  H2           -2.6385136194      -13.9081291349      -11.0582686321  CLST         838          1.0000000000
      2515       839  TIP3  OH2           1.5249265570       -7.1715940472       -1.6492444129  CLST         839          1.0000000000
      2516       839  TIP3  H1            1.2208864717       -7.4713696332       -0.7422436420  CLST         839          1.0000000000
      2517       839  TIP3  H2            0.5290173025       -7.0998935399       -1.9417950566  CLST         839          1.0000000000
      2518       840  TIP3  OH2          -7.4354477045       11.9495305961       10.7032838618  CLST         840          1.0000000000
      2519       840  TIP3  H1           -7.4272520760       11.3591500752       11.4496319330  CLST         840          1.0000000000
      2520       840  TIP3  H2           -6.6237936783       11.4636793221       10.5244473354  CLST         840          1.0000000000
      2521       841  TIP3  OH2          -8.6954629626       -7.7920443142       -4.1799618254  CLST         841          1.0000000000
      2522       841  TIP3  H1           -8.3408421430       -7.9723369362       -3.2957687869  CLST         841          1.0000000000
      2523       841  TIP3  H2           -7.7241470200       -7.4909883414       -4.2971400255  CLST         841          1.0000000000
      2524       842  TIP3  OH2          11.7193109590      -14.2057070701        0.4620119949  CLST         842          1.0000000000
      2525       842  TIP3  H1           11.5201803309      -14.8035571636        1.2172971068  CLST         842          1.0000000000
      2526       842  TIP3  H2           10.7642958256      -14.2152069788        0.4758104125  CLST         842          1.0000000000
      2527       843  TIP3  OH2           9.8131670899       13.1846044203        3.5772141764  CLST         843          1.0000000000
      2528       843  TIP3  H1            9.0633859493       12.7196984888        4.0371027701  CLST         843          1.0000000000
      2529       843  TIP3  H2            9.0930986742       13.4120188158        3.0356334219  CLST         843          1.0000000000
      2530       844  TIP3  OH2           1.4492639832      -12.4514320021       -2.1046085883  CLST         844          1.0000000000
      2531       844  TIP3  H1            1.6272684760      -12.5850903151       -1.1496523237  CLST         844          1.0000000000
      2532       844  TIP3  H2            0.5719852382      -12.1789585267       -1.6681375952  CLST         844          1.0000000000
      2533       845  TIP3  OH2         -14.7822349443        4.5087948553       10.3821827122  CLST         845          1.0000000000
      2534       845  TIP3  H1          -14.8159329328        3.9701149262       11.1965978764  CLST         845          1.0000000000
      2535       845  TIP3  H2          -13.8377831287        4.4299641792       11.1700881775  CLST         845          1.0000000000
      2536       846  TIP3  OH2         -10.7692763468       -7.5119634777        2.8743421877  CLST         846          1.0000000000
      2537       846  TIP3  H1          -11.4802989147       -8.1157725699        3.1642877423  CLST         846          1.0000000000
      2538       846  TIP3  H2          -11.4303860451       -6.9010133443        2.5871000418  CLST         846          1.0000000000
      2539       847  TIP3  OH2           4.8463698786        9.7554517287        5.1355886955  CLST         847          1.0000000000
      2540       847  TIP3  H1            4.8388516516       10.7518181144        5.2468938280  CLST         847          1.0000000000
      2541       847  TIP3  H2            5.4291420070        9.8112144431        5.9502744436  CLST         847          1.0000000000
      2542       848  TIP3  OH2          -9.2602938115        5.8175272320      -10.0390760258  CLST         848          1.0000000000
      2543       848  TIP3  H1          -10.2116854699        5.4586825718       -9.9672928522  CLST         848          1.0000000000
      2544       848  TIP3  H2           -9.7946620434        6.6191340719       -9.7755484872  CLST         848          1.0000000000
      2545       849  TIP3  OH2          -1.6025631966        1.9122241710        0.2993564749  CLST         849          1.0000000000
      2546       849  TIP3  H1           -0.7082743730        2.3813762653        0.4329650790  CLST         849          1.0000000000
      2547       849  TIP3  H2           -1.8745656340        1.9719100539       -0.6317737927  CLST         849          1.0000000000
      2548       850  TIP3  OH2           5.4880916184       -6.4130015606        5.8044148476  CLST         850          1.0000000000
      2549       850  TIP3  H1            4.8644511798       -6.4913300835        6.6179293999  CLST         850          1.0000000000
      2550       850  TIP3  H2            5.9534291597       -5.8209899151        6.4584987813  CLST         850          1.0000000000
      2551       851  TIP3  OH2           7.9662663818        6.0607854571        5.5794239653  CLST         851          1.0000000000
      2552       851  TIP3  H1            8.1389681330        6.6273267898        6.3539949638  CLST         851          1.0000000000
      2553       851  TIP3  H2            8.7684595426        6.5403058245        5.3320629724  CLST         851          1.0000000000
      2554       852  TIP3  OH2           9.4625958167        3.9486489184        1.3654921522  CLST         852          1.0000000000
      2555       852  TIP3  H1            8.9422186655        3.9343851781        2.4436268251  CLST         852          1.0000000000
      2556       852  TIP3  H2            8.4682193215        4.4196656475        1.6634748513  CLST         852          1.0000000000
      2557       853  TIP3  OH2           9.0871818037       -5.0188177098       -3.2004322878  CLST         853          1.0000000000
      2558       853  TIP3  H1            8.4467575062       -4.7271755289       -3.7069510203  CLST         853          1.0000000000
      2559       853  TIP3  H2            8.1599794826       -4.7898206711       -2.6320865446  CLST         853          1.0000000000
      2560       854  TIP3  OH2         -10.6171847261       -9.2039580666       -5.7898949056  CLST         854          1.0000000000
      2561       854  TIP3  H1           -9.8567471709       -8.5507352490       -5.6914339219  CLST         854          1.0000000000
      2562       854  TIP3  H2          -10.5402179552       -9.0935901523       -4.7817332747  CLST         854          1.0000000000
      2563       855  TIP3  OH2           2.8852969245       -3.3761321287       -7.0044014523  CLST         855          1.0000000000
      2564       855  TIP3  H1            2.4279287337       -3.2268145165       -6.1506978434  CLST         855          1.0000000000
      2565       855  TIP3  H2            2.9578332981       -2.3884039243       -7.0407156684  CLST         855          1.0000000000
      2566       856  TIP3  OH2           2.9687012619      -12.9365245837        0.0210223651  CLST         856          1.0000000000
      2567       856  TIP3  H1            3.6982532762      -12.2513915874        0.1039424728  CLST         856          1.0000000000
      2568       856  TIP3  H2            3.4325066971      -13.2911792268        0.8511524940  CLST         856          1.0000000000
      2569       857  TIP3  OH2          -3.1990096242       -5.5279090771       10.9857417281  CLST         857          1.0000000000
      2570       857  TIP3  H1           -3.6745540216       -5.6542694751       11.8506814783  CLST         857          1.0000000000
      2571       857  TIP3  H2           -3.0029924315       -4.6010138628       11.2758786700  CLST         857          1.0000000000
      2572       858  TIP3  OH2           6.0722502756      -14.3068014432       12.8969404543  CLST         858          1.0000000000
      2573       858  TIP3  H1            6.5009230162      -14.9945194475       13.3936998625  CLST         858          1.0000000000
      2574       858  TIP3  H2            5.5474976185      -13.8798512390       13.5522822888  CLST         858          1.0000000000
      2575       859  TIP3  OH2          -8.7140708652       -1.5441380099      -12.7412649361  CLST         859          1.0000000000
      2576       859  TIP3  H1           -7.6925567654       -1.9963358636      -12.7542706079  CLST         859          1.0000000000
      2577       859  TIP3  H2           -8.2961431295       -1.3222839501      -12.0441629400  CLST         859          1.0000000000
      2578       860  TIP3  OH2          -9.7308984949       -6.2001438177       -0.9520430468  CLST         860          1.0000000000
      2579       860  TIP3  H1           -9.4839860534       -5.6362640786       -1.7033801808  CLST         860          1.0000000000
      2580       860  TIP3  H2           -8.9510900500       -6.7625052706       -1.2098552896  CLST         860          1.0000000000
      2581       861  TIP3  OH2           4.9235921127      -10.2309238491       -4.4432382991  CLST         861          1.0000000000
      2582       861  TIP3  H1            4.6281616272      -10.7092923235       -3.6334729693  CLST         861          1.0000000000
      2583       861  TIP3  H2            5.2172185169      -11.1922308915       -4.5738783582  CLST         861          1.0000000000
      2584       862  TIP3  OH2         -11.1412561685       -2.7605943450      -12.5206199725  CLST         862          1.0000000000
      2585       862  TIP3  H1          -10.3020681988       -2.3566335439      -12.7523143376  CLST         862          1.0000000000
      2586       862  TIP3  H2          -10.7314493838       -2.5990087947      -11.6459404015  CLST         862          1.0000000000
      2587       863  TIP3  OH2          10.7950989177      -10.7594106222       -8.5203671104  CLST         863          1.0000000000
      2588       863  TIP3  H1           11.6242663901      -10.5283995114       -8.0008784093  CLST         863          1.0000000000
      2589       863  TIP3  H2           11.4200015857      -10.9933555423       -9.1558399876  CLST         863          1.0000000000
      2590       864  TIP3  OH2         -13.6445484547        3.7914213507        2.9222893565  CLST         864          1.0000000000
      2591       864  TIP3  H1          -14.1023609031        3.6608204022        3.7166566155  CLST         864          1.0000000000
      2592       864  TIP3  H2          -13.6671054846        4.6682417338        3.2459918843  CLST         864          1.0000000000
      2593       865  TIP3  OH2          12.4634465900        8.7809056459      -11.3803198096  CLST         865          1.0000000000
      2594       865  TIP3  H1           13.1012515869        8.0044850308      -11.5073273176  CLST         865          1.0000000000
      2595       865  TIP3  H2           12.8122264452        8.7340780643      -10.5261371717  CLST         865          1.0000000000
      2596       866  TIP3  OH2           6.6237487234      -10.0782070920       -8.3585654974  CLST         866          1.0000000000
      2597       866  TIP3  H1            6.2091626580      -10.9552445472       -8.1217556446  CLST         866          1.0000000000
      2598       866  TIP3  H2            7.0531757476      -10.6804875099       -8.9834119532  CLST         866          1.0000000000
      2599       867  TIP3  OH2          -8.1973250708       12.0178698603       -3.0691692497  CLST         867          1.0000000000
      2600       867  TIP3  H1           -9.0182929455       11.9386273126       -2.5456553328  CLST         867          1.0000000000
      2601       867  TIP3  H2           -7.8481556680       12.7677770792       -2.5608527664  CLST         867          1.0000000000
      2602       868  TIP3  OH2          -9.7581492835       13.1297684086       10.0574533957  CLST         868          1.0000000000
      2603       868  TIP3  H1           -8.9709698714       12.7385051743       10.4293889889  CLST         868          1.0000000000
      2604       868  TIP3  H2           -9.2003390938       13.3483167872        9.3425374378  CLST         868          1.0000000000
      2605       869  TIP3  OH2           3.1077413864       -1.5817453927        1.1281018312  CLST         869          1.0000000000
      2606       869  TIP3  H1            2.1057060978       -1.7256844769        1.1917587706  CLST         869          1.0000000000
      2607       869  TIP3  H2            2.8616241363       -0.9019109050        1.7848519581  CLST         869          1.0000000000
      2608       870  TIP3  OH2          -6.8469387151       -3.6017530381      -12.7903784196  CLST         870          1.0000000000
      2609       870  TIP3  H1           -5.9266998225       -3.6973351391      -12.4055713268  CLST         870          1.0000000000
      2610       870  TIP3  H2           -6.5363173120       -4.3238639168      -13.3709614661  CLST         870          1.0000000000
      2611       871  TIP3  OH2          -7.0455529399        2.4619126509       -9.9466482621  CLST         871          1.0000000000
      2612       871  TIP3  H1           -7.2749018018        2.6063729937      -10.8674661575  CLST         871          1.0000000000
      2613       871  TIP3  H2           -7.9559996426        2.3182860451       -9.8577419358  CLST         871          1.0000000000
      2614       872  TIP3  OH2         -13.1654730415       11.3533438488      -10.1508487375  CLST         872          1.0000000000
      2615       872  TIP3  H1          -13.0956282260       11.6562177135      -11.0342340880  CLST         872          1.0000000000
      2616       872  TIP3  H2          -13.1693323104       10.6070524079      -11.1759601409  CLST         872          1.0000000000
      2617       873  TIP3  OH2          12.0704316327       -4.6676142720       -9.9067758441  CLST         873          1.0000000000
      2618       873  TIP3  H1           11.7386320265       -3.7960612867      -10.2099474407  CLST         873          1.0000000000
      2619       873  TIP3  H2           12.4446867759       -4.7411698179      -10.8159696724  CLST         873          1.0000000000
      2620       874  TIP3  OH2          12.7798950272        8.4610180357       -8.7656395801  CLST         874          1.0000000000
      2621       874  TIP3  H1           13.0512852856        7.7389557160       -8.1283691730  CLST         874          1.0000000000
      2622       874  TIP3  H2           11.8457590739        8.2228500031       -8.5170999622  CLST         874          1.0000000000
      2623       875  TIP3  OH2           1.3469270906       -1.3439845907      -12.3557475582  CLST         875          1.0000000000
      2624       875  TIP3  H1            2.0283436191       -2.0218916052      -12.5795017349  CLST         875          1.0000000000
      2625       875  TIP3  H2            0.8397721812       -1.8345644358      -12.9463488587  CLST         875          1.0000000000
      2626       876  TIP3  OH2           9.0281735283        7.0883837686      -11.8336159197  CLST         876          1.0000000000
      2627       876  TIP3  H1            8.7160342238        6.6932039166      -12.6021944682  CLST         876          1.0000000000
      2628       876  TIP3  H2            8.1766077295        7.0441095059      -11.4331146045  CLST         876          1.0000000000
      2629       877  TIP3  OH2          -6.8185219825      -13.3854783753       -5.1194056254  CLST         877          1.0000000000
      2630       877  TIP3  H1           -7.4578209880      -12.9281715699       -4.5627227253  CLST         877          1.0000000000
      2631       877  TIP3  H2           -6.1236473149      -12.6907137818       -5.0955723615  CLST         877          1.0000000000
      2632       878  TIP3  OH2           5.5226145994      -11.2339636784        6.6802815362  CLST         878          1.0000000000
      2633       878  TIP3  H1            5.2382103876      -11.2267979868        5.7629305536  CLST         878          1.0000000000
      2634       878  TIP3  H2            5.2777553739      -10.2954746082        6.6708000213  CLST         878          1.0000000000
      2635       879  TIP3  OH2           2.7552349019        5.3172001399       -7.1551993106  CLST         879          1.0000000000
      2636       879  TIP3  H1            3.5732851265        5.8867552986       -7.4193100040  CLST         879          1.0000000000
      2637       879  TIP3  H2            3.3950822758        5.1860980142       -6.4510891272  CLST         879          1.0000000000
      2638       880  TIP3  OH2          -5.3387697438       -1.6578101947       14.7463533611  CLST         880          1.0000000000
      2639       880  TIP3  H1           -5.9823852069       -2.3902872402       14.8681814333  CLST         880          1.0000000000
      2640       880  TIP3  H2           -6.0941194408       -1.1214299367       14.5258289106  CLST         880          1.0000000000
      2641       881  TIP3  OH2          -0.5851273941       13.2273050980        8.5866728309  CLST         881          1.0000000000
      2642       881  TIP3  H1           -0.2537361918       13.2199340409        7.6418265581  CLST         881          1.0000000000
      2643       881  TIP3  H2           -1.3651752764       12.9922378371        8.1090231356  CLST         881          1.0000000000
      2644       882  TIP3  OH2          11.5104603800       -1.7404508704       -1.2802134376  CLST         882          1.0000000000
      2645       882  TIP3  H1           10.6949718752       -1.1634219005       -1.4150372495  CLST         882          1.0000000000
      2646       882  TIP3  H2           10.9514944102       -2.1866424282       -0.6933065788  CLST         882          1.0000000000
      2647       883  TIP3  OH2           1.8234118755       -9.7820411438       -4.5733409528  CLST         883          1.0000000000
      2648       883  TIP3  H1            2.6677081936       -9.9815280729       -4.1315590327  CLST         883          1.0000000000
      2649       883  TIP3  H2            2.4596945907       -9.7574226161       -5.3639585505  CLST         883          1.0000000000
      2650       884  TIP3  OH2         -14.2935839772       -5.7802979914      -12.7998136964  CLST         884          1.0000000000
      2651       884  TIP3  H1          -13.8083536890       -6.8291754963      -12.9621172453  CLST         884          1.0000000000
      2652       884  TIP3  H2          -14.8255080665       -6.4855049889      -12.4660507686  CLST         884          1.0000000000
      2653       885  TIP3  OH2           0.7052696943       14.6917096091       -0.6745270324  CLST         885          1.0000000000
      2654       885  TIP3  H1           -0.2387366999       14.6116329318       -0.3866287025  CLST         885          1.0000000000
      2655       885  TIP3  H2            0.7294706182       13.8128749062       -0.2369278478  CLST         885          1.0000000000
      2656       886  TIP3  OH2          11.8373340818       10.1866278907        4.3275246570  CLST         886          1.0000000000
      2657       886  TIP3  H1           11.6497233103        9.3668901135        4.8243789750  CLST         886          1.0000000000
      2658       886  TIP3  H2           11.5829369760       10.4945914203        5.1671348567  CLST         886          1.0000000000
      2659       887  TIP3  OH2          -7.3776727757       -8.0845123470       -1.8221978993  CLST         887          1.0000000000
      2660       887  TIP3  H1           -6.8528781441       -8.9217337132       -1.8549478825  CLST         887          1.0000000000
      2661       887  TIP3  H2           -6.4586120087       -7.7378141426       -1.8275621845  CLST         887          1.0000000000
      2662       888  TIP3  OH2         -12.9815649252       -3.0085962385       10.5035882551  CLST         888          1.0000000000
      2663       888  TIP3  H1          -13.1364819069       -2.8931885452       11.5125459709  CLST         888          1.0000000000
      2664       888  TIP3  H2          -12.4866046403       -2.1763012755       10.7795060081  CLST         888          1.0000000000
      2665       889  TIP3  OH2           4.9478335288      -12.7392797592        8.7710287621  CLST         889          1.0000000000
      2666       889  TIP3  H1            5.0202006808      -12.3728951811        7.9139688805  CLST         889          1.0000000000
      2667       889  TIP3  H2            5.1597936828      -11.8319154821        9.0862472624  CLST         889          1.0000000000
      2668       890  TIP3  OH2         -13.2166402860        5.8990530553       -9.7728514472  CLST         890          1.0000000000
      2669       890  TIP3  H1          -12.8350771958        6.3389905536      -10.5402817932  CLST         890          1.0000000000
      2670       890  TIP3  H2          -13.9800864280        6.4310151752       -9.9495171065  CLST         890          1.0000000000
      2671       891  TIP3  OH2         -12.6049808674       -5.7350705203       10.7759991697  CLST         891          1.0000000000
      2672       891  TIP3  H1          -12.9517906504       -4.8209548296       10.5345086285  CLST         891          1.0000000000
      2673       891  TIP3  H2          -12.3713230708       -5.6852721407        9.8560076623  CLST         891          1.0000000000
      2674       892  TIP3  OH2           3.0074185880       13.5628283226       13.4177020455  CLST         892          1.0000000000
      2675       892  TIP3  H1            3.3667435625       14.1513430675       14.0894154288  CLST         892          1.0000000000
      2676       892  TIP3  H2            2.9895668381       13.0389867724       14.2953203219  CLST         892          1.0000000000
      2677       893  TIP3  OH2           0.0611759398        7.2655499883        3.1375090544  CLST         893          1.0000000000
      2678       893  TIP3  H1           -0.5560350826        6.5079775281        3.2486264967  CLST         893          1.0000000000
      2679       893  TIP3  H2           -0.7248043679        7.6473243733        2.6892228893  CLST         893          1.0000000000
      2680       894  TIP3  OH2           9.2375631306       11.2077135955        0.5891796336  CLST         894          1.0000000000
      2681       894  TIP3  H1            9.9352578240       11.5764641586        0.8512534431  CLST         894          1.0000000000
      2682       894  TIP3  H2            8.3052022061       11.4940662228        0.3487127080  CLST         894          1.0000000000
      2683       895  TIP3  OH2          -9.9511355390       10.3273110920      -10.6029150181  CLST         895          1.0000000000
      2684       895  TIP3  H1          -10.2558077421       11.1747927333      -10.2574756761  CLST         895          1.0000000000
      2685       895  TIP3  H2           -9.2340263597       10.8634867813      -10.9136562442  CLST         895          1.0000000000
      2686       896  TIP3  OH2           7.7844547259       -6.8949916705       -0.4834075850  CLST         896          1.0000000000
      2687       896  TIP3  H1            7.3597559835       -6.8228988585       -1.3954910870  CLST         896          1.0000000000
      2688       896  TIP3  H2            8.3842921694       -7.4182000184       -1.0732998972  CLST         896          1.0000000000
      2689       897  TIP3  OH2           9.4019732442       -2.4156893534       -9.1000115550  CLST         897          1.0000000000
      2690       897  TIP3  H1            9.1563170134       -2.8144297099       -8.2748096839  CLST         897          1.0000000000
      2691       897  TIP3  H2            9.5053156138       -1.5679071568       -8.7052221916  CLST         897          1.0000000000
      2692       898  TIP3  OH2          14.0294781632        5.9536922574      -11.9636864874  CLST         898          1.0000000000
      2693       898  TIP3  H1           14.3962739309        5.3112524442      -11.2847282111  CLST         898          1.0000000000
      2694       898  TIP3  H2           13.1794846929        5.8968480894      -11.4387804161  CLST         898          1.0000000000
      2695       899  TIP3  OH2          14.1838270639       -6.4905178127        1.6544626955  CLST         899          1.0000000000
      2696       899  TIP3  H1           14.4770997781       -7.3692276376        1.8149880988  CLST         899          1.0000000000
      2697       899  TIP3  H2           13.6036024359       -6.4405072124        2.4184810266  CLST         899          1.0000000000
      2698       900  TIP3  OH2          -9.8788684212      -10.1111908020        9.9320087109  CLST         900          1.0000000000
      2699       900  TIP3  H1           -9.5187574118       -9.0032712152       10.3775463403  CLST         900          1.0000000000
      2700       900  TIP3  H2           -9.2973280271       -9.4337895698        9.4813908184  CLST         900          1.0000000000
      2701       901  TIP3  OH2          10.1771033220        8.9458704029       -8.5137383256  CLST         901          1.0000000000
      2702       901  TIP3  H1            9.9360277434        9.2188306931       -9.4306808526  CLST         901          1.0000000000
      2703       901  TIP3  H2            9.2788334346        9.2186210212       -8.2935321694  CLST         901          1.0000000000
      2704       902  TIP3  OH2           3.7411474835        0.2406370818        9.8047678999  CLST         902          1.0000000000
      2705       902  TIP3  H1            4.0041937392       -0.2577891117        9.0079449865  CLST         902          1.0000000000
      2706       902  TIP3  H2            3.3420310970        0.9388202745        9.3091227177  CLST         902          1.0000000000
      2707       903  TIP3  OH2          -0.9815429465        0.6053788715       -8.3582683849  CLST         903          1.0000000000
      2708       903  TIP3  H1           -1.0608549665        0.6093347906       -9.3558297643  CLST         903          1.0000000000
      2709       903  TIP3  H2           -0.2304385787        0.0637011202       -8.5996370155  CLST         903          1.0000000000
