* Geometry rescue: EQUI at step 2500
*
        2709  EXT
         1         1  TIP3  OH2           5.5872874920        0.7931994722       -3.6855619532  CLST           1          1.0000000000
         2         1  TIP3  H1            5.1370351651        0.5610057366       -2.8501781738  CLST           1          1.0000000000
         3         1  TIP3  H2            4.8396414488        0.6508083916       -4.3085981611  CLST           1          1.0000000000
         4         2  TIP3  OH2          14.8375559034       -2.3025093138       -1.5773767267  CLST           2          1.0000000000
         5         2  TIP3  H1           14.1032876551       -2.0126856357       -2.1411776329  CLST           2          1.0000000000
         6         2  TIP3  H2           14.4813510948       -3.1226965105       -1.1859697466  CLST           2          1.0000000000
         7         3  TIP3  OH2          -8.7035147098       -6.6417600808       -7.5720069387  CLST           3          1.0000000000
         8         3  TIP3  H1           -9.4746185602       -6.0504990090       -7.7265242526  CLST           3          1.0000000000
         9         3  TIP3  H2           -8.5166762129       -6.8421353890       -8.5177761242  CLST           3          1.0000000000
        10         4  TIP3  OH2          -9.3873491432       -4.0662042231       12.8468122151  CLST           4          1.0000000000
        11         4  TIP3  H1          -10.2784578246       -4.3698784051       13.1617466825  CLST           4          1.0000000000
        12         4  TIP3  H2           -9.2528828619       -4.5469730833       12.0048303052  CLST           4          1.0000000000
        13         5  TIP3  OH2          -3.4091180046      -10.2271814611       14.2268216337  CLST           5          1.0000000000
        14         5  TIP3  H1           -3.6704356392      -10.9396472020       14.8375559034  CLST           5          1.0000000000
        15         5  TIP3  H2           -3.7468859867      -10.5016926569       13.3606611485  CLST           5          1.0000000000
        16         6  TIP3  OH2          -3.4437935780        9.5624681863       13.9770629853  CLST           6          1.0000000000
        17         6  TIP3  H1           -2.6722221282        9.9763830014       13.5603698252  CLST           6          1.0000000000
        18         6  TIP3  H2           -3.0850738383        9.3637869448       14.8375559034  CLST           6          1.0000000000
        19         7  TIP3  OH2          -5.1497583624       -1.3685733626        8.8456260567  CLST           7          1.0000000000
        20         7  TIP3  H1           -4.7481129068       -1.0385316305        8.0088415621  CLST           7          1.0000000000
        21         7  TIP3  H2           -5.7909220187       -1.9975037135        8.4448009132  CLST           7          1.0000000000
        22         8  TIP3  OH2          -7.1703303594       -4.5374658622       -1.0093874074  CLST           8          1.0000000000
        23         8  TIP3  H1           -7.3235170453       -4.5834781213       -0.0331072156  CLST           8          1.0000000000
        24         8  TIP3  H2           -6.4825484640       -5.2179334432       -1.1021745960  CLST           8          1.0000000000
        25         9  TIP3  OH2         -12.9548407216       -5.1959077446        0.1324777007  CLST           9          1.0000000000
        26         9  TIP3  H1          -13.7228271279       -4.9475664004       -0.4358191769  CLST           9          1.0000000000
        27         9  TIP3  H2          -12.7170319975       -4.2805423141        0.4237689571  CLST           9          1.0000000000
        28        10  TIP3  OH2          -4.3958139710        8.1191946948       -8.8363509279  CLST          10          1.0000000000
        29        10  TIP3  H1           -4.6318612131        9.0652485300       -8.8193129319  CLST          10          1.0000000000
        30        10  TIP3  H2           -3.4244308823        8.1215544376       -8.8325358463  CLST          10          1.0000000000
        31        11  TIP3  OH2           5.9652408271       12.7381323475       10.6982647964  CLST          11          1.0000000000
        32        11  TIP3  H1            5.2760166058       13.4000443041       10.9501068029  CLST          11          1.0000000000
        33        11  TIP3  H2            5.4472220540       11.9344266057       10.9484246104  CLST          11          1.0000000000
        34        12  TIP3  OH2         -11.7357868551      -13.1672440259       -3.0780963274  CLST          12          1.0000000000
        35        12  TIP3  H1          -12.5492534664      -12.8534395936       -2.6482256100  CLST          12          1.0000000000
        36        12  TIP3  H2          -12.0284274829      -13.5369696114       -3.9159396795  CLST          12          1.0000000000
        37        13  TIP3  OH2          -0.7227202033      -11.0019791885        3.2002271148  CLST          13          1.0000000000
        38        13  TIP3  H1            0.1831187089      -11.1660313747        2.8333298363  CLST          13          1.0000000000
        39        13  TIP3  H2           -0.5481681433      -11.0965693621        4.1526449329  CLST          13          1.0000000000
        40        14  TIP3  OH2          -1.6725451903        5.3139754483        7.9436055296  CLST          14          1.0000000000
        41        14  TIP3  H1           -1.8215985055        5.1713290704        8.8977801643  CLST          14          1.0000000000
        42        14  TIP3  H2           -0.6988145765        5.2690486414        7.8480275829  CLST          14          1.0000000000
        43        15  TIP3  OH2           1.0622526812       -1.1755286049       -4.7382960972  CLST          15          1.0000000000
        44        15  TIP3  H1            0.3763380295       -0.8370623412       -4.1070062998  CLST          15          1.0000000000
        45        15  TIP3  H2            1.1273138888       -2.0801974578       -4.3438374966  CLST          15          1.0000000000
        46        16  TIP3  OH2          -4.7722850384       -6.1726404555       13.7710536042  CLST          16          1.0000000000
        47        16  TIP3  H1           -4.0742259192       -6.8376261443       13.9262717994  CLST          16          1.0000000000
        48        16  TIP3  H2           -5.3812886057       -6.3836222963       14.5103253441  CLST          16          1.0000000000
        49        17  TIP3  OH2           8.4433078550       -0.4812091050        2.4390841784  CLST          17          1.0000000000
        50        17  TIP3  H1            7.9001983017       -1.1638166491        2.8873479565  CLST          17          1.0000000000
        51        17  TIP3  H2            9.0376114518       -1.0704785302        1.9219070981  CLST          17          1.0000000000
        52        18  TIP3  OH2           2.6354945417       -8.2528274579       -8.6318096711  CLST          18          1.0000000000
        53        18  TIP3  H1            3.1534875260       -7.4223127658       -8.5995160510  CLST          18          1.0000000000
        54        18  TIP3  H2            2.7168034565       -8.4987696780       -7.6811899936  CLST          18          1.0000000000
        55        19  TIP3  OH2           6.9913966397        7.7075268055       14.0392505913  CLST          19          1.0000000000
        56        19  TIP3  H1            7.6002637764        6.9724312937       14.3044577388  CLST          19          1.0000000000
        57        19  TIP3  H2            7.0215078324        8.2752167417       14.8375559034  CLST          19          1.0000000000
        58        20  TIP3  OH2           4.0192497788        9.4890885341        9.0287318453  CLST          20          1.0000000000
        59        20  TIP3  H1            3.2926328450       10.0179642843        8.6011420093  CLST          20          1.0000000000
        60        20  TIP3  H2            3.7459519401        8.6590865976        8.5699209481  CLST          20          1.0000000000
        61        21  TIP3  OH2           0.5825773497       -8.4174794162        1.1372844332  CLST          21          1.0000000000
        62        21  TIP3  H1            0.4773490224       -8.1649763937        2.0889493533  CLST          21          1.0000000000
        63        21  TIP3  H2           -0.3255669541       -8.7815800464        1.0123568616  CLST          21          1.0000000000
        64        22  TIP3  OH2          11.5170255690       -9.5057170541       10.3883245161  CLST          22          1.0000000000
        65        22  TIP3  H1           11.3384802735       -9.0418002168        9.5349608215  CLST          22          1.0000000000
        66        22  TIP3  H2           10.7129864910      -10.0576950221       10.3791571726  CLST          22          1.0000000000
        67        23  TIP3  OH2          12.2008350753      -14.3902740498      -10.9591224961  CLST          23          1.0000000000
        68        23  TIP3  H1           11.7087884215      -14.8375559034      -10.2406447211  CLST          23          1.0000000000
        69        23  TIP3  H2           12.9515831200      -13.9852828297      -10.4668341872  CLST          23          1.0000000000
        70        24  TIP3  OH2          12.9336167694       -7.2985425400       14.5466479803  CLST          24          1.0000000000
        71        24  TIP3  H1           12.7342084185       -7.6464103803       13.6614568579  CLST          24          1.0000000000
        72        24  TIP3  H2           12.0374383415       -7.0592686589       14.8375559034  CLST          24          1.0000000000
        73        25  TIP3  OH2           0.1140095394       -5.6561960700        5.6103648993  CLST          25          1.0000000000
        74        25  TIP3  H1           -0.3246988174       -5.2552531156        4.8170417987  CLST          25          1.0000000000
        75        25  TIP3  H2           -0.0192521138       -6.6076506847        5.3857180003  CLST          25          1.0000000000
        76        26  TIP3  OH2          -5.6785242218       -5.4923249570       -7.9047487078  CLST          26          1.0000000000
        77        26  TIP3  H1           -6.4046654301       -6.0250184634       -8.2739303189  CLST          26          1.0000000000
        78        26  TIP3  H2           -4.9337135067       -5.7214459183       -8.4822941810  CLST          26          1.0000000000
        79        27  TIP3  OH2           4.0797001779       12.2254983695       -0.8699280413  CLST          27          1.0000000000
        80        27  TIP3  H1            4.9318806911       12.0135140034       -0.4126133361  CLST          27          1.0000000000
        81        27  TIP3  H2            4.0277043741       13.2040336316       -0.7384969134  CLST          27          1.0000000000
        82        28  TIP3  OH2          -5.1107073676       -6.3027788605        6.7188849744  CLST          28          1.0000000000
        83        28  TIP3  H1           -4.1186249034       -6.2384549786        6.6903919912  CLST          28          1.0000000000
        84        28  TIP3  H2           -5.2402221721       -6.7298385118        5.8344275340  CLST          28          1.0000000000
        85        29  TIP3  OH2           4.2138673688      -10.1571854651       13.1521898971  CLST          29          1.0000000000
        86        29  TIP3  H1            5.0802076638       -9.7068444807       13.2115946607  CLST          29          1.0000000000
        87        29  TIP3  H2            3.5761187989       -9.4280159450       13.1622944004  CLST          29          1.0000000000
        88        30  TIP3  OH2          -0.9637295570       -3.5373216088       11.9068528965  CLST          30          1.0000000000
        89        30  TIP3  H1           -1.1312117680       -4.2933993693       12.5079968077  CLST          30          1.0000000000
        90        30  TIP3  H2           -0.5502040669       -2.8877499188       12.5191130829  CLST          30          1.0000000000
        91        31  TIP3  OH2          -5.5559259472      -10.1762557340       -9.8052819879  CLST          31          1.0000000000
        92        31  TIP3  H1           -6.5141625822      -10.0232689403       -9.6244437155  CLST          31          1.0000000000
        93        31  TIP3  H2           -5.2239664639       -9.3031941457       -9.5331634467  CLST          31          1.0000000000
        94        32  TIP3  OH2           4.4248041669        6.3851622474       14.8375559034  CLST          32          1.0000000000
        95        32  TIP3  H1            5.0826885141        6.9997740246       14.4561578296  CLST          32          1.0000000000
        96        32  TIP3  H2            3.5948920430        6.5710156244       14.3571549056  CLST          32          1.0000000000
        97        33  TIP3  OH2           1.7243022629       -5.1958409335       12.0031090692  CLST          33          1.0000000000
        98        33  TIP3  H1            1.9734506160       -4.4546615452       12.5913993091  CLST          33          1.0000000000
        99        33  TIP3  H2            1.7954951235       -4.7578026218       11.1238711821  CLST          33          1.0000000000
       100        34  TIP3  OH2         -12.3681984121       -6.7601130138        5.5659140585  CLST          34          1.0000000000
       101        34  TIP3  H1          -12.5175444118       -6.3598397525        4.6683805869  CLST          34          1.0000000000
       102        34  TIP3  H2          -13.2131242028       -7.2327174401        5.6577347740  CLST          34          1.0000000000
       103        35  TIP3  OH2         -12.6855449217        9.3489323872       14.4989325576  CLST          35          1.0000000000
       104        35  TIP3  H1          -12.8859667997        9.9756738301       13.7555739882  CLST          35          1.0000000000
       105        35  TIP3  H2          -13.4394921746        8.7573227652       14.3933042059  CLST          35          1.0000000000
       106        36  TIP3  OH2           6.8056568468       -8.8053762373      -11.8046343033  CLST          36          1.0000000000
       107        36  TIP3  H1            7.4696399957       -8.9445339520      -11.0782504341  CLST          36          1.0000000000
       108        36  TIP3  H2            7.2292085190       -9.4073422630      -12.4541471653  CLST          36          1.0000000000
       109        37  TIP3  OH2          10.4720131852      -11.8404331091        6.4539071004  CLST          37          1.0000000000
       110        37  TIP3  H1            9.7447437900      -11.7026889777        7.0980260551  CLST          37          1.0000000000
       111        37  TIP3  H2           11.1434856965      -12.1705801319        7.0719653473  CLST          37          1.0000000000
       112        38  TIP3  OH2           5.8093348018      -12.1052061074       -0.5520907774  CLST          38          1.0000000000
       113        38  TIP3  H1            6.5749950220      -12.6949602082       -0.4559172840  CLST          38          1.0000000000
       114        38  TIP3  H2            5.2709621880      -12.4903646377       -1.2719999481  CLST          38          1.0000000000
       115        39  TIP3  OH2          13.4728598211        6.4034813216       -6.7119500146  CLST          39          1.0000000000
       116        39  TIP3  H1           13.6693541827        5.4561929988       -6.8958880659  CLST          39          1.0000000000
       117        39  TIP3  H2           12.6442924012        6.3087579343       -6.1903366949  CLST          39          1.0000000000
       118        40  TIP3  OH2          -4.7092415933       14.3673974130       -5.9817406016  CLST          40          1.0000000000
       119        40  TIP3  H1           -5.4594916891       14.8338836237       -5.5985682785  CLST          40          1.0000000000
       120        40  TIP3  H2           -4.4826685425       13.6176601878       -5.4028079418  CLST          40          1.0000000000
       121        41  TIP3  OH2          11.1976729408        5.5097346288      -11.2029077333  CLST          41          1.0000000000
       122        41  TIP3  H1           10.9231383455        4.9072617854      -11.9294580295  CLST          41          1.0000000000
       123        41  TIP3  H2           10.6018158298        6.2670587964      -11.4210645202  CLST          41          1.0000000000
       124        42  TIP3  OH2          -1.3230420257       -6.9494748943       -2.1965398415  CLST          42          1.0000000000
       125        42  TIP3  H1           -1.8922265211       -6.4421618617       -2.8161932980  CLST          42          1.0000000000
       126        42  TIP3  H2           -1.3316716075       -7.8162137685       -2.6749131335  CLST          42          1.0000000000
       127        43  TIP3  OH2           9.7920653022      -11.1443803647       -1.8892489788  CLST          43          1.0000000000
       128        43  TIP3  H1            9.2572643012      -11.1291553210       -1.0597989806  CLST          43          1.0000000000
       129        43  TIP3  H2            9.3018775772      -11.8747487727       -2.3123803152  CLST          43          1.0000000000
       130        44  TIP3  OH2           0.5265403848       -3.1213855316        6.5840755579  CLST          44          1.0000000000
       131        44  TIP3  H1           -0.3468670694       -3.1260103547        7.0484948512  CLST          44          1.0000000000
       132        44  TIP3  H2            0.5391362479       -4.0940192278        6.4019965950  CLST          44          1.0000000000
       133        45  TIP3  OH2           4.8037778315       -6.2383419270        9.2499968911  CLST          45          1.0000000000
       134        45  TIP3  H1            4.7084977777       -5.2691847046        9.1519368316  CLST          45          1.0000000000
       135        45  TIP3  H2            4.9592670503       -6.2700546622       10.2230213795  CLST          45          1.0000000000
       136        46  TIP3  OH2           7.6863151329        4.8646553163       -8.3206163440  CLST          46          1.0000000000
       137        46  TIP3  H1            7.4597110555        5.4054991335       -7.5371101650  CLST          46          1.0000000000
       138        46  TIP3  H2            6.8090619997        4.8219896456       -8.7408154709  CLST          46          1.0000000000
       139        47  TIP3  OH2         -10.8015438252      -11.0547722716        3.2605651934  CLST          47          1.0000000000
       140        47  TIP3  H1          -11.0031295508      -10.4036298959        3.9655578251  CLST          47          1.0000000000
       141        47  TIP3  H2          -10.6506971481      -11.8703041589        3.8008695896  CLST          47          1.0000000000
       142        48  TIP3  OH2         -14.2713623211        9.4686865460        8.7653622740  CLST          48          1.0000000000
       143        48  TIP3  H1          -14.4429412473        9.7525868896        7.8441317785  CLST          48          1.0000000000
       144        48  TIP3  H2          -13.8056558006       10.2485588856        9.1290297907  CLST          48          1.0000000000
       145        49  TIP3  OH2           8.7014025830       -4.3434051422        4.0274683964  CLST          49          1.0000000000
       146        49  TIP3  H1            7.7623045720       -4.4737804224        3.7890241411  CLST          49          1.0000000000
       147        49  TIP3  H2            9.1898381842       -4.3743295343        3.1890486294  CLST          49          1.0000000000
       148        50  TIP3  OH2          11.2987618709        5.7474185652       -5.1573683682  CLST          50          1.0000000000
       149        50  TIP3  H1           11.4836207202        4.8238882772       -4.8686993809  CLST          50          1.0000000000
       150        50  TIP3  H2           10.4716517483        5.8481953338       -4.6412424912  CLST          50          1.0000000000
       151        51  TIP3  OH2          12.8881360664       -1.2696348753      -10.5948716381  CLST          51          1.0000000000
       152        51  TIP3  H1           13.2068100049       -1.9468105525      -11.2363452166  CLST          51          1.0000000000
       153        51  TIP3  H2           12.4009411852       -0.6785655934      -11.2263015843  CLST          51          1.0000000000
       154        52  TIP3  OH2          -1.5136671793       -1.4020189758       10.3240413919  CLST          52          1.0000000000
       155        52  TIP3  H1           -2.2151624821       -0.9952147561       10.8952962084  CLST          52          1.0000000000
       156        52  TIP3  H2           -1.2551687512       -2.1422600680       10.8990318900  CLST          52          1.0000000000
       157        53  TIP3  OH2         -10.9278956311       14.0095664691       -6.9440422721  CLST          53          1.0000000000
       158        53  TIP3  H1          -11.2381656324       14.8375559034       -6.5150906771  CLST          53          1.0000000000
       159        53  TIP3  H2           -9.9827946246       14.2606509918       -7.0240609997  CLST          53          1.0000000000
       160        54  TIP3  OH2         -13.8751898876       -5.5103937568       -8.1164356823  CLST          54          1.0000000000
       161        54  TIP3  H1          -12.8944650225       -5.4899329713       -8.1158992629  CLST          54          1.0000000000
       162        54  TIP3  H2          -14.0512494601       -5.1862354421       -9.0318252009  CLST          54          1.0000000000
       163        55  TIP3  OH2           0.4602081040        9.5737197652      -10.6327488843  CLST          55          1.0000000000
       164        55  TIP3  H1           -0.0169834449       10.1747127753      -11.2567302778  CLST          55          1.0000000000
       165        55  TIP3  H2            0.7047473190       10.2761337803       -9.9742788084  CLST          55          1.0000000000
       166        56  TIP3  OH2          -1.5141929062       -5.1976828973       14.1645777128  CLST          56          1.0000000000
       167        56  TIP3  H1           -2.1875019467       -4.6026296038       14.5833682846  CLST          56          1.0000000000
       168        56  TIP3  H2           -1.9936801706       -6.0530493671       14.2402605798  CLST          56          1.0000000000
       169        57  TIP3  OH2         -10.3961395093       11.4074878493       -1.4853179916  CLST          57          1.0000000000
       170        57  TIP3  H1          -10.4801031329       12.0721957042       -0.7727336068  CLST          57          1.0000000000
       171        57  TIP3  H2          -11.3509002854       11.2573237635       -1.6094839112  CLST          57          1.0000000000
       172        58  TIP3  OH2           9.9352486688        1.4821424022        0.1610498751  CLST          58          1.0000000000
       173        58  TIP3  H1            8.9750036434        1.2649012093        0.2818050300  CLST          58          1.0000000000
       174        58  TIP3  H2            9.8875181454        2.4253499625        0.4471412526  CLST          58          1.0000000000
       175        59  TIP3  OH2         -13.1783921722       13.2713940309        5.1993568770  CLST          59          1.0000000000
       176        59  TIP3  H1          -13.0296935071       13.8974736517        4.4679323401  CLST          59          1.0000000000
       177        59  TIP3  H2          -12.3586554577       12.7473518594        5.1102182707  CLST          59          1.0000000000
       178        60  TIP3  OH2          -3.9990607789        3.0813855875        7.0766403494  CLST          60          1.0000000000
       179        60  TIP3  H1           -3.3329318607        2.4587681840        7.4652207787  CLST          60          1.0000000000
       180        60  TIP3  H2           -3.5187228915        3.9187489670        7.2323047787  CLST          60          1.0000000000
       181        61  TIP3  OH2           0.3494284827       -1.9288900579        0.4833586986  CLST          61          1.0000000000
       182        61  TIP3  H1           -0.0289846844       -1.1382898463        0.9283417382  CLST          61          1.0000000000
       183        61  TIP3  H2           -0.3940171625       -2.5504329082        0.6421503078  CLST          61          1.0000000000
       184        62  TIP3  OH2          -3.8490996669        8.7869572859        4.5027360657  CLST          62          1.0000000000
       185        62  TIP3  H1           -3.3475721279        8.1937741068        5.0986831055  CLST          62          1.0000000000
       186        62  TIP3  H2           -3.1332124083        9.2995899071        4.0690209322  CLST          62          1.0000000000
       187        63  TIP3  OH2          -0.4172840612        7.6893373859       -3.0832373570  CLST          63          1.0000000000
       188        63  TIP3  H1           -0.7752893172        8.4777777431       -3.5727829538  CLST          63          1.0000000000
       189        63  TIP3  H2           -0.8977624846        7.8285935775       -2.2321865991  CLST          63          1.0000000000
       190        64  TIP3  OH2         -13.6094879135        3.3384169334       -3.5384016132  CLST          64          1.0000000000
       191        64  TIP3  H1          -12.9016139170        3.9907222274       -3.3355565439  CLST          64          1.0000000000
       192        64  TIP3  H2          -14.3990811623        3.9129382751       -3.6590528545  CLST          64          1.0000000000
       193        65  TIP3  OH2          -9.3382711622      -12.0586346973      -11.7533316942  CLST          65          1.0000000000
       194        65  TIP3  H1           -9.3772560242      -12.3617266009      -10.8072173641  CLST          65          1.0000000000
       195        65  TIP3  H2          -10.3030059689      -12.0664482341      -11.9320149043  CLST          65          1.0000000000
       196        66  TIP3  OH2          13.0232781281       -7.9453155972        3.7251422626  CLST          66          1.0000000000
       197        66  TIP3  H1           13.3340442750       -8.6213949825        3.0821629120  CLST          66          1.0000000000
       198        66  TIP3  H2           12.5223361035       -8.4935659179        4.3707471752  CLST          66          1.0000000000
       199        67  TIP3  OH2           7.4895097507       -0.7600066267       -6.2775351009  CLST          67          1.0000000000
       200        67  TIP3  H1            8.0558067762       -1.2685895605       -5.6584980269  CLST          67          1.0000000000
       201        67  TIP3  H2            8.1608352612       -0.2167848100       -6.7329570795  CLST          67          1.0000000000
       202        68  TIP3  OH2          -6.9799315064        1.1130748873        0.7857079247  CLST          68          1.0000000000
       203        68  TIP3  H1           -7.6870328128        0.5072313696        1.1202769015  CLST          68          1.0000000000
       204        68  TIP3  H2           -7.0962703236        1.8597699173        1.4223676520  CLST          68          1.0000000000
       205        69  TIP3  OH2         -11.7485935897       -0.6087602346        7.1273801734  CLST          69          1.0000000000
       206        69  TIP3  H1          -10.9223081326       -1.0014256165        7.5006464293  CLST          69          1.0000000000
       207        69  TIP3  H2          -11.6246038606        0.3273681332        7.4086035294  CLST          69          1.0000000000
       208        70  TIP3  OH2          -1.8310408840        7.4020280784       -8.2681263524  CLST          70          1.0000000000
       209        70  TIP3  H1           -0.8586865661        7.2199477373       -8.3360148158  CLST          70          1.0000000000
       210        70  TIP3  H2           -1.7494278299        8.3103240605       -7.8848901366  CLST          70          1.0000000000
       211        71  TIP3  OH2         -13.5576299386       -1.5940934216       -5.5692665169  CLST          71          1.0000000000
       212        71  TIP3  H1          -13.1499269696       -1.3840368852       -4.6884050367  CLST          71          1.0000000000
       213        71  TIP3  H2          -13.5114903815       -0.6992974412       -5.9747872264  CLST          71          1.0000000000
       214        72  TIP3  OH2          11.0994473228       -2.6859463672        5.0621761342  CLST          72          1.0000000000
       215        72  TIP3  H1           10.5757027882       -2.7020382568        4.2197813648  CLST          72          1.0000000000
       216        72  TIP3  H2           11.4784855629       -1.7831775363        4.9199046682  CLST          72          1.0000000000
       217        73  TIP3  OH2          -3.5772589454      -13.5994020692       -6.6440279295  CLST          73          1.0000000000
       218        73  TIP3  H1           -3.7088197941      -13.2581065293       -7.5475729467  CLST          73          1.0000000000
       219        73  TIP3  H2           -3.8583859495      -14.5290283469       -6.7196700270  CLST          73          1.0000000000
       220        74  TIP3  OH2          -4.7549659763       12.4171766106       -1.4305455009  CLST          74          1.0000000000
       221        74  TIP3  H1           -5.2022660845       11.6500590334       -1.8540733056  CLST          74          1.0000000000
       222        74  TIP3  H2           -5.2872611865       13.1339987579       -1.8563425132  CLST          74          1.0000000000
       223        75  TIP3  OH2          -9.6695207038        4.7055913582        5.3001528445  CLST          75          1.0000000000
       224        75  TIP3  H1           -8.7804056738        5.0882356619        5.3950670878  CLST          75          1.0000000000
       225        75  TIP3  H2          -10.0811812582        4.9133780331        6.1683212610  CLST          75          1.0000000000
       226        76  TIP3  OH2           8.3272074095       13.3277149916       -9.1482235690  CLST          76          1.0000000000
       227        76  TIP3  H1            8.5860502241       13.6111096149      -10.0717698519  CLST          76          1.0000000000
       228        76  TIP3  H2            9.2225245438       12.9332855595       -8.9775475190  CLST          76          1.0000000000
       229        77  TIP3  OH2           0.4721767330       -5.2556014972       -5.4262331400  CLST          77          1.0000000000
       230        77  TIP3  H1            0.7666635310       -4.9064013506       -6.2896046253  CLST          77          1.0000000000
       231        77  TIP3  H2           -0.3326104297       -5.7724783304       -5.6494645936  CLST          77          1.0000000000
       232        78  TIP3  OH2          -5.5675412550       -8.2635031674        1.4507804432  CLST          78          1.0000000000
       233        78  TIP3  H1           -5.1308081029       -7.7767881214        0.7234608188  CLST          78          1.0000000000
       234        78  TIP3  H2           -6.0418608962       -8.9919632595        0.9973388764  CLST          78          1.0000000000
       235        79  TIP3  OH2           6.7646333831      -14.3105637768       10.2830821244  CLST          79          1.0000000000
       236        79  TIP3  H1            6.4847821654      -14.6036106097       11.1606176701  CLST          79          1.0000000000
       237        79  TIP3  H2            6.0887435211      -13.7395899888        9.8823407950  CLST          79          1.0000000000
       238        80  TIP3  OH2           6.5434859846       -0.2007882557      -13.1155517570  CLST          80          1.0000000000
       239        80  TIP3  H1            6.1276076012        0.1935217086      -13.9009842917  CLST          80          1.0000000000
       240        80  TIP3  H2            7.4198561202        0.2453677366      -13.1102199259  CLST          80          1.0000000000
       241        81  TIP3  OH2          -7.2967222563        1.1158458912        6.0610749699  CLST          81          1.0000000000
       242        81  TIP3  H1           -8.2246325336        1.4385341083        5.9222200192  CLST          81          1.0000000000
       243        81  TIP3  H2           -6.9229041218        2.0350370967        6.0449033077  CLST          81          1.0000000000
       244        82  TIP3  OH2           2.0590074235       -1.9164999494       10.8650453037  CLST          82          1.0000000000
       245        82  TIP3  H1            2.3624217113       -1.0420072097       10.5375225632  CLST          82          1.0000000000
       246        82  TIP3  H2            2.8418260411       -2.3154185821       11.2886241728  CLST          82          1.0000000000
       247        83  TIP3  OH2          10.2615088343        8.3430618902       -4.9910800776  CLST          83          1.0000000000
       248        83  TIP3  H1           10.5729584035        7.7127275990       -5.6634735595  CLST          83          1.0000000000
       249        83  TIP3  H2           10.7592333509        7.9934671646       -4.2082169448  CLST          83          1.0000000000
       250        84  TIP3  OH2         -13.5431057110        8.0794984857       -1.2407572255  CLST          84          1.0000000000
       251        84  TIP3  H1          -14.1730105834        7.3780736165       -0.9707013084  CLST          84          1.0000000000
       252        84  TIP3  H2          -12.7068086281        7.6852256593       -0.9280076049  CLST          84          1.0000000000
       253        85  TIP3  OH2           2.4932016835       -1.5825416445        7.7216635866  CLST          85          1.0000000000
       254        85  TIP3  H1            2.0284148987       -1.9865912376        6.9565953220  CLST          85          1.0000000000
       255        85  TIP3  H2            3.2273997773       -2.2354851846        7.7303834519  CLST          85          1.0000000000
       256        86  TIP3  OH2           8.0244770021       -9.1918704532        9.8490446456  CLST          86          1.0000000000
       257        86  TIP3  H1            8.3220317179       -8.3302971240       10.2238613099  CLST          86          1.0000000000
       258        86  TIP3  H2            7.3554028330       -9.4634425519       10.4996339196  CLST          86          1.0000000000
       259        87  TIP3  OH2           0.4247395239       -1.2638126019       12.8691814582  CLST          87          1.0000000000
       260        87  TIP3  H1            0.8245594464       -1.4314468131       11.9800083948  CLST          87          1.0000000000
       261        87  TIP3  H2            0.4635893908       -0.2666607228       12.8039870156  CLST          87          1.0000000000
       262        88  TIP3  OH2          14.3869227126      -11.3489541613        8.2684483086  CLST          88          1.0000000000
       263        88  TIP3  H1           13.5302154861      -11.8433017732        8.2829469007  CLST          88          1.0000000000
       264        88  TIP3  H2           14.7312916778      -11.8390879211        9.0341243507  CLST          88          1.0000000000
       265        89  TIP3  OH2           6.7392577563       11.6903394976       -3.9981661370  CLST          89          1.0000000000
       266        89  TIP3  H1            5.9061202313       11.8732817139       -3.5121446935  CLST          89          1.0000000000
       267        89  TIP3  H2            6.9375634889       10.8093604910       -3.5888204366  CLST          89          1.0000000000
       268        90  TIP3  OH2          14.5335360194       -4.6617638421       -0.3413431200  CLST          90          1.0000000000
       269        90  TIP3  H1           14.0688789584       -5.2405485868       -0.9924280078  CLST          90          1.0000000000
       270        90  TIP3  H2           14.5100147053       -5.2474128060        0.4552676030  CLST          90          1.0000000000
       271        91  TIP3  OH2          11.4656871643       10.6942792453       -5.7357771491  CLST          91          1.0000000000
       272        91  TIP3  H1           11.1927671514        9.7517411486       -5.5844605712  CLST          91          1.0000000000
       273        91  TIP3  H2           10.7101672273       11.0851316317       -5.2528256337  CLST          91          1.0000000000
       274        92  TIP3  OH2          -6.2783754364        3.6188475198        8.6172618528  CLST          92          1.0000000000
       275        92  TIP3  H1           -5.9316574114        3.3667288292        7.7365872569  CLST          92          1.0000000000
       276        92  TIP3  H2           -6.3425087118        2.7512113695        9.0738062759  CLST          92          1.0000000000
       277        93  TIP3  OH2           5.2112314486       -6.4137515940       11.9810403798  CLST          93          1.0000000000
       278        93  TIP3  H1            4.9319774287       -5.7104197172       12.6117404861  CLST          93          1.0000000000
       279        93  TIP3  H2            5.9385745260       -6.8041642604       12.4831644836  CLST          93          1.0000000000
       280        94  TIP3  OH2          -6.1497097735       12.1983051873        4.3372221377  CLST          94          1.0000000000
       281        94  TIP3  H1           -6.2275582617       11.9254875679        3.3846548822  CLST          94          1.0000000000
       282        94  TIP3  H2           -6.1115495024       11.2844064539        4.7057788265  CLST          94          1.0000000000
       283        95  TIP3  OH2           6.5990418459       11.2004274618       -0.3658573878  CLST          95          1.0000000000
       284        95  TIP3  H1            6.8519032642       10.6622000288       -1.1640792017  CLST          95          1.0000000000
       285        95  TIP3  H2            6.3843441211       10.4336901027        0.2155419540  CLST          95          1.0000000000
       286        96  TIP3  OH2          14.5572396980       -0.6725617408       12.4265924529  CLST          96          1.0000000000
       287        96  TIP3  H1           14.8375559034       -1.5128240183       12.8480842854  CLST          96          1.0000000000
       288        96  TIP3  H2           13.8705010686       -0.9279622442       11.7905917489  CLST          96          1.0000000000
       289        97  TIP3  OH2          -8.3677131824        9.5502431898       12.9254073415  CLST          97          1.0000000000
       290        97  TIP3  H1           -8.1923661696        9.1179950394       12.0628229187  CLST          97          1.0000000000
       291        97  TIP3  H2           -7.4376332502        9.5384742616       13.2496765769  CLST          97          1.0000000000
       292        98  TIP3  OH2           1.6123645174        4.2108516007       13.9949837105  CLST          98          1.0000000000
       293        98  TIP3  H1            1.9721966898        4.7094208733       13.2330602968  CLST          98          1.0000000000
       294        98  TIP3  H2            2.3307415592        3.5526753029       14.0911556197  CLST          98          1.0000000000
       295        99  TIP3  OH2         -12.6350909527       12.3513209060       -5.5325299029  CLST          99          1.0000000000
       296        99  TIP3  H1          -13.2708298188       12.4283648333       -6.2408295178  CLST          99          1.0000000000
       297        99  TIP3  H2          -12.0141285526       12.9463839718       -6.0201240036  CLST          99          1.0000000000
       298       100  TIP3  OH2           9.2504769396       -3.8597765861       -6.8893840063  CLST         100          1.0000000000
       299       100  TIP3  H1            8.6090740819       -3.7303534859       -6.2053743492  CLST         100          1.0000000000
       300       100  TIP3  H2            9.2449876426       -4.8058586006       -6.9650251036  CLST         100          1.0000000000
       301       101  TIP3  OH2          11.4216464820        2.0650086043      -10.2619718508  CLST         101          1.0000000000
       302       101  TIP3  H1           11.2224801481        2.8641178204       -9.7695958160  CLST         101          1.0000000000
       303       101  TIP3  H2           11.7732935752        1.5824658959       -9.5320466354  CLST         101          1.0000000000
       304       102  TIP3  OH2          -7.1143007781        2.3772493462      -12.8992590136  CLST         102          1.0000000000
       305       102  TIP3  H1           -7.8293995876        1.9093532080      -13.3223487429  CLST         102          1.0000000000
       306       102  TIP3  H2           -7.4823488674        3.2488382442      -12.7688803708  CLST         102          1.0000000000
       307       103  TIP3  OH2          -4.5097139788      -13.9213711029      -11.4179868555  CLST         103          1.0000000000
       308       103  TIP3  H1           -4.6064241619      -14.8375559034      -11.2722004208  CLST         103          1.0000000000
       309       103  TIP3  H2           -5.1767212650      -13.9265618489      -12.1026609363  CLST         103          1.0000000000
       310       104  TIP3  OH2         -11.0275299379      -11.5684825564        7.7986861121  CLST         104          1.0000000000
       311       104  TIP3  H1          -10.4051125843      -11.1864863733        7.1971577116  CLST         104          1.0000000000
       312       104  TIP3  H2          -11.0526473695      -10.9609488402        8.5324044661  CLST         104          1.0000000000
       313       105  TIP3  OH2           4.6238208455       -0.5453043603       14.4185382520  CLST         105          1.0000000000
       314       105  TIP3  H1            3.8286206204       -1.0592403908       14.5532700873  CLST         105          1.0000000000
       315       105  TIP3  H2            4.7274731112       -0.8760742587       13.5219827853  CLST         105          1.0000000000
       316       106  TIP3  OH2          14.0646858157       -1.4285695282        4.9312078984  CLST         106          1.0000000000
       317       106  TIP3  H1           14.5336622129       -0.7208834290        5.3397650159  CLST         106          1.0000000000
       318       106  TIP3  H2           13.3215430032       -0.8767349102        4.6918438512  CLST         106          1.0000000000
       319       107  TIP3  OH2           1.6241086378      -12.4856643828       -7.3564695811  CLST         107          1.0000000000
       320       107  TIP3  H1            0.6845802892      -12.4740090846       -7.2971487823  CLST         107          1.0000000000
       321       107  TIP3  H2            1.8145704054      -12.6400911300       -6.4320759146  CLST         107          1.0000000000
       322       108  TIP3  OH2          -6.8929498348       -3.9163420584       14.2704589971  CLST         108          1.0000000000
       323       108  TIP3  H1           -6.6419844212       -4.7324474417       14.5862660575  CLST         108          1.0000000000
       324       108  TIP3  H2           -7.5895762048       -4.0350319345       13.6202844093  CLST         108          1.0000000000
       325       109  TIP3  OH2          -4.0900878148       -1.0202248490       11.4422119130  CLST         109          1.0000000000
       326       109  TIP3  H1           -4.2086881080       -1.9553952413       11.6661846053  CLST         109          1.0000000000
       327       109  TIP3  H2           -4.4038626986       -1.0607012040       10.5012666529  CLST         109          1.0000000000
       328       110  TIP3  OH2           1.2579794785       -3.4945176655       -3.3310279088  CLST         110          1.0000000000
       329       110  TIP3  H1            1.0957144000       -4.1689602363       -4.0323258644  CLST         110          1.0000000000
       330       110  TIP3  H2            0.4332240756       -3.6214824270       -2.8597405874  CLST         110          1.0000000000
       331       111  TIP3  OH2          -5.0778696819       -1.0479129437       -6.2952040186  CLST         111          1.0000000000
       332       111  TIP3  H1           -4.7864442152       -0.4579701126       -6.9826879267  CLST         111          1.0000000000
       333       111  TIP3  H2           -4.5043743228       -1.8063427099       -6.5632804475  CLST         111          1.0000000000
       334       112  TIP3  OH2           2.2238764337      -12.2250558946       -4.4819499653  CLST         112          1.0000000000
       335       112  TIP3  H1            1.9427776921      -12.4480589046       -3.5927816220  CLST         112          1.0000000000
       336       112  TIP3  H2            1.9352457442      -11.3253036246       -4.4095798916  CLST         112          1.0000000000
       337       113  TIP3  OH2          14.1859255579        6.0199406563       12.5633677981  CLST         113          1.0000000000
       338       113  TIP3  H1           14.3441045299        6.8371372415       12.1217705635  CLST         113          1.0000000000
       339       113  TIP3  H2           14.6341628781        5.5066478266       11.9172308828  CLST         113          1.0000000000
       340       114  TIP3  OH2          -4.8420287463      -11.3724416453       -4.6271854901  CLST         114          1.0000000000
       341       114  TIP3  H1           -4.5544394683      -10.5921745551       -5.1103869597  CLST         114          1.0000000000
       342       114  TIP3  H2           -4.1667430268      -11.9320246413       -5.0117025402  CLST         114          1.0000000000
       343       115  TIP3  OH2           4.6742746546      -13.9624619996       -9.0610679988  CLST         115          1.0000000000
       344       115  TIP3  H1            4.4273368958      -14.6019046147       -9.7361270383  CLST         115          1.0000000000
       345       115  TIP3  H2            4.5163521501      -13.2177659123       -9.6477720245  CLST         115          1.0000000000
       346       116  TIP3  OH2           8.2460596130        5.7012161516      -14.2877834957  CLST         116          1.0000000000
       347       116  TIP3  H1            9.0868145261        5.5006175432      -13.9076430573  CLST         116          1.0000000000
       348       116  TIP3  H2            7.8231123409        4.8571075113      -14.1646562245  CLST         116          1.0000000000
       349       117  TIP3  OH2           0.0940106113        1.4373801145       13.1409108038  CLST         117          1.0000000000
       350       117  TIP3  H1           -0.5750126430        1.6341621868       13.7915726907  CLST         117          1.0000000000
       351       117  TIP3  H2            0.7570494708        2.0636296618       13.4449711335  CLST         117          1.0000000000
       352       118  TIP3  OH2          12.8446909893       -9.6083768943       -6.8570858005  CLST         118          1.0000000000
       353       118  TIP3  H1           12.5702594987       -9.6290569002       -5.9482557930  CLST         118          1.0000000000
       354       118  TIP3  H2           13.1429631100       -8.7143155174       -6.7777310869  CLST         118          1.0000000000
       355       119  TIP3  OH2         -11.8525162362       -1.4511562747        4.4324025392  CLST         119          1.0000000000
       356       119  TIP3  H1          -10.9482857094       -1.1836202301        4.3052404987  CLST         119          1.0000000000
       357       119  TIP3  H2          -11.9639460192       -1.2553359714        5.3977267381  CLST         119          1.0000000000
       358       120  TIP3  OH2         -11.6839285675        4.0858101534       -7.8372934064  CLST         120          1.0000000000
       359       120  TIP3  H1          -11.9888664585        4.5516035690       -8.5875745095  CLST         120          1.0000000000
       360       120  TIP3  H2          -12.5138079600        3.9151358883       -7.3992985257  CLST         120          1.0000000000
       361       121  TIP3  OH2          -5.9108319551       -6.9331020035        4.0138174191  CLST         121          1.0000000000
       362       121  TIP3  H1           -5.6578207468       -7.1957692810        3.0860760084  CLST         121          1.0000000000
       363       121  TIP3  H2           -6.8071208945       -6.7126980961        3.7719785089  CLST         121          1.0000000000
       364       122  TIP3  OH2           9.2819367009       -7.0782720363       -6.6856504671  CLST         122          1.0000000000
       365       122  TIP3  H1            9.1885998858       -8.0148994708       -6.5706571108  CLST         122          1.0000000000
       366       122  TIP3  H2           10.0899236114       -7.1310022411       -7.1820957964  CLST         122          1.0000000000
       367       123  TIP3  OH2          -6.9304974422      -10.4022795664        0.3031193122  CLST         123          1.0000000000
       368       123  TIP3  H1           -6.9649612116      -10.5846028951       -0.6334095395  CLST         123          1.0000000000
       369       123  TIP3  H2           -7.7361356802       -9.9294648477        0.5654350354  CLST         123          1.0000000000
       370       124  TIP3  OH2         -13.0095186831       -2.1085610562       -9.8562225295  CLST         124          1.0000000000
       371       124  TIP3  H1          -13.8045813035       -2.0137651767       -9.3205142831  CLST         124          1.0000000000
       372       124  TIP3  H2          -13.3400768546       -2.8978774871      -10.3377008395  CLST         124          1.0000000000
       373       125  TIP3  OH2           6.6373168179        2.7500356080       -5.2664518731  CLST         125          1.0000000000
       374       125  TIP3  H1            6.3517091500        2.0898626383       -4.6213874320  CLST         125          1.0000000000
       375       125  TIP3  H2            6.0307730929        2.5706333240       -5.9761776714  CLST         125          1.0000000000
       376       126  TIP3  OH2          12.3585780675       -9.7850191117        5.5585231539  CLST         126          1.0000000000
       377       126  TIP3  H1           12.2305415951      -10.4655510389        4.8862088936  CLST         126          1.0000000000
       378       126  TIP3  H2           12.4481499599      -10.3598708314        6.3180579249  CLST         126          1.0000000000
       379       127  TIP3  OH2         -10.4202632958       -5.9133183409       -5.1090554279  CLST         127          1.0000000000
       380       127  TIP3  H1          -10.0372267602       -5.2870319190       -4.5094736961  CLST         127          1.0000000000
       381       127  TIP3  H2           -9.7924516044       -6.5858862318       -4.8221573869  CLST         127          1.0000000000
       382       128  TIP3  OH2          -6.3802180544       -3.5695855551        7.0786006915  CLST         128          1.0000000000
       383       128  TIP3  H1           -5.9055739839       -4.4161538183        7.2152694087  CLST         128          1.0000000000
       384       128  TIP3  H2           -6.3024718662       -3.3241375999        6.1609713054  CLST         128          1.0000000000
       385       129  TIP3  OH2         -11.9431843875      -14.4618552527      -10.7053117416  CLST         129          1.0000000000
       386       129  TIP3  H1          -11.1488687093      -14.0098847840      -10.5090367707  CLST         129          1.0000000000
       387       129  TIP3  H2          -12.5562958958      -14.4281537282      -10.0084113148  CLST         129          1.0000000000
       388       130  TIP3  OH2           8.9197740716       -1.2125269334       14.0100348101  CLST         130          1.0000000000
       389       130  TIP3  H1            9.1648991825       -1.5888034038       14.8375559034  CLST         130          1.0000000000
       390       130  TIP3  H2            8.1026789271       -0.7831710494       14.2305731296  CLST         130          1.0000000000
       391       131  TIP3  OH2          -9.7486182409      -11.1775769000       -1.1668613332  CLST         131          1.0000000000
       392       131  TIP3  H1           -9.1942777021      -11.6235403249       -0.5364794208  CLST         131          1.0000000000
       393       131  TIP3  H2          -10.5385977875      -11.2394263788       -0.6294866438  CLST         131          1.0000000000
       394       132  TIP3  OH2           9.2773161600       -2.4543814786        9.3914576211  CLST         132          1.0000000000
       395       132  TIP3  H1            9.9432086474       -2.3380202268        8.7318572590  CLST         132          1.0000000000
       396       132  TIP3  H2            9.4988024348       -1.7424506216        9.9584441884  CLST         132          1.0000000000
       397       133  TIP3  OH2          -9.5318282281       -7.8706440413        7.6520855021  CLST         133          1.0000000000
       398       133  TIP3  H1           -8.9287266066       -8.5173695490        7.9789756700  CLST         133          1.0000000000
       399       133  TIP3  H2           -8.8788319366       -7.3696202977        7.1582813277  CLST         133          1.0000000000
       400       134  TIP3  OH2          -8.8559759998      -12.3677301209       14.6558545148  CLST         134          1.0000000000
       401       134  TIP3  H1           -9.5060668476      -12.3320368053       13.9646769976  CLST         134          1.0000000000
       402       134  TIP3  H2           -8.8454960836      -11.4493347217       14.8375559034  CLST         134          1.0000000000
       403       135  TIP3  OH2          -8.9697910235       10.9575258345        3.3480812069  CLST         135          1.0000000000
       404       135  TIP3  H1           -9.0863190824       10.4916797461        2.5403902740  CLST         135          1.0000000000
       405       135  TIP3  H2           -8.0316912326       11.0380582521        3.5048243725  CLST         135          1.0000000000
       406       136  TIP3  OH2          -5.1289122412       13.2951583842      -11.6137348945  CLST         136          1.0000000000
       407       136  TIP3  H1           -5.1887102311       13.2010761567      -10.6879804500  CLST         136          1.0000000000
       408       136  TIP3  H2           -5.9036231856       13.8185516583      -11.7642482539  CLST         136          1.0000000000
       409       137  TIP3  OH2          -5.7615387841      -11.1311103126        7.6320186027  CLST         137          1.0000000000
       410       137  TIP3  H1           -5.5062983591      -10.7839468721        6.8071816024  CLST         137          1.0000000000
       411       137  TIP3  H2           -5.0315240336      -11.6651550393        7.8632459008  CLST         137          1.0000000000
       412       138  TIP3  OH2          10.0524870289        8.5081311177       11.1299849002  CLST         138          1.0000000000
       413       138  TIP3  H1           10.0505946243        7.7848176533       11.7681545355  CLST         138          1.0000000000
       414       138  TIP3  H2           10.7219090470        9.0891598736       11.4282326622  CLST         138          1.0000000000
       415       139  TIP3  OH2           2.1140075449        9.7544431180       12.5027588814  CLST         139          1.0000000000
       416       139  TIP3  H1            3.0499215616        9.9187989977       12.3438513842  CLST         139          1.0000000000
       417       139  TIP3  H2            2.1666912003        9.1503533930       13.2304143552  CLST         139          1.0000000000
       418       140  TIP3  OH2          -3.0425228575       -1.4022180312       -7.9599862587  CLST         140          1.0000000000
       419       140  TIP3  H1           -2.5105981702       -0.7013431509       -7.6653188876  CLST         140          1.0000000000
       420       140  TIP3  H2           -2.4803293990       -2.1291366025       -7.8026234299  CLST         140          1.0000000000
       421       141  TIP3  OH2         -13.0079232514        5.4295486086       12.6740261023  CLST         141          1.0000000000
       422       141  TIP3  H1          -12.5544864633        6.2482969886       12.5863942463  CLST         141          1.0000000000
       423       141  TIP3  H2          -12.7417518949        5.1021940276       13.5022427712  CLST         141          1.0000000000
       424       142  TIP3  OH2          14.8105296372       -6.6127784730        5.1828418348  CLST         142          1.0000000000
       425       142  TIP3  H1           13.9111625255       -6.8038531153        4.7940735412  CLST         142          1.0000000000
       426       142  TIP3  H2           14.8375559034       -7.4744637377        5.6258634681  CLST         142          1.0000000000
       427       143  TIP3  OH2           6.5862115423       -6.8833928532        1.9522955103  CLST         143          1.0000000000
       428       143  TIP3  H1            6.9714210059       -6.9131372664        1.0819904829  CLST         143          1.0000000000
       429       143  TIP3  H2            5.6817090673       -7.0301478868        1.6724066678  CLST         143          1.0000000000
       430       144  TIP3  OH2          -1.5162076994      -14.0565438234        7.7596967798  CLST         144          1.0000000000
       431       144  TIP3  H1           -1.3278112174      -13.9770129821        6.8395841143  CLST         144          1.0000000000
       432       144  TIP3  H2           -1.0175345653      -14.7945287631        8.0342047397  CLST         144          1.0000000000
       433       145  TIP3  OH2           1.9447097388        7.1972503212       13.9482258922  CLST         145          1.0000000000
       434       145  TIP3  H1            1.0016480160        7.3015717062       13.8121035592  CLST         145          1.0000000000
       435       145  TIP3  H2            2.0937640044        6.7412395843       13.1374152943  CLST         145          1.0000000000
       436       146  TIP3  OH2          -5.8788251665       10.5750414134       -8.4479437698  CLST         146          1.0000000000
       437       146  TIP3  H1           -5.7176446239       11.5184063699       -8.3353179786  CLST         146          1.0000000000
       438       146  TIP3  H2           -6.8148009967       10.6351670695       -8.3230767797  CLST         146          1.0000000000
       439       147  TIP3  OH2           0.9133617939        2.8910923644       -4.4812086148  CLST         147          1.0000000000
       440       147  TIP3  H1            0.3479392761        3.2120759085       -3.8087116324  CLST         147          1.0000000000
       441       147  TIP3  H2            0.4985664038        3.3132436327       -5.2498069868  CLST         147          1.0000000000
       442       148  TIP3  OH2           7.4308486657        6.5624744519       -3.3895438960  CLST         148          1.0000000000
       443       148  TIP3  H1            7.7943820791        5.7294060693       -3.5827625703  CLST         148          1.0000000000
       444       148  TIP3  H2            6.7554763177        6.3885204507       -2.7946265988  CLST         148          1.0000000000
       445       149  TIP3  OH2          -4.1340273235      -13.2057674481       11.3214792278  CLST         149          1.0000000000
       446       149  TIP3  H1           -3.7439020960      -12.3644710067       11.4483351437  CLST         149          1.0000000000
       447       149  TIP3  H2           -3.5021434513      -13.7653163027       11.6942051580  CLST         149          1.0000000000
       448       150  TIP3  OH2          10.7133616259        1.1838250828       -2.4376053322  CLST         150          1.0000000000
       449       150  TIP3  H1           10.6878905496        1.1833985855       -1.4614036805  CLST         150          1.0000000000
       450       150  TIP3  H2            9.7625938574        0.9702131983       -2.4831280492  CLST         150          1.0000000000
       451       151  TIP3  OH2           3.8015383360      -12.2187023691        3.9514596701  CLST         151          1.0000000000
       452       151  TIP3  H1            3.9350702546      -13.0195958536        3.5081297410  CLST         151          1.0000000000
       453       151  TIP3  H2            3.3002913427      -11.7240773914        3.3019247603  CLST         151          1.0000000000
       454       152  TIP3  OH2           0.5909898106        6.0913686269       -5.9859858385  CLST         152          1.0000000000
       455       152  TIP3  H1            0.6480340292        7.0284739230       -6.0918950241  CLST         152          1.0000000000
       456       152  TIP3  H2            1.3847953228        5.8045471785       -6.3990340567  CLST         152          1.0000000000
       457       153  TIP3  OH2          -1.4844523408       10.0515886294       -7.6872284168  CLST         153          1.0000000000
       458       153  TIP3  H1           -1.7007861606       10.9138772368       -7.3490168218  CLST         153          1.0000000000
       459       153  TIP3  H2           -1.1800068474       10.2323554054       -8.5655542621  CLST         153          1.0000000000
       460       154  TIP3  OH2         -12.0746990031       -7.7531759672       -0.4719360000  CLST         154          1.0000000000
       461       154  TIP3  H1          -12.6613263302       -6.9682095777       -0.3500187843  CLST         154          1.0000000000
       462       154  TIP3  H2          -11.2806740197       -7.2068421973       -0.4529131041  CLST         154          1.0000000000
       463       155  TIP3  OH2          10.5284005490       -5.0963392432       14.4031774251  CLST         155          1.0000000000
       464       155  TIP3  H1           11.0861859589       -4.3810281870       14.6410220509  CLST         155          1.0000000000
       465       155  TIP3  H2           10.6922216299       -5.1152170761       13.4813750503  CLST         155          1.0000000000
       466       156  TIP3  OH2          14.0941269180        2.0771121746        0.0040580744  CLST         156          1.0000000000
       467       156  TIP3  H1           14.6922925456        1.4103504724        0.3363864120  CLST         156          1.0000000000
       468       156  TIP3  H2           13.7746082113        1.5877536766       -0.7452373332  CLST         156          1.0000000000
       469       157  TIP3  OH2           0.2045198373       -5.0471169782       -8.5539551061  CLST         157          1.0000000000
       470       157  TIP3  H1            0.8340917116       -4.3736202024       -8.7822583384  CLST         157          1.0000000000
       471       157  TIP3  H2            0.5178576200       -5.8014933528       -9.0257811899  CLST         157          1.0000000000
       472       158  TIP3  OH2          -6.9107546010       -1.6369372401       -2.1483385910  CLST         158          1.0000000000
       473       158  TIP3  H1           -7.7489161825       -1.7424754668       -2.5751098791  CLST         158          1.0000000000
       474       158  TIP3  H2           -6.5828087913       -2.4424900695       -2.5802839950  CLST         158          1.0000000000
       475       159  TIP3  OH2           8.2269631881      -11.5106086844        8.0168971003  CLST         159          1.0000000000
       476       159  TIP3  H1            7.4370568693      -11.3790692384        7.5006515910  CLST         159          1.0000000000
       477       159  TIP3  H2            8.2842795708      -10.6810051434        8.5221627358  CLST         159          1.0000000000
       478       160  TIP3  OH2           4.5797532903       -9.2422539996        2.0082085326  CLST         160          1.0000000000
       479       160  TIP3  H1            4.2319726878       -8.8612430295        2.8176735015  CLST         160          1.0000000000
       480       160  TIP3  H2            5.1062285177       -9.8503528536        2.5070433639  CLST         160          1.0000000000
       481       161  TIP3  OH2           3.7646341634       -7.0515291725       -2.9437402548  CLST         161          1.0000000000
       482       161  TIP3  H1            4.4939576676       -7.5055202459       -2.5487219896  CLST         161          1.0000000000
       483       161  TIP3  H2            3.0185745065       -7.2595235616       -2.3772854470  CLST         161          1.0000000000
       484       162  TIP3  OH2           6.6151188868      -10.6044218203        3.0478998301  CLST         162          1.0000000000
       485       162  TIP3  H1            6.9976742432      -11.4591291988        3.0632389881  CLST         162          1.0000000000
       486       162  TIP3  H2            7.3775473275      -10.0587516246        3.0893698660  CLST         162          1.0000000000
       487       163  TIP3  OH2         -13.3757338317        0.2088473480        2.8420371062  CLST         163          1.0000000000
       488       163  TIP3  H1          -13.4406439628        1.0515677747        3.2645107040  CLST         163          1.0000000000
       489       163  TIP3  H2          -13.0982603043       -0.2867857072        3.6111721298  CLST         163          1.0000000000
       490       164  TIP3  OH2           8.4562046878        3.0319107766       10.1005753480  CLST         164          1.0000000000
       491       164  TIP3  H1            8.6980971023        3.7776693596        9.5695134589  CLST         164          1.0000000000
       492       164  TIP3  H2            9.3113212081        2.6422262355       10.1945233377  CLST         164          1.0000000000
       493       165  TIP3  OH2          14.1918322711        3.7254477048        5.0545620730  CLST         165          1.0000000000
       494       165  TIP3  H1           13.4489346377        4.3424899362        5.0068335283  CLST         165          1.0000000000
       495       165  TIP3  H2           13.8088469150        3.1505608118        4.4192577521  CLST         165          1.0000000000
       496       166  TIP3  OH2          -6.4543732955      -12.8071978737        5.1157287276  CLST         166          1.0000000000
       497       166  TIP3  H1           -6.7391550295      -12.2264438708        4.4330766506  CLST         166          1.0000000000
       498       166  TIP3  H2           -6.4482915460      -12.2572781688        5.8529960099  CLST         166          1.0000000000
       499       167  TIP3  OH2           0.0323163494       -7.7352140621       -9.3833879571  CLST         167          1.0000000000
       500       167  TIP3  H1            0.0673310690       -7.8418911410      -10.3086214477  CLST         167          1.0000000000
       501       167  TIP3  H2            0.9227973258       -7.7601671554       -9.0124636305  CLST         167          1.0000000000
       502       168  TIP3  OH2          -2.6463222844       -2.5469486567        1.5993594471  CLST         168          1.0000000000
       503       168  TIP3  H1           -3.2684330455       -3.1273895608        2.0572007872  CLST         168          1.0000000000
       504       168  TIP3  H2           -2.6140508663       -3.1007940633        0.8443630671  CLST         168          1.0000000000
       505       169  TIP3  OH2           0.8255874900       12.0887275964       12.8014190653  CLST         169          1.0000000000
       506       169  TIP3  H1            1.4383095824       11.3779487620       12.7346364116  CLST         169          1.0000000000
       507       169  TIP3  H2            1.4108025346       12.6893444491       13.2112852881  CLST         169          1.0000000000
       508       170  TIP3  OH2         -14.2961233050      -12.3775306255        4.9179680645  CLST         170          1.0000000000
       509       170  TIP3  H1          -13.5872122855      -12.5291769662        5.5397757612  CLST         170          1.0000000000
       510       170  TIP3  H2          -14.8375559034      -11.7434373216        5.3174674921  CLST         170          1.0000000000
       511       171  TIP3  OH2          -9.6797680231        2.5427600183        2.5468384318  CLST         171          1.0000000000
       512       171  TIP3  H1           -8.7689899110        2.7747568196        2.6801037050  CLST         171          1.0000000000
       513       171  TIP3  H2           -9.7696850916        2.1170832513        3.4083399721  CLST         171          1.0000000000
       514       172  TIP3  OH2          13.9271071874       -7.0590824471      -11.7202498572  CLST         172          1.0000000000
       515       172  TIP3  H1           13.8399367010       -7.2301368142      -10.8001603713  CLST         172          1.0000000000
       516       172  TIP3  H2           13.2392312686       -7.6945082566      -11.9516164963  CLST         172          1.0000000000
       517       173  TIP3  OH2         -12.8592223210       -5.4686678876        2.9026414203  CLST         173          1.0000000000
       518       173  TIP3  H1          -13.3983542879       -4.6741418719        3.0123712794  CLST         173          1.0000000000
       519       173  TIP3  H2          -12.8606017399       -5.5109730776        1.9219190456  CLST         173          1.0000000000
       520       174  TIP3  OH2           5.5979390887      -14.1398483440        5.8595688227  CLST         174          1.0000000000
       521       174  TIP3  H1            5.2456779396      -14.4873408292        6.6762944354  CLST         174          1.0000000000
       522       174  TIP3  H2            4.8670786419      -13.9464948086        5.3425003204  CLST         174          1.0000000000
       523       175  TIP3  OH2           4.2846164272       -3.6355277410        7.6665265857  CLST         175          1.0000000000
       524       175  TIP3  H1            3.6314720584       -4.2336396594        7.2793438912  CLST         175          1.0000000000
       525       175  TIP3  H2            4.9852980679       -3.7713144204        7.0394513992  CLST         175          1.0000000000
       526       176  TIP3  OH2           8.3682237506        2.7288642623      -10.8344321377  CLST         176          1.0000000000
       527       176  TIP3  H1            8.2713455963        2.1681418280      -10.1020932652  CLST         176          1.0000000000
       528       176  TIP3  H2            9.0207291333        2.2305913059      -11.3071976395  CLST         176          1.0000000000
       529       177  TIP3  OH2          -4.2135650423       10.8640661903        7.1400247721  CLST         177          1.0000000000
       530       177  TIP3  H1           -3.4486118979       10.8849274414        6.5547107409  CLST         177          1.0000000000
       531       177  TIP3  H2           -4.6068852746       10.0425476776        6.8576397561  CLST         177          1.0000000000
       532       178  TIP3  OH2           4.0927619163       -6.5274231614        0.7866011830  CLST         178          1.0000000000
       533       178  TIP3  H1            3.5427100308       -5.8579499520        0.3901021143  CLST         178          1.0000000000
       534       178  TIP3  H2            4.0079014925       -7.2815146781        0.2395835476  CLST         178          1.0000000000
       535       179  TIP3  OH2           2.7445112403       -9.9710154746        0.1991339936  CLST         179          1.0000000000
       536       179  TIP3  H1            1.9314686958       -9.7282201702        0.6898222093  CLST         179          1.0000000000
       537       179  TIP3  H2            3.3152835495       -9.5961052895        0.8479720081  CLST         179          1.0000000000
       538       180  TIP3  OH2          -1.8411479464       -3.5824500592        8.2457495360  CLST         180          1.0000000000
       539       180  TIP3  H1           -1.8089622482       -3.0168298950        9.0345478005  CLST         180          1.0000000000
       540       180  TIP3  H2           -2.5778554300       -3.1493364239        7.7683485515  CLST         180          1.0000000000
       541       181  TIP3  OH2         -12.0440079178        0.0810455524      -11.2823588768  CLST         181          1.0000000000
       542       181  TIP3  H1          -11.1228071799        0.2177287406      -11.0976765442  CLST         181          1.0000000000
       543       181  TIP3  H2          -12.1104934622       -0.7664952830      -10.8293671011  CLST         181          1.0000000000
       544       182  TIP3  OH2         -10.4242392858      -12.8104163877        5.2741497639  CLST         182          1.0000000000
       545       182  TIP3  H1          -10.9743805258      -12.9774886569        6.0033488352  CLST         182          1.0000000000
       546       182  TIP3  H2           -9.6976197642      -12.4477377766        5.7455568812  CLST         182          1.0000000000
       547       183  TIP3  OH2          11.6930519791        5.6305124983        4.4942081191  CLST         183          1.0000000000
       548       183  TIP3  H1           11.7435218969        5.5214296737        3.5600995195  CLST         183          1.0000000000
       549       183  TIP3  H2           11.0761577213        6.3478455523        4.5819703020  CLST         183          1.0000000000
       550       184  TIP3  OH2          -0.2229965270       -0.7909804046        7.9485707630  CLST         184          1.0000000000
       551       184  TIP3  H1            0.5070142177       -1.3751942215        7.7128515650  CLST         184          1.0000000000
       552       184  TIP3  H2           -0.6657858737       -1.2598285819        8.6676309619  CLST         184          1.0000000000
       553       185  TIP3  OH2           9.2750469011       12.8711062700       -3.7634256675  CLST         185          1.0000000000
       554       185  TIP3  H1            8.3414006450       12.5470351405       -3.6958713113  CLST         185          1.0000000000
       555       185  TIP3  H2            9.2093819907       13.2968766580       -4.5972380973  CLST         185          1.0000000000
       556       186  TIP3  OH2          11.7100580792       -0.1739038092        4.1892807053  CLST         186          1.0000000000
       557       186  TIP3  H1           11.8662932798       -0.1618768077        3.2303994633  CLST         186          1.0000000000
       558       186  TIP3  H2           10.9991586335        0.4606554132        4.0403173716  CLST         186          1.0000000000
       559       187  TIP3  OH2         -10.0233363103       -7.5696430113      -11.3638893383  CLST         187          1.0000000000
       560       187  TIP3  H1          -10.4067532723       -7.2437316766      -10.5437536689  CLST         187          1.0000000000
       561       187  TIP3  H2           -9.9104356929       -6.7541691901      -11.8261404070  CLST         187          1.0000000000
       562       188  TIP3  OH2         -14.8375559034       -0.6105979521        0.9986764306  CLST         188          1.0000000000
       563       188  TIP3  H1          -14.3247538363       -0.5321068132        1.7677152097  CLST         188          1.0000000000
       564       188  TIP3  H2          -14.2905097986       -1.1097823660        0.4030349697  CLST         188          1.0000000000
       565       189  TIP3  OH2          14.0278418681        0.4272268143       14.3772448518  CLST         189          1.0000000000
       566       189  TIP3  H1           14.8375559034        0.2825132947       14.8375559034  CLST         189          1.0000000000
       567       189  TIP3  H2           14.4803719323        0.2801537785       13.5492555279  CLST         189          1.0000000000
       568       190  TIP3  OH2           0.3735449639       -7.7819690883        3.9710747103  CLST         190          1.0000000000
       569       190  TIP3  H1            0.9733480175       -8.3494075174        4.4891792566  CLST         190          1.0000000000
       570       190  TIP3  H2            0.9293628712       -7.0172108900        3.8229968138  CLST         190          1.0000000000
       571       191  TIP3  OH2          -0.9009646643       13.9838490807       -4.0148405019  CLST         191          1.0000000000
       572       191  TIP3  H1           -1.7111019940       13.5842656199       -3.6992590030  CLST         191          1.0000000000
       573       191  TIP3  H2           -1.2916179899       14.8375559034       -4.1676793629  CLST         191          1.0000000000
       574       192  TIP3  OH2          -5.1508846053       -0.2126652069       -0.7721196907  CLST         192          1.0000000000
       575       192  TIP3  H1           -5.7519567460       -0.6961841478       -1.2769410391  CLST         192          1.0000000000
       576       192  TIP3  H2           -5.7744242300        0.3158747671       -0.2405484142  CLST         192          1.0000000000
       577       193  TIP3  OH2         -12.9933213889      -13.2208264263        6.9528414651  CLST         193          1.0000000000
       578       193  TIP3  H1          -13.0939158077      -13.9920807635        7.4440525190  CLST         193          1.0000000000
       579       193  TIP3  H2          -12.3958359383      -12.7066459592        7.4562936908  CLST         193          1.0000000000
       580       194  TIP3  OH2          12.7970857931       12.6060947358      -11.1760536423  CLST         194          1.0000000000
       581       194  TIP3  H1           13.1074922147       13.4562778272      -11.4917459200  CLST         194          1.0000000000
       582       194  TIP3  H2           12.9713696106       12.0414048392      -11.8967119900  CLST         194          1.0000000000
       583       195  TIP3  OH2           4.9226726349        2.7048902881        3.5088983232  CLST         195          1.0000000000
       584       195  TIP3  H1            4.2048629135        3.0389284870        3.0112289857  CLST         195          1.0000000000
       585       195  TIP3  H2            5.0575580104        1.9255279012        2.9655956254  CLST         195          1.0000000000
       586       196  TIP3  OH2           7.0920600244        6.4865753450       12.1719096776  CLST         196          1.0000000000
       587       196  TIP3  H1            7.9800183734        6.4483086607       12.5551975790  CLST         196          1.0000000000
       588       196  TIP3  H2            6.7193981522        6.9538895588       12.9230997890  CLST         196          1.0000000000
       589       197  TIP3  OH2          -4.4042707903       -9.3897936078        3.6782996033  CLST         197          1.0000000000
       590       197  TIP3  H1           -4.6845691071       -9.0638839774        2.7956912839  CLST         197          1.0000000000
       591       197  TIP3  H2           -3.8084385691       -8.6827063680        3.8693750325  CLST         197          1.0000000000
       592       198  TIP3  OH2          -4.3728020432       -8.8757266350       -6.0445613406  CLST         198          1.0000000000
       593       198  TIP3  H1           -4.0297391376       -8.5852469348       -6.9125670872  CLST         198          1.0000000000
       594       198  TIP3  H2           -5.2982521882       -8.9150293632       -6.2907772031  CLST         198          1.0000000000
       595       199  TIP3  OH2          11.5096948019        7.6512837797       -2.6420250897  CLST         199          1.0000000000
       596       199  TIP3  H1           11.0526691930        8.3056153821       -2.1243323857  CLST         199          1.0000000000
       597       199  TIP3  H2           12.2920929538        7.5133221910       -2.1741770851  CLST         199          1.0000000000
       598       200  TIP3  OH2          -4.5753700937       -7.4258904005       -1.2189791532  CLST         200          1.0000000000
       599       200  TIP3  H1           -3.7375510914       -7.6642840526       -1.6137297988  CLST         200          1.0000000000
       600       200  TIP3  H2           -4.6153514158       -6.5473866430       -1.5363250756  CLST         200          1.0000000000
       601       201  TIP3  OH2          13.8750824470      -10.4042997875       11.9210146435  CLST         201          1.0000000000
       602       201  TIP3  H1           14.3070407678       -9.8470217809       11.2910128158  CLST         201          1.0000000000
       603       201  TIP3  H2           12.9360494927      -10.2288341343       11.7352856309  CLST         201          1.0000000000
       604       202  TIP3  OH2          -2.8786998913       -9.5312868980        8.0602452411  CLST         202          1.0000000000
       605       202  TIP3  H1           -2.1738457595      -10.1808142898        8.2158327748  CLST         202          1.0000000000
       606       202  TIP3  H2           -3.1483411836       -9.9823292934        7.2834312700  CLST         202          1.0000000000
       607       203  TIP3  OH2          10.4775047291        4.3270897826       13.8398184030  CLST         203          1.0000000000
       608       203  TIP3  H1            9.6414606037        3.9577211750       13.4940829342  CLST         203          1.0000000000
       609       203  TIP3  H2           10.5664179158        3.9700499206       14.7049676300  CLST         203          1.0000000000
       610       204  TIP3  OH2          -5.2237510937        6.0833203165        6.0648891299  CLST         204          1.0000000000
       611       204  TIP3  H1           -5.8386615771        6.7945456925        5.8718519428  CLST         204          1.0000000000
       612       204  TIP3  H2           -4.8024328864        6.6689478515        6.7295036882  CLST         204          1.0000000000
       613       205  TIP3  OH2          -2.2876670467        1.3637019303       -4.8789310494  CLST         205          1.0000000000
       614       205  TIP3  H1           -1.5423303047        1.4439477765       -5.4581129995  CLST         205          1.0000000000
       615       205  TIP3  H2           -2.6541160311        2.1291780725       -5.3260829505  CLST         205          1.0000000000
       616       206  TIP3  OH2          -8.7028203699       -1.1237272598        4.6052750842  CLST         206          1.0000000000
       617       206  TIP3  H1           -9.0176519566       -1.6582478979        5.3239065331  CLST         206          1.0000000000
       618       206  TIP3  H2           -8.3856858468       -0.4018321043        5.1906189345  CLST         206          1.0000000000
       619       207  TIP3  OH2          -7.7180476543        9.6234752750        0.3361614997  CLST         207          1.0000000000
       620       207  TIP3  H1           -7.1547062145        8.8778758748        0.1733466019  CLST         207          1.0000000000
       621       207  TIP3  H2           -8.4312200519        9.1732025016        0.7993156347  CLST         207          1.0000000000
       622       208  TIP3  OH2           9.3647628711       14.3077190081      -11.6462095114  CLST         208          1.0000000000
       623       208  TIP3  H1            9.3930978423       13.7213678034      -12.3746820306  CLST         208          1.0000000000
       624       208  TIP3  H2           10.1548735089       14.8135054941      -11.8145608211  CLST         208          1.0000000000
       625       209  TIP3  OH2          -6.4959911458       -6.3378466705      -14.4257883133  CLST         209          1.0000000000
       626       209  TIP3  H1           -7.4327950943       -6.3364465178      -14.4217432794  CLST         209          1.0000000000
       627       209  TIP3  H2           -6.2838528719       -6.7436627383      -13.6317957693  CLST         209          1.0000000000
       628       210  TIP3  OH2          -2.1850030438        1.2460559236        8.1021102972  CLST         210          1.0000000000
       629       210  TIP3  H1           -1.4259891301        0.6428392062        8.1250268623  CLST         210          1.0000000000
       630       210  TIP3  H2           -2.1875932258        1.3537530392        9.0687042210  CLST         210          1.0000000000
       631       211  TIP3  OH2          -0.6863898321        0.0463514806       -2.8511569731  CLST         211          1.0000000000
       632       211  TIP3  H1           -1.2205501802       -0.6071607089       -2.4416043592  CLST         211          1.0000000000
       633       211  TIP3  H2           -1.2887761445        0.6231300351       -3.3148212642  CLST         211          1.0000000000
       634       212  TIP3  OH2           6.8146050100        3.0279556173        5.6480146248  CLST         212          1.0000000000
       635       212  TIP3  H1            6.7708403968        2.1049778204        5.8912497122  CLST         212          1.0000000000
       636       212  TIP3  H2            5.9819988566        3.1253242523        5.1844959718  CLST         212          1.0000000000
       637       213  TIP3  OH2           1.9778925940       -4.7986170738       -0.3898236329  CLST         213          1.0000000000
       638       213  TIP3  H1            1.8694591852       -4.0572872216       -0.9800662854  CLST         213          1.0000000000
       639       213  TIP3  H2            1.9360523071       -5.5905341408       -0.9192005911  CLST         213          1.0000000000
       640       214  TIP3  OH2           2.1739796223       -7.2294535945      -11.7143344280  CLST         214          1.0000000000
       641       214  TIP3  H1            2.6871313286       -8.0489346049      -11.6684442276  CLST         214          1.0000000000
       642       214  TIP3  H2            2.6887775662       -6.8548015239      -11.0048375981  CLST         214          1.0000000000
       643       215  TIP3  OH2         -12.7252201972        2.7147380683      -10.9840710055  CLST         215          1.0000000000
       644       215  TIP3  H1          -12.1097871561        2.9275993181      -10.3428186677  CLST         215          1.0000000000
       645       215  TIP3  H2          -12.7112735775        1.7632015669      -11.0113200286  CLST         215          1.0000000000
       646       216  TIP3  OH2          11.6252073666       -6.4557947969       -4.5131126836  CLST         216          1.0000000000
       647       216  TIP3  H1           10.9762990913       -7.1120121800       -4.7571111939  CLST         216          1.0000000000
       648       216  TIP3  H2           10.9236610662       -5.8534772989       -4.3804175963  CLST         216          1.0000000000
       649       217  TIP3  OH2          -6.4605693620        9.5051501198        4.1963587478  CLST         217          1.0000000000
       650       217  TIP3  H1           -5.5514422837        9.2039984008        4.3616225776  CLST         217          1.0000000000
       651       217  TIP3  H2           -6.9014807072        8.6943862082        4.0152625147  CLST         217          1.0000000000
       652       218  TIP3  OH2           5.8350889127       -7.4157610633       -8.4267578465  CLST         218          1.0000000000
       653       218  TIP3  H1            5.9747493481       -8.3662224161       -8.4637414938  CLST         218          1.0000000000
       654       218  TIP3  H2            5.8644752705       -7.3600168617       -7.4623563718  CLST         218          1.0000000000
       655       219  TIP3  OH2           2.5456778284      -13.5607882695        7.5825663854  CLST         219          1.0000000000
       656       219  TIP3  H1            2.1319565731      -13.1296383948        8.3052368283  CLST         219          1.0000000000
       657       219  TIP3  H2            3.4307761528      -13.7212916651        7.9088351111  CLST         219          1.0000000000
       658       220  TIP3  OH2           2.4969710294        1.4878527483      -11.1929466067  CLST         220          1.0000000000
       659       220  TIP3  H1            2.5962022858        1.7566834468      -12.1088992121  CLST         220          1.0000000000
       660       220  TIP3  H2            3.4112943364        1.1715965072      -11.1262701616  CLST         220          1.0000000000
       661       221  TIP3  OH2           1.6220490097       -0.5068621133        3.0211012117  CLST         221          1.0000000000
       662       221  TIP3  H1            0.7182673609       -0.3856879106        2.7991277670  CLST         221          1.0000000000
       663       221  TIP3  H2            1.7579037002        0.2975816238        3.4853661305  CLST         221          1.0000000000
       664       222  TIP3  OH2          12.0280887357        0.5956613837        1.6537490878  CLST         222          1.0000000000
       665       222  TIP3  H1           12.4918075794        0.4379000563        0.8523628157  CLST         222          1.0000000000
       666       222  TIP3  H2           11.2125857244        1.0100256254        1.3216078871  CLST         222          1.0000000000
       667       223  TIP3  OH2           1.1578364855      -10.4578691335      -13.2081459524  CLST         223          1.0000000000
       668       223  TIP3  H1            0.8082198657      -10.5747375854      -12.3356414202  CLST         223          1.0000000000
       669       223  TIP3  H2            0.9699730162       -9.5669096837      -13.3603865430  CLST         223          1.0000000000
       670       224  TIP3  OH2          -9.1572722194        6.8217828994      -13.0692265786  CLST         224          1.0000000000
       671       224  TIP3  H1           -9.7477334006        6.1360916850      -12.7897177338  CLST         224          1.0000000000
       672       224  TIP3  H2           -8.3600512221        6.3495539213      -12.9003279800  CLST         224          1.0000000000
       673       225  TIP3  OH2          13.3006890029        3.6979966397       -7.5005614389  CLST         225          1.0000000000
       674       225  TIP3  H1           12.7063588551        4.0737842951       -8.1678294796  CLST         225          1.0000000000
       675       225  TIP3  H2           12.6231647715        3.1507932657       -7.0910068969  CLST         225          1.0000000000
       676       226  TIP3  OH2           5.3183598516        4.8906526897       10.8621408924  CLST         226          1.0000000000
       677       226  TIP3  H1            6.0021199845        5.2361018510       11.4528885378  CLST         226          1.0000000000
       678       226  TIP3  H2            5.4623930011        3.9816536075       11.0105996568  CLST         226          1.0000000000
       679       227  TIP3  OH2          -6.0841792538        1.1419249033        9.7824353294  CLST         227          1.0000000000
       680       227  TIP3  H1           -6.5864551290        0.7097021426       10.4656509303  CLST         227          1.0000000000
       681       227  TIP3  H2           -5.7081072596        0.3206500895        9.4014793568  CLST         227          1.0000000000
       682       228  TIP3  OH2          -8.6260711113       -5.1278999554       10.4487801651  CLST         228          1.0000000000
       683       228  TIP3  H1           -8.2641490558       -4.4544044676        9.9137250007  CLST         228          1.0000000000
       684       228  TIP3  H2           -7.8615996399       -5.6857915358       10.4677506323  CLST         228          1.0000000000
       685       229  TIP3  OH2          11.3045651796        8.1018882066      -14.8375559034  CLST         229          1.0000000000
       686       229  TIP3  H1           11.4060148136        8.4685548365      -13.9748769372  CLST         229          1.0000000000
       687       229  TIP3  H2           11.9374893551        7.3965270179      -14.8345419078  CLST         229          1.0000000000
       688       230  TIP3  OH2         -10.8499455183       -3.4932767174        8.6875909087  CLST         230          1.0000000000
       689       230  TIP3  H1          -11.2511341997       -4.2583814204        8.2719503920  CLST         230          1.0000000000
       690       230  TIP3  H2          -11.5002415628       -3.5274970633        9.3778321148  CLST         230          1.0000000000
       691       231  TIP3  OH2          -0.2965106699        3.1194453062      -11.9922936474  CLST         231          1.0000000000
       692       231  TIP3  H1            0.0532700856        2.5162785047      -11.3809875380  CLST         231          1.0000000000
       693       231  TIP3  H2            0.3499615765        3.0056663669      -12.6656104118  CLST         231          1.0000000000
       694       232  TIP3  OH2           1.7980999800      -14.8375559034      -12.0883272786  CLST         232          1.0000000000
       695       232  TIP3  H1            1.6219198875      -14.3657235768      -11.2941061295  CLST         232          1.0000000000
       696       232  TIP3  H2            1.9259727471      -14.1159558771      -12.6977770276  CLST         232          1.0000000000
       697       233  TIP3  OH2         -12.2633945099        9.8127869098        2.0994674484  CLST         233          1.0000000000
       698       233  TIP3  H1          -12.6599915142        9.3906327730        2.8516844984  CLST         233          1.0000000000
       699       233  TIP3  H2          -13.0162266432        9.8324217141        1.5367472440  CLST         233          1.0000000000
       700       234  TIP3  OH2          -2.3094021166        4.4803064538       -8.2540036379  CLST         234          1.0000000000
       701       234  TIP3  H1           -2.1317691891        5.4261702705       -8.1556842211  CLST         234          1.0000000000
       702       234  TIP3  H2           -2.1212191161        4.3708729760       -9.1829762734  CLST         234          1.0000000000
       703       235  TIP3  OH2         -10.5152567368        5.1438618630       -5.6185029473  CLST         235          1.0000000000
       704       235  TIP3  H1          -11.0211756470        4.8431974031       -6.3447543782  CLST         235          1.0000000000
       705       235  TIP3  H2           -9.6405036952        4.8239927963       -5.8338839518  CLST         235          1.0000000000
       706       236  TIP3  OH2         -12.3870507749      -10.7193937097       13.5269937512  CLST         236          1.0000000000
       707       236  TIP3  H1          -11.7255488064      -10.8343800413       12.8474685039  CLST         236          1.0000000000
       708       236  TIP3  H2          -12.9262552872      -10.0689023602       13.1308327347  CLST         236          1.0000000000
       709       237  TIP3  OH2          -6.1958891666       -6.3767041369       10.5631572778  CLST         237          1.0000000000
       710       237  TIP3  H1           -6.0838602656       -7.1808556784       10.0699769466  CLST         237          1.0000000000
       711       237  TIP3  H2           -5.2734190587       -6.2296033179       10.8010003313  CLST         237          1.0000000000
       712       238  TIP3  OH2          -0.9463167098        3.6499534153       -2.7018841223  CLST         238          1.0000000000
       713       238  TIP3  H1           -1.2523317750        4.2081934384       -3.4031729934  CLST         238          1.0000000000
       714       238  TIP3  H2           -1.7632836256        3.2850771742       -2.4538307621  CLST         238          1.0000000000
       715       239  TIP3  OH2           8.0766244234        7.3649921678       -0.0659903555  CLST         239          1.0000000000
       716       239  TIP3  H1            8.3791553077        6.6009997162       -0.4698286775  CLST         239          1.0000000000
       717       239  TIP3  H2            8.9191387857        7.7884279754        0.0790866223  CLST         239          1.0000000000
       718       240  TIP3  OH2          -9.9704154871        8.4789631968        1.7287828987  CLST         240          1.0000000000
       719       240  TIP3  H1          -10.8135451908        8.9046354753        1.7055214403  CLST         240          1.0000000000
       720       240  TIP3  H2          -10.1719869337        7.5964127665        2.0307388545  CLST         240          1.0000000000
       721       241  TIP3  OH2          10.9862251476       -4.5444708566       -1.7732099586  CLST         241          1.0000000000
       722       241  TIP3  H1           10.4136113585       -4.7956740469       -2.4943066066  CLST         241          1.0000000000
       723       241  TIP3  H2           11.8020694005       -4.9651969990       -2.0480704691  CLST         241          1.0000000000
       724       242  TIP3  OH2           9.3804565980       -1.6271437904       -4.5207151216  CLST         242          1.0000000000
       725       242  TIP3  H1           10.2842750769       -1.4176095990       -4.5367169666  CLST         242          1.0000000000
       726       242  TIP3  H2            9.2936161969       -2.0343150246       -3.6803693640  CLST         242          1.0000000000
       727       243  TIP3  OH2           5.0986163785        9.3924359880      -12.1814080122  CLST         243          1.0000000000
       728       243  TIP3  H1            4.5526416061       10.1064888793      -11.8281334973  CLST         243          1.0000000000
       729       243  TIP3  H2            4.8612039627        8.7438502237      -11.5503313634  CLST         243          1.0000000000
       730       244  TIP3  OH2          -9.1786410870       -6.5759741958      -14.3225013007  CLST         244          1.0000000000
       731       244  TIP3  H1           -9.6675205949       -6.0647720819      -13.7162070368  CLST         244          1.0000000000
       732       244  TIP3  H2           -9.8755764732       -7.0623495093      -14.7423950253  CLST         244          1.0000000000
       733       245  TIP3  OH2         -13.2048429520        6.2228335359        2.1884367544  CLST         245          1.0000000000
       734       245  TIP3  H1          -13.1374068314        6.8543866867        2.8973078145  CLST         245          1.0000000000
       735       245  TIP3  H2          -12.3848499162        6.2810567476        1.7197557254  CLST         245          1.0000000000
       736       246  TIP3  OH2          -9.2382209067        6.3999998736       -1.8687489372  CLST         246          1.0000000000
       737       246  TIP3  H1          -10.0739778197        6.3472055233       -2.2812310679  CLST         246          1.0000000000
       738       246  TIP3  H2           -9.0045250411        7.3075332184       -1.8209633943  CLST         246          1.0000000000
       739       247  TIP3  OH2          -4.5756983682        7.9609605915        7.9283638426  CLST         247          1.0000000000
       740       247  TIP3  H1           -3.8513991598        8.4718915286        8.2701351662  CLST         247          1.0000000000
       741       247  TIP3  H2           -4.7513298173        7.5950392100        8.7942839874  CLST         247          1.0000000000
       742       248  TIP3  OH2           9.9156982161       -8.2121127428        8.0371910955  CLST         248          1.0000000000
       743       248  TIP3  H1            9.0608876537       -8.5098441980        7.7103305952  CLST         248          1.0000000000
       744       248  TIP3  H2           10.1629905662       -7.6731423881        7.3178505558  CLST         248          1.0000000000
       745       249  TIP3  OH2           9.6631433390        5.6573306528       -1.1758866424  CLST         249          1.0000000000
       746       249  TIP3  H1           10.0504161142        4.8544461212       -0.9097723381  CLST         249          1.0000000000
       747       249  TIP3  H2           10.2956429627        5.9858609655       -1.7854557375  CLST         249          1.0000000000
       748       250  TIP3  OH2           5.8771048051       -4.7531374780        3.3506730056  CLST         250          1.0000000000
       749       250  TIP3  H1            6.2891372296       -5.4662005372        2.9257140764  CLST         250          1.0000000000
       750       250  TIP3  H2            5.2300319166       -5.1438899904        3.9207040534  CLST         250          1.0000000000
       751       251  TIP3  OH2         -14.6420054482      -11.7819443532        1.8846442443  CLST         251          1.0000000000
       752       251  TIP3  H1          -14.4122047123      -12.5157154671        1.3236048136  CLST         251          1.0000000000
       753       251  TIP3  H2          -13.9739749363      -11.8259813134        2.5593694123  CLST         251          1.0000000000
       754       252  TIP3  OH2          -7.3167719143      -14.5016795959      -11.9230530670  CLST         252          1.0000000000
       755       252  TIP3  H1           -8.1896236619      -14.8375559034      -11.8926349585  CLST         252          1.0000000000
       756       252  TIP3  H2           -7.4563553956      -13.6983321436      -12.3691765520  CLST         252          1.0000000000
       757       253  TIP3  OH2           0.7978907622        7.5281093790        7.8627417598  CLST         253          1.0000000000
       758       253  TIP3  H1            0.6618281227        7.3040731886        6.9381016345  CLST         253          1.0000000000
       759       253  TIP3  H2            1.7404532776        7.4766716943        7.8496240795  CLST         253          1.0000000000
       760       254  TIP3  OH2         -11.5740855049        1.4188999960      -14.2912902899  CLST         254          1.0000000000
       761       254  TIP3  H1          -12.2955252500        0.9302549074      -13.9611799720  CLST         254          1.0000000000
       762       254  TIP3  H2          -12.0226407485        2.0011345456      -14.8375559034  CLST         254          1.0000000000
       763       255  TIP3  OH2           4.2454241516       -0.1178381529       -0.9094594856  CLST         255          1.0000000000
       764       255  TIP3  H1            4.0882472211       -0.9558124681       -0.4574597368  CLST         255          1.0000000000
       765       255  TIP3  H2            3.2839145707       -0.0225885250       -1.0323101652  CLST         255          1.0000000000
       766       256  TIP3  OH2          14.0645036876       -3.1958528304      -12.1379293349  CLST         256          1.0000000000
       767       256  TIP3  H1           14.6333507120       -2.6776947712      -12.6741155880  CLST         256          1.0000000000
       768       256  TIP3  H2           13.6188167966       -3.8364193076      -12.6531773992  CLST         256          1.0000000000
       769       257  TIP3  OH2          -6.5272434032      -13.4807483825       10.1912965408  CLST         257          1.0000000000
       770       257  TIP3  H1           -6.7511468362      -14.2834369733        9.8298934155  CLST         257          1.0000000000
       771       257  TIP3  H2           -5.7157525658      -13.7131846486       10.5966977041  CLST         257          1.0000000000
       772       258  TIP3  OH2         -10.4030408225      -11.8531024889       -6.6037230340  CLST         258          1.0000000000
       773       258  TIP3  H1           -9.8282733142      -12.1779659804       -5.9401900248  CLST         258          1.0000000000
       774       258  TIP3  H2          -10.4235972057      -10.9627049095       -6.2404629812  CLST         258          1.0000000000
       775       259  TIP3  OH2           2.7336681667        1.6338879830       13.9195530263  CLST         259          1.0000000000
       776       259  TIP3  H1            3.3321475757        0.9063861994       13.8563754963  CLST         259          1.0000000000
       777       259  TIP3  H2            2.5169623397        1.5298903590       14.8375559034  CLST         259          1.0000000000
       778       260  TIP3  OH2         -10.7180933512      -10.3772444635       -9.5630366142  CLST         260          1.0000000000
       779       260  TIP3  H1          -11.1573310318      -10.5974229927      -10.3805157097  CLST         260          1.0000000000
       780       260  TIP3  H2          -11.0885347147       -9.5089268763       -9.4557201135  CLST         260          1.0000000000
       781       261  TIP3  OH2           7.0356783671        1.0156534234       -0.1388289906  CLST         261          1.0000000000
       782       261  TIP3  H1            6.9621076047        1.7185011292       -0.7909162201  CLST         261          1.0000000000
       783       261  TIP3  H2            6.1130832133        0.7727384319       -0.2361378082  CLST         261          1.0000000000
       784       262  TIP3  OH2          -1.9954967997       14.3597983199        3.0990055731  CLST         262          1.0000000000
       785       262  TIP3  H1           -2.5142110673       14.1693068233        3.8692416201  CLST         262          1.0000000000
       786       262  TIP3  H2           -1.4562703776       13.6298606360        2.9341563013  CLST         262          1.0000000000
       787       263  TIP3  OH2           6.7345098139        3.8125606389        1.7903493822  CLST         263          1.0000000000
       788       263  TIP3  H1            6.4878514441        3.0670134276        1.2442751515  CLST         263          1.0000000000
       789       263  TIP3  H2            6.1191322556        3.5334959443        2.4581761632  CLST         263          1.0000000000
       790       264  TIP3  OH2          -3.1391034552       10.3916320875       10.2616979933  CLST         264          1.0000000000
       791       264  TIP3  H1           -2.4364006307       10.9627376675       10.4791440693  CLST         264          1.0000000000
       792       264  TIP3  H2           -2.9018276961       10.0703118990        9.4236299952  CLST         264          1.0000000000
       793       265  TIP3  OH2         -12.7851928900       12.6822112089       -0.1743598298  CLST         265          1.0000000000
       794       265  TIP3  H1          -12.7903636666       12.6977734239       -1.1190113228  CLST         265          1.0000000000
       795       265  TIP3  H2          -13.2868548975       11.9000363728        0.0016055573  CLST         265          1.0000000000
       796       266  TIP3  OH2          -4.0901749876        1.7451247816        4.1107451442  CLST         266          1.0000000000
       797       266  TIP3  H1           -4.2837475715        0.9881359477        3.5562013977  CLST         266          1.0000000000
       798       266  TIP3  H2           -3.7979544484        2.3526000429        3.4445170851  CLST         266          1.0000000000
       799       267  TIP3  OH2          -7.2499247465       11.6430077836       -5.4589871323  CLST         267          1.0000000000
       800       267  TIP3  H1           -7.8531620500       11.4959068077       -6.1546726541  CLST         267          1.0000000000
       801       267  TIP3  H2           -7.9899622835       11.7191078213       -4.8579770243  CLST         267          1.0000000000
       802       268  TIP3  OH2           4.9618318104        3.4331060220      -14.1025231726  CLST         268          1.0000000000
       803       268  TIP3  H1            5.6764218396        3.6314723835      -13.4811633163  CLST         268          1.0000000000
       804       268  TIP3  H2            4.9934960251        4.2822687540      -14.5590313658  CLST         268          1.0000000000
       805       269  TIP3  OH2           9.2970246620       -0.4053770862       11.3325612262  CLST         269          1.0000000000
       806       269  TIP3  H1           10.1672712759       -0.0281473729       11.4465992313  CLST         269          1.0000000000
       807       269  TIP3  H2            9.2182488324       -0.7117172111       12.2441520779  CLST         269          1.0000000000
       808       270  TIP3  OH2          -8.0513731432       -5.8621397839        6.2621276664  CLST         270          1.0000000000
       809       270  TIP3  H1           -8.1251492305       -5.9148580922        5.3164737387  CLST         270          1.0000000000
       810       270  TIP3  H2           -7.1623940928       -5.6034699558        6.4540037234  CLST         270          1.0000000000
       811       271  TIP3  OH2         -11.8631089172       12.3767143405       11.6413010488  CLST         271          1.0000000000
       812       271  TIP3  H1          -11.3333557311       12.1340207584       12.4070186062  CLST         271          1.0000000000
       813       271  TIP3  H2          -11.1890289037       12.8527236436       11.1622978596  CLST         271          1.0000000000
       814       272  TIP3  OH2           7.0873099751      -14.0752736547        3.2717546051  CLST         272          1.0000000000
       815       272  TIP3  H1            7.9761654843      -13.7131324320        3.3998434629  CLST         272          1.0000000000
       816       272  TIP3  H2            6.8943987807      -14.0232890216        4.2225466385  CLST         272          1.0000000000
       817       273  TIP3  OH2          -8.5920481975       10.9579131886       -7.6347878217  CLST         273          1.0000000000
       818       273  TIP3  H1           -9.3169764152       11.3112086976       -8.1117100700  CLST         273          1.0000000000
       819       273  TIP3  H2           -8.9740138322       10.1338347070       -7.4124073680  CLST         273          1.0000000000
       820       274  TIP3  OH2          -6.8280921650        0.6187306765       13.8490465640  CLST         274          1.0000000000
       821       274  TIP3  H1           -7.4770452364        0.9524875339       14.4793398387  CLST         274          1.0000000000
       822       274  TIP3  H2           -7.4397797532        0.3776373703       13.1440398877  CLST         274          1.0000000000
       823       275  TIP3  OH2           3.7924966490      -14.8375559034       -0.8510815219  CLST         275          1.0000000000
       824       275  TIP3  H1            3.3274528601      -14.0215952524       -0.7643866322  CLST         275          1.0000000000
       825       275  TIP3  H2            4.1181909815      -14.5695757904       -1.7015485271  CLST         275          1.0000000000
       826       276  TIP3  OH2           2.4152542079       -9.9240666870        7.1976584967  CLST         276          1.0000000000
       827       276  TIP3  H1            2.3536579180      -10.4025520246        8.0077762443  CLST         276          1.0000000000
       828       276  TIP3  H2            3.0678980014       -9.2649352790        7.4044170883  CLST         276          1.0000000000
       829       277  TIP3  OH2          -7.1239115135        7.0445534130        2.9265844156  CLST         277          1.0000000000
       830       277  TIP3  H1           -7.7140052670        7.0548961132        2.1916776879  CLST         277          1.0000000000
       831       277  TIP3  H2           -6.7108862664        6.2368381465        2.6877369782  CLST         277          1.0000000000
       832       278  TIP3  OH2           5.0043121338      -10.5081178472       10.0233775981  CLST         278          1.0000000000
       833       278  TIP3  H1            4.9501511075       -9.8750873996        9.2973166836  CLST         278          1.0000000000
       834       278  TIP3  H2            4.3945616929      -10.0815992346       10.6282264180  CLST         278          1.0000000000
       835       279  TIP3  OH2          11.9796634641       -5.7725420727        7.3359731567  CLST         279          1.0000000000
       836       279  TIP3  H1           11.5014279880       -5.8794821090        6.5047456492  CLST         279          1.0000000000
       837       279  TIP3  H2           12.6676129871       -5.1606953907        7.0777828717  CLST         279          1.0000000000
       838       280  TIP3  OH2           6.6479859457       -8.8385280393       12.7400856673  CLST         280          1.0000000000
       839       280  TIP3  H1            7.0561974157       -9.7079089869       12.5870484804  CLST         280          1.0000000000
       840       280  TIP3  H2            7.3156693662       -8.1663537153       12.6677877500  CLST         280          1.0000000000
       841       281  TIP3  OH2          -1.4602374181        4.6861420490       10.7792333061  CLST         281          1.0000000000
       842       281  TIP3  H1           -1.9839883210        3.9642561791       10.4790023127  CLST         281          1.0000000000
       843       281  TIP3  H2           -1.0824282238        4.5121066803       11.6642762850  CLST         281          1.0000000000
       844       282  TIP3  OH2          10.6419274975       10.8365443218      -10.8852993282  CLST         282          1.0000000000
       845       282  TIP3  H1           11.1306729164       10.0744845503      -11.1629247072  CLST         282          1.0000000000
       846       282  TIP3  H2           11.4080948885       11.3930954022      -10.8186862059  CLST         282          1.0000000000
       847       283  TIP3  OH2          -3.0829768046       -4.4268747366       -0.1631425794  CLST         283          1.0000000000
       848       283  TIP3  H1           -3.8886915122       -4.6374399953       -0.6109777685  CLST         283          1.0000000000
       849       283  TIP3  H2           -3.0385720766       -5.1768549139        0.4420942138  CLST         283          1.0000000000
       850       284  TIP3  OH2           4.1929617909       10.7543300815        2.0719148071  CLST         284          1.0000000000
       851       284  TIP3  H1            4.7494259666       10.1147815423        1.6600167951  CLST         284          1.0000000000
       852       284  TIP3  H2            3.5099487682       10.2272776734        2.4785065630  CLST         284          1.0000000000
       853       285  TIP3  OH2         -11.7036591686       -6.1449609888        8.2608759637  CLST         285          1.0000000000
       854       285  TIP3  H1          -10.7758422916       -6.3864834748        8.0977125887  CLST         285          1.0000000000
       855       285  TIP3  H2          -12.0166208918       -6.2554592565        7.3079441446  CLST         285          1.0000000000
       856       286  TIP3  OH2          -2.7951069520       -9.8594851154      -10.7509362909  CLST         286          1.0000000000
       857       286  TIP3  H1           -2.1297710956       -9.4660145664      -11.2548462741  CLST         286          1.0000000000
       858       286  TIP3  H2           -3.0353468138      -10.6469120322      -11.1934759109  CLST         286          1.0000000000
       859       287  TIP3  OH2           2.7750272668       -0.7688224471       -7.9293932825  CLST         287          1.0000000000
       860       287  TIP3  H1            2.7403647492        0.1830452116       -7.9891116189  CLST         287          1.0000000000
       861       287  TIP3  H2            3.7254005498       -0.7456235248       -7.7921208571  CLST         287          1.0000000000
       862       288  TIP3  OH2          13.8756152067      -14.3195055855       -8.3519816404  CLST         288          1.0000000000
       863       288  TIP3  H1           13.6418691746      -13.6207700226       -7.7606315489  CLST         288          1.0000000000
       864       288  TIP3  H2           14.3772604569      -14.8375559034       -7.7779149365  CLST         288          1.0000000000
       865       289  TIP3  OH2          13.9757913875        3.7061903605      -10.2068676421  CLST         289          1.0000000000
       866       289  TIP3  H1           14.0408660457        3.5268278377       -9.2732268231  CLST         289          1.0000000000
       867       289  TIP3  H2           14.8375559034        3.5653218677      -10.5290209048  CLST         289          1.0000000000
       868       290  TIP3  OH2          11.8149313944        0.9807315959       11.9579057540  CLST         290          1.0000000000
       869       290  TIP3  H1           11.4474141662        1.0652179593       12.8056147063  CLST         290          1.0000000000
       870       290  TIP3  H2           11.9256855329        1.9216106282       11.8404129666  CLST         290          1.0000000000
       871       291  TIP3  OH2         -11.3158334137       -9.5174100756       -2.7353365778  CLST         291          1.0000000000
       872       291  TIP3  H1          -10.6868051240       -9.9653878893       -2.1702283261  CLST         291          1.0000000000
       873       291  TIP3  H2          -11.3754896546       -8.7253012323       -2.2266993939  CLST         291          1.0000000000
       874       292  TIP3  OH2           9.0865601471       -1.8877184273      -11.6520179218  CLST         292          1.0000000000
       875       292  TIP3  H1            8.3157690109       -2.4480297376      -11.7079666964  CLST         292          1.0000000000
       876       292  TIP3  H2            9.4564558270       -2.0899383894      -10.8157646166  CLST         292          1.0000000000
       877       293  TIP3  OH2           2.3614152279        2.7664134081      -13.6503869043  CLST         293          1.0000000000
       878       293  TIP3  H1            2.1265843809        3.7108515991      -13.5905158438  CLST         293          1.0000000000
       879       293  TIP3  H2            3.2687591835        2.9331454052      -13.9143829458  CLST         293          1.0000000000
       880       294  TIP3  OH2           1.7705926808        7.9910583110        0.8539062690  CLST         294          1.0000000000
       881       294  TIP3  H1            1.2136551578        7.2669898329        1.0498931905  CLST         294          1.0000000000
       882       294  TIP3  H2            2.1944516613        8.2192877715        1.6680284183  CLST         294          1.0000000000
       883       295  TIP3  OH2           3.8586427740       12.9137127838       -4.3292386402  CLST         295          1.0000000000
       884       295  TIP3  H1            3.1081558237       13.2098364708       -3.8297307276  CLST         295          1.0000000000
       885       295  TIP3  H2            4.2830746856       13.6734574369       -4.6787279293  CLST         295          1.0000000000
       886       296  TIP3  OH2           2.6346501247        5.6822020249      -11.3949260922  CLST         296          1.0000000000
       887       296  TIP3  H1            2.3164809891        5.4904493930      -12.2725402172  CLST         296          1.0000000000
       888       296  TIP3  H2            1.8525301811        5.5331855715      -10.8949052728  CLST         296          1.0000000000
       889       297  TIP3  OH2          13.6415506653        0.1315977867        8.9553132504  CLST         297          1.0000000000
       890       297  TIP3  H1           13.8324264559        1.0392637861        9.0817682022  CLST         297          1.0000000000
       891       297  TIP3  H2           14.5291476965       -0.0878087523        8.7293377055  CLST         297          1.0000000000
       892       298  TIP3  OH2          12.1521445280       -5.2229000467      -12.5236381101  CLST         298          1.0000000000
       893       298  TIP3  H1           11.4444756585       -5.7358123794      -12.8957072329  CLST         298          1.0000000000
       894       298  TIP3  H2           12.8091081304       -5.8690274134      -12.3621497812  CLST         298          1.0000000000
       895       299  TIP3  OH2           3.4154006972       -5.7916858538       -7.5250282310  CLST         299          1.0000000000
       896       299  TIP3  H1            3.4776016575       -4.8503800115       -7.3494252510  CLST         299          1.0000000000
       897       299  TIP3  H2            3.6914371815       -6.2094567960       -6.7298453247  CLST         299          1.0000000000
       898       300  TIP3  OH2          10.2461744068       -6.8501776716      -13.9169194315  CLST         300          1.0000000000
       899       300  TIP3  H1           10.2179803840       -6.3190936253      -14.6924563067  CLST         300          1.0000000000
       900       300  TIP3  H2            9.2991201114       -6.7806646120      -13.7058136431  CLST         300          1.0000000000
       901       301  TIP3  OH2          11.3224706761       -6.7295620139        0.3344012713  CLST         301          1.0000000000
       902       301  TIP3  H1           11.0834745500       -5.8320365436        0.2705959856  CLST         301          1.0000000000
       903       301  TIP3  H2           10.8213638520       -7.1137674825       -0.3564269936  CLST         301          1.0000000000
       904       302  TIP3  OH2          11.6805927129       -7.2381745640       12.2063677776  CLST         302          1.0000000000
       905       302  TIP3  H1           12.1931016872       -6.8172618352       11.5129787456  CLST         302          1.0000000000
       906       302  TIP3  H2           11.6229808833       -8.0984969195       11.7455308727  CLST         302          1.0000000000
       907       303  TIP3  OH2          -8.9298514501       11.6280581400        6.8997100462  CLST         303          1.0000000000
       908       303  TIP3  H1           -9.5377181459       12.1548907979        6.4094690509  CLST         303          1.0000000000
       909       303  TIP3  H2           -8.3083893990       12.2439392441        7.2359725096  CLST         303          1.0000000000
       910       304  TIP3  OH2          -1.9533990505        8.1627109978       -0.7516570434  CLST         304          1.0000000000
       911       304  TIP3  H1           -2.3907246684        7.6227072790       -0.0932279730  CLST         304          1.0000000000
       912       304  TIP3  H2           -2.7648904434        8.4913208241       -1.1883012732  CLST         304          1.0000000000
       913       305  TIP3  OH2          -2.3598466587       -6.2033673314      -10.3756915394  CLST         305          1.0000000000
       914       305  TIP3  H1           -2.1014176906       -5.2852249775      -10.4823586188  CLST         305          1.0000000000
       915       305  TIP3  H2           -2.1647536116       -6.5435360011      -11.2363128869  CLST         305          1.0000000000
       916       306  TIP3  OH2          -8.4420614150      -14.2695181559       -6.9439528891  CLST         306          1.0000000000
       917       306  TIP3  H1           -7.7145890033      -14.8375559034       -6.7326309197  CLST         306          1.0000000000
       918       306  TIP3  H2           -8.2770916689      -13.6521833274       -6.2372158242  CLST         306          1.0000000000
       919       307  TIP3  OH2           0.7579881313       10.1846504314      -14.5082797722  CLST         307          1.0000000000
       920       307  TIP3  H1            1.0114799717       10.9930417762      -14.1353031523  CLST         307          1.0000000000
       921       307  TIP3  H2            1.3292829142        9.5698043455      -14.0842242800  CLST         307          1.0000000000
       922       308  TIP3  OH2          12.6053308688       -3.4513324973       13.3529819415  CLST         308          1.0000000000
       923       308  TIP3  H1           12.7259736620       -3.0150790325       12.5104467754  CLST         308          1.0000000000
       924       308  TIP3  H2           13.4028150749       -3.9852665797       13.4054118687  CLST         308          1.0000000000
       925       309  TIP3  OH2          12.9151495730       12.5865470922       14.8375559034  CLST         309          1.0000000000
       926       309  TIP3  H1           12.1580668183       12.2312828718       14.4622762292  CLST         309          1.0000000000
       927       309  TIP3  H2           13.3199681651       13.1014111818       14.2087757499  CLST         309          1.0000000000
       928       310  TIP3  OH2           4.3113685842       14.5604840619       -6.4519990041  CLST         310          1.0000000000
       929       310  TIP3  H1            4.8604102749       14.6935052498       -7.1875138759  CLST         310          1.0000000000
       930       310  TIP3  H2            3.4700571822       14.4053989896       -6.9141375388  CLST         310          1.0000000000
       931       311  TIP3  OH2          -5.7762152502        6.0573818451       -5.2396122217  CLST         311          1.0000000000
       932       311  TIP3  H1           -6.5980644011        5.5861206341       -5.0883855771  CLST         311          1.0000000000
       933       311  TIP3  H2           -5.6000214983        5.7100720355       -6.1192289188  CLST         311          1.0000000000
       934       312  TIP3  OH2           5.0939263645       -8.6594906397        7.9331467140  CLST         312          1.0000000000
       935       312  TIP3  H1            4.9523687926       -7.7059726507        8.2470057236  CLST         312          1.0000000000
       936       312  TIP3  H2            6.0004913096       -8.4951908660        7.6220810659  CLST         312          1.0000000000
       937       313  TIP3  OH2          -2.3576534162        7.9065591389       11.1652339626  CLST         313          1.0000000000
       938       313  TIP3  H1           -2.9402180842        8.6407532505       11.3075341145  CLST         313          1.0000000000
       939       313  TIP3  H2           -2.9690654652        7.1945405447       11.0045320900  CLST         313          1.0000000000
       940       314  TIP3  OH2           9.4625171637       -2.3071963921       -1.9402783941  CLST         314          1.0000000000
       941       314  TIP3  H1            9.8990196945       -3.0118945290       -1.5102888826  CLST         314          1.0000000000
       942       314  TIP3  H2            8.8183677601       -2.0728468847       -1.2826972616  CLST         314          1.0000000000
       943       315  TIP3  OH2           4.5925890812       10.1288391198       -2.6170473364  CLST         315          1.0000000000
       944       315  TIP3  H1            3.9744909298        9.4594305510       -2.4257766617  CLST         315          1.0000000000
       945       315  TIP3  H2            4.2913029028       10.8780542725       -2.0514100948  CLST         315          1.0000000000
       946       316  TIP3  OH2          13.9007582024       -6.6353703989       -5.9485931483  CLST         316          1.0000000000
       947       316  TIP3  H1           13.0865695699       -6.5372928834       -5.5030605297  CLST         316          1.0000000000
       948       316  TIP3  H2           13.7992639782       -5.8812457771       -6.5487530570  CLST         316          1.0000000000
       949       317  TIP3  OH2          -3.0200027293       -9.9860890489       -2.4574285314  CLST         317          1.0000000000
       950       317  TIP3  H1           -3.8107934455       -9.5676602351       -2.7390146447  CLST         317          1.0000000000
       951       317  TIP3  H2           -2.4851457414       -9.8193194742       -3.2333449764  CLST         317          1.0000000000
       952       318  TIP3  OH2          -1.3419372559        9.7735950207       -4.6523786535  CLST         318          1.0000000000
       953       318  TIP3  H1           -2.1616628383        9.4632433256       -5.0365616671  CLST         318          1.0000000000
       954       318  TIP3  H2           -1.1411629893       10.6121785610       -5.0409126115  CLST         318          1.0000000000
       955       319  TIP3  OH2           6.1677160724       -8.0184076041       -2.1337615115  CLST         319          1.0000000000
       956       319  TIP3  H1            6.9160270476       -8.1309852987       -2.6959503035  CLST         319          1.0000000000
       957       319  TIP3  H2            6.6047281375       -8.3426469218       -1.3496943503  CLST         319          1.0000000000
       958       320  TIP3  OH2           5.8396309973       12.7981596440      -12.3875342809  CLST         320          1.0000000000
       959       320  TIP3  H1            6.0514601840       12.7338675694      -13.3090569400  CLST         320          1.0000000000
       960       320  TIP3  H2            6.3244268414       12.0492266939      -12.0131103709  CLST         320          1.0000000000
       961       321  TIP3  OH2           1.3544843597      -11.4304430937        9.2878094373  CLST         321          1.0000000000
       962       321  TIP3  H1            1.6804610372      -12.0541510807        9.9271846408  CLST         321          1.0000000000
       963       321  TIP3  H2            1.6504903563      -10.7385994182        9.8419480202  CLST         321          1.0000000000
       964       322  TIP3  OH2           0.8539760127        5.6738002026        9.9728189029  CLST         322          1.0000000000
       965       322  TIP3  H1            0.7454983061        6.3202195863        9.2967436097  CLST         322          1.0000000000
       966       322  TIP3  H2           -0.0145434638        5.4088315010       10.1529041821  CLST         322          1.0000000000
       967       323  TIP3  OH2           8.0399396684        3.3299215854       12.7753511362  CLST         323          1.0000000000
       968       323  TIP3  H1            7.0885694434        3.3257868064       12.7411165691  CLST         323          1.0000000000
       969       323  TIP3  H2            8.1744150869        3.1609009046       11.8641354158  CLST         323          1.0000000000
       970       324  TIP3  OH2           6.5377403823        3.1992609211       -1.7262027730  CLST         324          1.0000000000
       971       324  TIP3  H1            6.0794509932        4.0308066134       -1.6763907018  CLST         324          1.0000000000
       972       324  TIP3  H2            6.8560882927        3.1920683007       -2.6135655294  CLST         324          1.0000000000
       973       325  TIP3  OH2         -12.6578848173       -8.5454384954       11.8998694357  CLST         325          1.0000000000
       974       325  TIP3  H1          -12.9540204830       -7.6561661235       11.9377448004  CLST         325          1.0000000000
       975       325  TIP3  H2          -11.8242740787       -8.3893297661       11.4815765844  CLST         325          1.0000000000
       976       326  TIP3  OH2         -12.2933141861        9.3218889127       -5.1283755996  CLST         326          1.0000000000
       977       326  TIP3  H1          -12.1605296772       10.2631190969       -5.1084374904  CLST         326          1.0000000000
       978       326  TIP3  H2          -11.6117601341        9.0955653845       -5.7443662440  CLST         326          1.0000000000
       979       327  TIP3  OH2          12.5436059960       -5.8560584374       10.0765092191  CLST         327          1.0000000000
       980       327  TIP3  H1           12.1950897741       -6.0946635846        9.2183299286  CLST         327          1.0000000000
       981       327  TIP3  H2           13.1553820322       -5.2327869895        9.7606576004  CLST         327          1.0000000000
       982       328  TIP3  OH2         -12.3265977944       -8.0952020477      -12.6971273465  CLST         328          1.0000000000
       983       328  TIP3  H1          -11.5614088403       -8.0961729972      -12.1457018167  CLST         328          1.0000000000
       984       328  TIP3  H2          -12.2527335426       -9.0173376537      -12.8682812907  CLST         328          1.0000000000
       985       329  TIP3  OH2           6.6985386000       -4.4145217635       -1.5985645974  CLST         329          1.0000000000
       986       329  TIP3  H1            5.9993855187       -4.0083622262       -1.1303040734  CLST         329          1.0000000000
       987       329  TIP3  H2            6.3373363641       -4.3628147227       -2.4564829439  CLST         329          1.0000000000
       988       330  TIP3  OH2          12.9814207211        5.8017524898      -14.2429530346  CLST         330          1.0000000000
       989       330  TIP3  H1           13.5795310946        5.4225237262      -14.8375559034  CLST         330          1.0000000000
       990       330  TIP3  H2           13.4423335360        6.0504395105      -13.4456619633  CLST         330          1.0000000000
       991       331  TIP3  OH2          -4.5122670522       -0.0676479871        6.1443137374  CLST         331          1.0000000000
       992       331  TIP3  H1           -4.2165480394        0.6957226361        5.6264780839  CLST         331          1.0000000000
       993       331  TIP3  H2           -5.4660891036        0.0807635909        6.0405671554  CLST         331          1.0000000000
       994       332  TIP3  OH2          -8.8507214764        9.0950333258       -2.0992822070  CLST         332          1.0000000000
       995       332  TIP3  H1           -9.4584281103        9.8851042535       -2.1891628613  CLST         332          1.0000000000
       996       332  TIP3  H2           -8.4622898434        9.3578845784       -1.2741397167  CLST         332          1.0000000000
       997       333  TIP3  OH2          -7.0110444072       -8.7372524601       -6.8547655057  CLST         333          1.0000000000
       998       333  TIP3  H1           -7.3650890069       -9.1405252949       -7.6375526598  CLST         333          1.0000000000
       999       333  TIP3  H2           -7.6968429282       -8.0422502140       -6.7542246222  CLST         333          1.0000000000
      1000       334  TIP3  OH2         -10.6138985778        8.2887877284       -9.3381175972  CLST         334          1.0000000000
      1001       334  TIP3  H1          -10.3373202066        9.0527485980       -9.8051146854  CLST         334          1.0000000000
      1002       334  TIP3  H2          -10.8290358979        8.6957158896       -8.5208321658  CLST         334          1.0000000000
      1003       335  TIP3  OH2           1.4391342135       -0.0268247573       -1.3087431340  CLST         335          1.0000000000
      1004       335  TIP3  H1            0.9772691491       -0.8509035617       -1.0169693079  CLST         335          1.0000000000
      1005       335  TIP3  H2            0.9410856762        0.0610630931       -2.1203765678  CLST         335          1.0000000000
      1006       336  TIP3  OH2          11.8005727159        5.6339119925        1.5473897096  CLST         336          1.0000000000
      1007       336  TIP3  H1           11.0880888159        5.0168008572        1.6226402296  CLST         336          1.0000000000
      1008       336  TIP3  H2           11.2673512601        6.3670944007        1.2894002413  CLST         336          1.0000000000
      1009       337  TIP3  OH2           2.1813920957      -14.8244745095        5.1703658990  CLST         337          1.0000000000
      1010       337  TIP3  H1            2.2535804266      -14.2211462136        5.9170001865  CLST         337          1.0000000000
      1011       337  TIP3  H2            1.7336174789      -14.3588882529        4.4559283048  CLST         337          1.0000000000
      1012       338  TIP3  OH2          -4.4334900045        2.6708082708      -11.5548689887  CLST         338          1.0000000000
      1013       338  TIP3  H1           -5.0852564900        2.3300187748      -12.1220542892  CLST         338          1.0000000000
      1014       338  TIP3  H2           -3.9667639665        1.8709977249      -11.4815266809  CLST         338          1.0000000000
      1015       339  TIP3  OH2           5.1201031835        2.2601650448       -7.9237289272  CLST         339          1.0000000000
      1016       339  TIP3  H1            4.1656261817        2.2576728489       -7.8469532379  CLST         339          1.0000000000
      1017       339  TIP3  H2            5.0865273852        2.8758335540       -8.6694386960  CLST         339          1.0000000000
      1018       340  TIP3  OH2         -10.7802317628       12.0971162261       -8.7294018018  CLST         340          1.0000000000
      1019       340  TIP3  H1          -11.6344677142       11.9177040164       -9.0723380647  CLST         340          1.0000000000
      1020       340  TIP3  H2          -10.9084461096       12.9965376994       -8.4002014380  CLST         340          1.0000000000
      1021       341  TIP3  OH2          -1.9179965347       14.0798579605       -0.7289978089  CLST         341          1.0000000000
      1022       341  TIP3  H1           -1.6477119589       13.3614111674       -1.2906187865  CLST         341          1.0000000000
      1023       341  TIP3  H2           -2.2953573356       14.6744660126       -1.3371546056  CLST         341          1.0000000000
      1024       342  TIP3  OH2         -11.7074864106        3.5320816422        9.7678328240  CLST         342          1.0000000000
      1025       342  TIP3  H1          -12.2747259484        2.7827089307       10.0100354916  CLST         342          1.0000000000
      1026       342  TIP3  H2          -11.2602672566        3.7679513994       10.6019436845  CLST         342          1.0000000000
      1027       343  TIP3  OH2          -0.7424490135       -1.4708995616      -13.9160453767  CLST         343          1.0000000000
      1028       343  TIP3  H1           -1.1638433219       -0.6461087492      -13.7562479511  CLST         343          1.0000000000
      1029       343  TIP3  H2           -0.5328295180       -1.4131401496      -14.8375559034  CLST         343          1.0000000000
      1030       344  TIP3  OH2           8.9915852480        4.0336131366        4.1569213337  CLST         344          1.0000000000
      1031       344  TIP3  H1            9.0129238472        4.8971784844        4.5215075260  CLST         344          1.0000000000
      1032       344  TIP3  H2            8.1706084150        3.7341100277        4.5327246071  CLST         344          1.0000000000
      1033       345  TIP3  OH2           0.2019539520        9.8372209868       -0.3086178291  CLST         345          1.0000000000
      1034       345  TIP3  H1            0.8141419144        9.2498670776        0.1134523478  CLST         345          1.0000000000
      1035       345  TIP3  H2           -0.5162678606        9.2044921298       -0.2716160439  CLST         345          1.0000000000
      1036       346  TIP3  OH2          -4.7810371714      -14.6103708974        6.2073462226  CLST         346          1.0000000000
      1037       346  TIP3  H1           -5.2748141928      -13.8502554270        5.9461365848  CLST         346          1.0000000000
      1038       346  TIP3  H2           -4.3515006534      -14.2615554833        6.9755275560  CLST         346          1.0000000000
      1039       347  TIP3  OH2         -13.9206133588      -11.6086947914       -2.0169644622  CLST         347          1.0000000000
      1040       347  TIP3  H1          -13.9122467429      -10.9585976372       -2.7411260671  CLST         347          1.0000000000
      1041       347  TIP3  H2          -13.5540711770      -11.1237225541       -1.2926608395  CLST         347          1.0000000000
      1042       348  TIP3  OH2           4.3176989140        7.5469445043       -7.4496250816  CLST         348          1.0000000000
      1043       348  TIP3  H1            5.1310368882        7.0637637632       -7.3251223440  CLST         348          1.0000000000
      1044       348  TIP3  H2            4.2153136465        7.8647957213       -6.5479049938  CLST         348          1.0000000000
      1045       349  TIP3  OH2           8.1801122711       10.0502695707        2.6001871722  CLST         349          1.0000000000
      1046       349  TIP3  H1            8.4238888002       10.4961137124        1.7852655819  CLST         349          1.0000000000
      1047       349  TIP3  H2            7.3244827434        9.7217769784        2.3787628841  CLST         349          1.0000000000
      1048       350  TIP3  OH2          -8.8535989150        1.0160873984      -14.6415951560  CLST         350          1.0000000000
      1049       350  TIP3  H1           -8.8931523998        0.0737603686      -14.5779551814  CLST         350          1.0000000000
      1050       350  TIP3  H2           -9.8167675711        1.1135862351      -14.6540860734  CLST         350          1.0000000000
      1051       351  TIP3  OH2          10.3674850394        3.1873896868        6.2549888194  CLST         351          1.0000000000
      1052       351  TIP3  H1           11.0867923695        3.6480521648        6.5809985027  CLST         351          1.0000000000
      1053       351  TIP3  H2           10.1834958155        3.6714158156        5.4619756457  CLST         351          1.0000000000
      1054       352  TIP3  OH2           5.4611728882       -0.5549175917       -8.1680777060  CLST         352          1.0000000000
      1055       352  TIP3  H1            6.1384996192       -0.8071923602       -7.4671720754  CLST         352          1.0000000000
      1056       352  TIP3  H2            5.4553807860        0.3706636885       -7.9162218367  CLST         352          1.0000000000
      1057       353  TIP3  OH2          -1.5839966344        9.6284590771      -12.7448025517  CLST         353          1.0000000000
      1058       353  TIP3  H1           -0.8345431698        9.3462498092      -13.2627598151  CLST         353          1.0000000000
      1059       353  TIP3  H2           -1.9252790716        8.7550444367      -12.5157678320  CLST         353          1.0000000000
      1060       354  TIP3  OH2         -11.7882255475      -11.0063107456      -13.9213256827  CLST         354          1.0000000000
      1061       354  TIP3  H1          -12.0491028932      -11.0557144547      -14.8375559034  CLST         354          1.0000000000
      1062       354  TIP3  H2          -10.9004002950      -11.1750067928      -14.2010192892  CLST         354          1.0000000000
      1063       355  TIP3  OH2           1.7515789315      -13.6529275956       -9.8344948808  CLST         355          1.0000000000
      1064       355  TIP3  H1            1.8551543115      -13.3053269925       -8.9631389140  CLST         355          1.0000000000
      1065       355  TIP3  H2            1.2461688258      -12.9021487115      -10.1545125426  CLST         355          1.0000000000
      1066       356  TIP3  OH2         -12.9804307954       -5.1958001971       -2.9829059369  CLST         356          1.0000000000
      1067       356  TIP3  H1          -13.1878152004       -6.1000970713       -3.1983852165  CLST         356          1.0000000000
      1068       356  TIP3  H2          -13.2070291662       -4.7942211332       -3.8166828057  CLST         356          1.0000000000
      1069       357  TIP3  OH2          -6.7261314410       -9.5362644601        4.9762478295  CLST         357          1.0000000000
      1070       357  TIP3  H1           -5.9620725972       -9.6591838638        4.4142322474  CLST         357          1.0000000000
      1071       357  TIP3  H2           -6.6553223773       -8.5949300722        4.7846855404  CLST         357          1.0000000000
      1072       358  TIP3  OH2          -2.4205599103       -7.5924397544        4.1420881959  CLST         358          1.0000000000
      1073       358  TIP3  H1           -1.4714612689       -7.7225197637        4.0449330439  CLST         358          1.0000000000
      1074       358  TIP3  H2           -2.4360844355       -7.3488954608        5.0712915501  CLST         358          1.0000000000
      1075       359  TIP3  OH2          10.3490153795        9.9281109289       -1.8159224092  CLST         359          1.0000000000
      1076       359  TIP3  H1           10.0646734801       10.1894251601       -0.9348226950  CLST         359          1.0000000000
      1077       359  TIP3  H2           11.0011102342       10.6249602476       -1.9375746815  CLST         359          1.0000000000
      1078       360  TIP3  OH2           7.4939627817       12.8289757270       12.9757365459  CLST         360          1.0000000000
      1079       360  TIP3  H1            8.2301946038       13.3864958272       12.9172905320  CLST         360          1.0000000000
      1080       360  TIP3  H2            7.2366407926       12.6837632727       12.0538011188  CLST         360          1.0000000000
      1081       361  TIP3  OH2          -6.0387207748      -10.8947890843       10.5569315428  CLST         361          1.0000000000
      1082       361  TIP3  H1           -6.1656744361      -10.7133235112        9.6474508463  CLST         361          1.0000000000
      1083       361  TIP3  H2           -6.2279018885      -11.8050521313       10.3957487188  CLST         361          1.0000000000
      1084       362  TIP3  OH2           4.4642989648       -3.4844835362       10.5017450718  CLST         362          1.0000000000
      1085       362  TIP3  H1            4.3577834352       -3.0579036254        9.6535916540  CLST         362          1.0000000000
      1086       362  TIP3  H2            5.4115221424       -3.6731611155       10.5560075139  CLST         362          1.0000000000
      1087       363  TIP3  OH2           4.8501686802       -4.6918469227       13.9759549350  CLST         363          1.0000000000
      1088       363  TIP3  H1            4.6210266480       -4.4880772175       14.8375559034  CLST         363          1.0000000000
      1089       363  TIP3  H2            5.7439653486       -4.4235850439       13.9361989951  CLST         363          1.0000000000
      1090       364  TIP3  OH2          -0.9945373761        4.9532331427       13.4804620933  CLST         364          1.0000000000
      1091       364  TIP3  H1           -0.1175599878        4.7824721896       13.8987222252  CLST         364          1.0000000000
      1092       364  TIP3  H2           -0.9860109789        5.8900046024       13.4653064906  CLST         364          1.0000000000
      1093       365  TIP3  OH2          -7.7272536549        4.9009073291      -11.6607230904  CLST         365          1.0000000000
      1094       365  TIP3  H1           -8.1938088778        5.1320945238      -10.8787842487  CLST         365          1.0000000000
      1095       365  TIP3  H2           -6.8587040119        5.1444168938      -11.3444107207  CLST         365          1.0000000000
      1096       366  TIP3  OH2         -10.0338130977       -2.7869872815        0.6713656365  CLST         366          1.0000000000
      1097       366  TIP3  H1          -10.7998355050       -2.7575335168        1.2280168296  CLST         366          1.0000000000
      1098       366  TIP3  H2          -10.5148279212       -2.8709588744       -0.1610818624  CLST         366          1.0000000000
      1099       367  TIP3  OH2          13.6977737076       10.5206258287       11.7434557298  CLST         367          1.0000000000
      1100       367  TIP3  H1           13.0866309652       11.2185917277       11.5274501471  CLST         367          1.0000000000
      1101       367  TIP3  H2           13.2763428658       10.2782134841       12.5335751683  CLST         367          1.0000000000
      1102       368  TIP3  OH2          -9.8412072134       -1.2510766239       13.1020106026  CLST         368          1.0000000000
      1103       368  TIP3  H1          -10.5209435913       -0.9666244564       12.5329913971  CLST         368          1.0000000000
      1104       368  TIP3  H2           -9.6225603499       -2.1952570177       13.0124483165  CLST         368          1.0000000000
      1105       369  TIP3  OH2           7.7629641009        9.6133102634       -2.5319388214  CLST         369          1.0000000000
      1106       369  TIP3  H1            8.7229469148        9.6871454489       -2.5054692225  CLST         369          1.0000000000
      1107       369  TIP3  H2            7.7538282780        8.6730010519       -2.4404353540  CLST         369          1.0000000000
      1108       370  TIP3  OH2          -6.9208634141      -12.9523163286       -0.9348181470  CLST         370          1.0000000000
      1109       370  TIP3  H1           -6.0601903027      -13.3178707946       -0.7483393840  CLST         370          1.0000000000
      1110       370  TIP3  H2           -7.2574240401      -13.0884668406       -0.0528635993  CLST         370          1.0000000000
      1111       371  TIP3  OH2           8.7527479533       12.2278075935        9.8271795827  CLST         371          1.0000000000
      1112       371  TIP3  H1            8.8748683544       11.6087300609        9.1332764707  CLST         371          1.0000000000
      1113       371  TIP3  H2            7.7986616982       12.3336419284        9.8883079517  CLST         371          1.0000000000
      1114       372  TIP3  OH2          -1.1729404630       11.6199796430       -1.9339222608  CLST         372          1.0000000000
      1115       372  TIP3  H1           -1.8457539928       11.0097805758       -2.2505923631  CLST         372          1.0000000000
      1116       372  TIP3  H2           -0.8640309657       11.0611255291       -1.2283336662  CLST         372          1.0000000000
      1117       373  TIP3  OH2           8.7771556855       -5.5945149670        8.4911325081  CLST         373          1.0000000000
      1118       373  TIP3  H1            8.9348850378       -6.5305438192        8.3198085489  CLST         373          1.0000000000
      1119       373  TIP3  H2            9.6707229347       -5.3997296311        8.2129368078  CLST         373          1.0000000000
      1120       374  TIP3  OH2          11.2128437481       -9.7591719448       -4.4580611728  CLST         374          1.0000000000
      1121       374  TIP3  H1           11.5015078547      -10.0585025518       -3.5979344446  CLST         374          1.0000000000
      1122       374  TIP3  H2           10.7813685295      -10.6032850738       -4.5928858157  CLST         374          1.0000000000
      1123       375  TIP3  OH2           1.4733557851       13.5302140247       -2.8391368009  CLST         375          1.0000000000
      1124       375  TIP3  H1            1.3728611050       14.0377868711       -2.0286587470  CLST         375          1.0000000000
      1125       375  TIP3  H2            0.6389354536       13.7756011704       -3.2266878128  CLST         375          1.0000000000
      1126       376  TIP3  OH2          10.8060515480        4.4604006663       -8.7246639035  CLST         376          1.0000000000
      1127       376  TIP3  H1            9.8331775425        4.5466979405       -8.8064866657  CLST         376          1.0000000000
      1128       376  TIP3  H2           10.9602348781        4.9090120178       -9.5833369617  CLST         376          1.0000000000
      1129       377  TIP3  OH2           7.9166255810       11.1106510039      -11.7389434297  CLST         377          1.0000000000
      1130       377  TIP3  H1            7.9356172084       10.6875844360      -12.5678931742  CLST         377          1.0000000000
      1131       377  TIP3  H2            8.8770467133       11.2182015011      -11.6850817508  CLST         377          1.0000000000
      1132       378  TIP3  OH2           6.5149366663        9.4012375030        7.5466889622  CLST         378          1.0000000000
      1133       378  TIP3  H1            7.0227371194        8.6111288023        7.7046437972  CLST         378          1.0000000000
      1134       378  TIP3  H2            6.0664353272        9.4424666763        8.4076120703  CLST         378          1.0000000000
      1135       379  TIP3  OH2          -6.7618281064      -10.5673947538       -2.4558017459  CLST         379          1.0000000000
      1136       379  TIP3  H1           -6.8212285386      -10.6231054442       -3.4008481270  CLST         379          1.0000000000
      1137       379  TIP3  H2           -6.9693673137      -11.4923717285       -2.2991272248  CLST         379          1.0000000000
      1138       380  TIP3  OH2           7.4638130973       11.4950133965        4.7862814420  CLST         380          1.0000000000
      1139       380  TIP3  H1            6.6765535084       11.9646799921        4.5206961582  CLST         380          1.0000000000
      1140       380  TIP3  H2            7.7037135848       11.0193901892        4.0107929044  CLST         380          1.0000000000
      1141       381  TIP3  OH2          -7.4722815688       -6.8976390841      -10.1909654193  CLST         381          1.0000000000
      1142       381  TIP3  H1           -7.8684404173       -6.5055634387      -10.9752789549  CLST         381          1.0000000000
      1143       381  TIP3  H2           -6.6189906665       -6.4822412861      -10.3966815180  CLST         381          1.0000000000
      1144       382  TIP3  OH2          -3.5596995038        2.3535182707       -1.9693588067  CLST         382          1.0000000000
      1145       382  TIP3  H1           -4.1278902266        2.7133887284       -2.6287631340  CLST         382          1.0000000000
      1146       382  TIP3  H2           -4.0407443891        1.5163730861       -2.0772755065  CLST         382          1.0000000000
      1147       383  TIP3  OH2          -7.5246879015       -9.4113840716        8.6169799987  CLST         383          1.0000000000
      1148       383  TIP3  H1           -6.7313694996       -8.9968655461        8.8732872030  CLST         383          1.0000000000
      1149       383  TIP3  H2           -7.0597271938      -10.0675698485        8.1284184053  CLST         383          1.0000000000
      1150       384  TIP3  OH2         -11.8433672306       -5.3951657739       13.3551126776  CLST         384          1.0000000000
      1151       384  TIP3  H1          -11.7334134611       -6.2854383515       13.6989400888  CLST         384          1.0000000000
      1152       384  TIP3  H2          -12.2827903399       -5.5909761108       12.5577471915  CLST         384          1.0000000000
      1153       385  TIP3  OH2           7.8665836520        0.5584091064        9.0803138145  CLST         385          1.0000000000
      1154       385  TIP3  H1            8.0317853860        1.4746748344        9.2371842275  CLST         385          1.0000000000
      1155       385  TIP3  H2            8.4442561542        0.1666294302        9.7327723780  CLST         385          1.0000000000
      1156       386  TIP3  OH2         -12.5040526574       -8.7950093480        8.4763111982  CLST         386          1.0000000000
      1157       386  TIP3  H1          -11.9319374339       -8.0316547312        8.5408868414  CLST         386          1.0000000000
      1158       386  TIP3  H2          -12.8517677864       -8.8228443219        9.3430652259  CLST         386          1.0000000000
      1159       387  TIP3  OH2          -1.2024557422      -12.7636404856       -1.0330010563  CLST         387          1.0000000000
      1160       387  TIP3  H1           -1.4213377613      -12.8771002744       -0.1269535417  CLST         387          1.0000000000
      1161       387  TIP3  H2           -1.2777659347      -11.8975336157       -1.3469543878  CLST         387          1.0000000000
      1162       388  TIP3  OH2           3.4775077463        7.3145244128        7.0317057489  CLST         388          1.0000000000
      1163       388  TIP3  H1            3.0008588763        7.5795989573        6.2318428267  CLST         388          1.0000000000
      1164       388  TIP3  H2            4.3396397526        7.5163586843        6.6676531599  CLST         388          1.0000000000
      1165       389  TIP3  OH2          -3.7989266566      -11.0336856501       -0.1396177784  CLST         389          1.0000000000
      1166       389  TIP3  H1           -4.5031356418      -10.4258919800       -0.2986206483  CLST         389          1.0000000000
      1167       389  TIP3  H2           -3.4342635235      -10.9770424114       -1.0091823045  CLST         389          1.0000000000
      1168       390  TIP3  OH2          -0.9757108596        4.9588544152        4.6846216128  CLST         390          1.0000000000
      1169       390  TIP3  H1           -0.3957783804        4.7531311177        5.4247903371  CLST         390          1.0000000000
      1170       390  TIP3  H2           -0.4523875972        4.3895809563        4.0963181199  CLST         390          1.0000000000
      1171       391  TIP3  OH2          -6.0374154526       -4.8818197795        1.5222657654  CLST         391          1.0000000000
      1172       391  TIP3  H1           -5.9077617990       -4.0103082822        1.1853995778  CLST         391          1.0000000000
      1173       391  TIP3  H2           -6.8569815194       -4.8502530433        1.9787401464  CLST         391          1.0000000000
      1174       392  TIP3  OH2           4.9373326229        9.1156076810       -5.3070542980  CLST         392          1.0000000000
      1175       392  TIP3  H1            5.8249322425        8.8066112579       -5.1937460575  CLST         392          1.0000000000
      1176       392  TIP3  H2            4.8010026325        9.4671477978       -4.3988606239  CLST         392          1.0000000000
      1177       393  TIP3  OH2          13.2449942879       11.0012074769       -7.8470423746  CLST         393          1.0000000000
      1178       393  TIP3  H1           13.2279635062       10.2981768744       -8.4809385759  CLST         393          1.0000000000
      1179       393  TIP3  H2           12.6749825462       10.7722116353       -7.0760159682  CLST         393          1.0000000000
      1180       394  TIP3  OH2           1.1494396112        6.7688118607        5.2794980924  CLST         394          1.0000000000
      1181       394  TIP3  H1            0.7644021975        7.0676198780        4.4680635876  CLST         394          1.0000000000
      1182       394  TIP3  H2            1.4408804066        5.9235548288        4.9637046032  CLST         394          1.0000000000
      1183       395  TIP3  OH2          -6.0906894783        7.3808339992        0.1340346698  CLST         395          1.0000000000
      1184       395  TIP3  H1           -6.0687978232        6.6057169463        0.6828096806  CLST         395          1.0000000000
      1185       395  TIP3  H2           -5.2016170228        7.6639563979        0.4063490684  CLST         395          1.0000000000
      1186       396  TIP3  OH2          -3.5940000949        9.5907116232       -2.4098117704  CLST         396          1.0000000000
      1187       396  TIP3  H1           -3.7144062873        9.0524743920       -3.2017489691  CLST         396          1.0000000000
      1188       396  TIP3  H2           -4.3599211056       10.0964171934       -2.6939558861  CLST         396          1.0000000000
      1189       397  TIP3  OH2           2.6075975551      -12.7899985184      -13.4887712488  CLST         397          1.0000000000
      1190       397  TIP3  H1            2.0133240839      -12.0424018034      -13.3902754175  CLST         397          1.0000000000
      1191       397  TIP3  H2            3.0458157654      -12.6580058037      -12.6774880239  CLST         397          1.0000000000
      1192       398  TIP3  OH2           8.8371798515       -4.3992789676        0.7906645996  CLST         398          1.0000000000
      1193       398  TIP3  H1            8.5233081036       -5.2543568647        0.4407712583  CLST         398          1.0000000000
      1194       398  TIP3  H2            8.0965078739       -3.8367996887        0.6306645439  CLST         398          1.0000000000
      1195       399  TIP3  OH2         -14.4521018572       -3.0308317469       13.4474208843  CLST         399          1.0000000000
      1196       399  TIP3  H1          -14.8375559034       -3.7526899800       13.8887485310  CLST         399          1.0000000000
      1197       399  TIP3  H2          -13.5640175136       -3.2427534116       13.6216058440  CLST         399          1.0000000000
      1198       400  TIP3  OH2         -13.2965909483        8.6573577188        4.4332321179  CLST         400          1.0000000000
      1199       400  TIP3  H1          -13.5577309042        9.1865035078        5.2023086278  CLST         400          1.0000000000
      1200       400  TIP3  H2          -13.0303754183        7.9505921640        5.0124640310  CLST         400          1.0000000000
      1201       401  TIP3  OH2           1.4249005473        5.4027797103      -13.7873613870  CLST         401          1.0000000000
      1202       401  TIP3  H1            1.6407583664        5.3944051408      -14.7274542625  CLST         401          1.0000000000
      1203       401  TIP3  H2            1.0427920222        6.2747895502      -13.6893950745  CLST         401          1.0000000000
      1204       402  TIP3  OH2          14.4996655169       -5.1888444437       13.9207282515  CLST         402          1.0000000000
      1205       402  TIP3  H1           13.9143441198       -5.9607713124       13.9890913194  CLST         402          1.0000000000
      1206       402  TIP3  H2           14.6530515210       -5.0679526054       14.8375559034  CLST         402          1.0000000000
      1207       403  TIP3  OH2         -13.2247724292       12.1507452971       -2.8545465286  CLST         403          1.0000000000
      1208       403  TIP3  H1          -14.0648258144       11.8480178803       -3.2386768809  CLST         403          1.0000000000
      1209       403  TIP3  H2          -12.8427981785       12.3743572067       -3.7153819619  CLST         403          1.0000000000
      1210       404  TIP3  OH2           5.3689669377       -3.2545781672        0.3406894461  CLST         404          1.0000000000
      1211       404  TIP3  H1            4.5896300217       -2.8517731549        0.6564917291  CLST         404          1.0000000000
      1212       404  TIP3  H2            5.5517307213       -3.8288941337        1.0594482208  CLST         404          1.0000000000
      1213       405  TIP3  OH2           2.4760487779        8.4091865694       -3.1956574491  CLST         405          1.0000000000
      1214       405  TIP3  H1            2.3460170856        9.3511389973       -3.2948909424  CLST         405          1.0000000000
      1215       405  TIP3  H2            1.5179888375        8.1818956473       -3.1210779210  CLST         405          1.0000000000
      1216       406  TIP3  OH2          -8.9680995769       -2.5736966858       -7.3976677696  CLST         406          1.0000000000
      1217       406  TIP3  H1           -8.6179727338       -1.7776231473       -7.0297128745  CLST         406          1.0000000000
      1218       406  TIP3  H2           -9.8879347590       -2.3917364541       -7.2437930990  CLST         406          1.0000000000
      1219       407  TIP3  OH2           5.4146388408        5.6192014623        4.9358981759  CLST         407          1.0000000000
      1220       407  TIP3  H1            6.3181755651        5.4503593985        5.1915077092  CLST         407          1.0000000000
      1221       407  TIP3  H2            5.5010136581        5.6396885458        4.0131745280  CLST         407          1.0000000000
      1222       408  TIP3  OH2         -14.0847397006       -4.4567071507       -5.6006688425  CLST         408          1.0000000000
      1223       408  TIP3  H1          -14.2422194561       -3.5083720855       -5.7402747651  CLST         408          1.0000000000
      1224       408  TIP3  H2          -14.3728835214       -4.8360355241       -6.4648686514  CLST         408          1.0000000000
      1225       409  TIP3  OH2          -1.9961696250      -12.6321727731        1.4830116730  CLST         409          1.0000000000
      1226       409  TIP3  H1           -2.6571799836      -13.0732207075        1.9466293906  CLST         409          1.0000000000
      1227       409  TIP3  H2           -1.6423996306      -12.0342355413        2.1285789360  CLST         409          1.0000000000
      1228       410  TIP3  OH2          12.9482426686       -1.9405664305       11.0415867835  CLST         410          1.0000000000
      1229       410  TIP3  H1           12.4623324996       -1.1267122961       10.8834152190  CLST         410          1.0000000000
      1230       410  TIP3  H2           13.5643538521       -2.0359723982       10.2836395488  CLST         410          1.0000000000
      1231       411  TIP3  OH2           8.5814602349      -13.4612935468       -2.4440915043  CLST         411          1.0000000000
      1232       411  TIP3  H1            8.3954801653      -13.5474216321       -1.5277044840  CLST         411          1.0000000000
      1233       411  TIP3  H2            8.0550808058      -14.1191309259       -2.8043636367  CLST         411          1.0000000000
      1234       412  TIP3  OH2          13.2840538853       -4.3756802310       -7.5504083543  CLST         412          1.0000000000
      1235       412  TIP3  H1           12.7130770140       -4.2745767555       -8.3187618509  CLST         412          1.0000000000
      1236       412  TIP3  H2           12.7889845144       -3.8697580591       -6.9203380397  CLST         412          1.0000000000
      1237       413  TIP3  OH2           7.5241123843        8.4421527661       -5.2621171797  CLST         413          1.0000000000
      1238       413  TIP3  H1            7.8083552140        7.8186167904       -4.5886982598  CLST         413          1.0000000000
      1239       413  TIP3  H2            8.4091355504        8.7447538311       -5.5311830938  CLST         413          1.0000000000
      1240       414  TIP3  OH2          -9.2618930164       -5.1039140080      -11.9785940210  CLST         414          1.0000000000
      1241       414  TIP3  H1           -8.5095808514       -4.6005280881      -12.3107713584  CLST         414          1.0000000000
      1242       414  TIP3  H2           -9.5626466032       -4.5830932435      -11.2287286775  CLST         414          1.0000000000
      1243       415  TIP3  OH2         -14.0775700865        0.8806807636        5.5183021675  CLST         415          1.0000000000
      1244       415  TIP3  H1          -14.8375559034        1.3920939568        5.5731574532  CLST         415          1.0000000000
      1245       415  TIP3  H2          -13.6109801685        0.9360036179        6.3371433653  CLST         415          1.0000000000
      1246       416  TIP3  OH2          11.5164178146       12.5583614889       -2.1375473886  CLST         416          1.0000000000
      1247       416  TIP3  H1           12.0375140528       12.6457059624       -2.9452398336  CLST         416          1.0000000000
      1248       416  TIP3  H2           10.7388367002       13.0812478215       -2.3449089497  CLST         416          1.0000000000
      1249       417  TIP3  OH2          10.6201184810      -12.7980877044       -4.9708103873  CLST         417          1.0000000000
      1250       417  TIP3  H1           10.1141712023      -13.1244894497       -4.2446261656  CLST         417          1.0000000000
      1251       417  TIP3  H2           10.0055266746      -12.7925506707       -5.6968041218  CLST         417          1.0000000000
      1252       418  TIP3  OH2          -1.9670734722        5.3942595794        1.1184214972  CLST         418          1.0000000000
      1253       418  TIP3  H1           -2.4685181010        5.2079529837        0.3206305547  CLST         418          1.0000000000
      1254       418  TIP3  H2           -2.6637458026        5.3817626179        1.7426599965  CLST         418          1.0000000000
      1255       419  TIP3  OH2          -8.2169836147        9.3703832240        8.1150930347  CLST         419          1.0000000000
      1256       419  TIP3  H1           -8.3344390655       10.0547366858        7.4739497374  CLST         419          1.0000000000
      1257       419  TIP3  H2           -9.0794483031        9.3881588660        8.4355618832  CLST         419          1.0000000000
      1258       420  TIP3  OH2           3.3856762564        8.8970326449      -14.2634136710  CLST         420          1.0000000000
      1259       420  TIP3  H1            3.9691659678        9.1026233971      -13.5470239907  CLST         420          1.0000000000
      1260       420  TIP3  H2            3.4193725977        7.9302372223      -14.3891781785  CLST         420          1.0000000000
      1261       421  TIP3  OH2          -3.8292182238        7.0772682095       -3.6779038208  CLST         421          1.0000000000
      1262       421  TIP3  H1           -4.6509302681        6.6522106960       -3.9611019339  CLST         421          1.0000000000
      1263       421  TIP3  H2           -3.5418802371        6.4392343750       -3.0425230238  CLST         421          1.0000000000
      1264       422  TIP3  OH2           3.2131014063      -10.3998866188       -2.4246140005  CLST         422          1.0000000000
      1265       422  TIP3  H1            2.6218942100      -11.0870396098       -2.1135821536  CLST         422          1.0000000000
      1266       422  TIP3  H2            3.2437613770      -10.0122808985       -1.5245472301  CLST         422          1.0000000000
      1267       423  TIP3  OH2          -5.2366510225        5.2341370151        1.5975453049  CLST         423          1.0000000000
      1268       423  TIP3  H1           -4.7327646634        4.4663724756        1.2792963796  CLST         423          1.0000000000
      1269       423  TIP3  H2           -4.7689698589        5.5684824747        2.3637571133  CLST         423          1.0000000000
      1270       424  TIP3  OH2          -9.6467848337        8.5420536291        4.6962313909  CLST         424          1.0000000000
      1271       424  TIP3  H1           -9.2825552029        9.2236798861        4.1567783103  CLST         424          1.0000000000
      1272       424  TIP3  H2           -9.7411174932        7.8236976726        4.0886960615  CLST         424          1.0000000000
      1273       425  TIP3  OH2          -9.8588248196        2.5024225651       -9.0512290027  CLST         425          1.0000000000
      1274       425  TIP3  H1           -9.8376936590        1.5663625985       -8.9877421203  CLST         425          1.0000000000
      1275       425  TIP3  H2          -10.6216497407        2.7930722101       -8.5711830987  CLST         425          1.0000000000
      1276       426  TIP3  OH2          -1.0438112467       -8.9120948880       -4.1261928357  CLST         426          1.0000000000
      1277       426  TIP3  H1           -0.0758109283       -8.8995169006       -4.3053292159  CLST         426          1.0000000000
      1278       426  TIP3  H2           -1.2648446300       -9.3038356432       -4.9615247493  CLST         426          1.0000000000
      1279       427  TIP3  OH2          -9.7668993631        2.0084787392        5.2517165040  CLST         427          1.0000000000
      1280       427  TIP3  H1           -9.8040483542        2.9746907124        5.1220146189  CLST         427          1.0000000000
      1281       427  TIP3  H2          -10.4462127723        1.9652242633        5.9223177952  CLST         427          1.0000000000
      1282       428  TIP3  OH2          -6.5772646409       13.6862667994        6.7556643447  CLST         428          1.0000000000
      1283       428  TIP3  H1           -6.1845845588       14.5133387560        6.4830439586  CLST         428          1.0000000000
      1284       428  TIP3  H2           -6.5131114771       13.2086674888        5.9012776098  CLST         428          1.0000000000
      1285       429  TIP3  OH2           0.3202677580      -11.4460258722      -10.8262841389  CLST         429          1.0000000000
      1286       429  TIP3  H1           -0.5091293702      -11.8930762392      -11.0302538416  CLST         429          1.0000000000
      1287       429  TIP3  H2            0.0288634288      -11.0324994603      -10.0324290877  CLST         429          1.0000000000
      1288       430  TIP3  OH2           0.5336970899        9.9680467367       10.1152037840  CLST         430          1.0000000000
      1289       430  TIP3  H1           -0.2266421218       10.3882269340       10.4809278691  CLST         430          1.0000000000
      1290       430  TIP3  H2            0.9436410208        9.7352662427       10.9565755197  CLST         430          1.0000000000
      1291       431  TIP3  OH2          -6.2927623650       -3.5281747250       -3.9820663532  CLST         431          1.0000000000
      1292       431  TIP3  H1           -5.6494136693       -3.5249022421       -4.6891567329  CLST         431          1.0000000000
      1293       431  TIP3  H2           -7.0097041015       -3.8236850972       -4.5501825277  CLST         431          1.0000000000
      1294       432  TIP3  OH2          -5.2472875175        3.5952354569       -3.6403779515  CLST         432          1.0000000000
      1295       432  TIP3  H1           -5.9938599498        3.3780166954       -4.1767157223  CLST         432          1.0000000000
      1296       432  TIP3  H2           -5.6224718361        4.2076021324       -3.0074989884  CLST         432          1.0000000000
      1297       433  TIP3  OH2          -8.7010024387        3.2733469771       10.1846387134  CLST         433          1.0000000000
      1298       433  TIP3  H1           -8.3124241936        3.7138211114        9.4398683553  CLST         433          1.0000000000
      1299       433  TIP3  H2           -8.9221482080        4.0385451024       10.7315760376  CLST         433          1.0000000000
      1300       434  TIP3  OH2           1.0140869970       -4.0770424283        9.6498648609  CLST         434          1.0000000000
      1301       434  TIP3  H1            0.2431665014       -3.8096110635       10.2013608063  CLST         434          1.0000000000
      1302       434  TIP3  H2            1.4520923770       -3.1864009530        9.6426820078  CLST         434          1.0000000000
      1303       435  TIP3  OH2           7.5497667970       -8.3745496196        6.4657846701  CLST         435          1.0000000000
      1304       435  TIP3  H1            7.6574359575       -8.9405914230        5.7033505160  CLST         435          1.0000000000
      1305       435  TIP3  H2            6.9428934878       -7.7659451718        6.0602779706  CLST         435          1.0000000000
      1306       436  TIP3  OH2          -6.7130402742       13.9489975013       -2.2136606762  CLST         436          1.0000000000
      1307       436  TIP3  H1           -6.6979922631       14.8375559034       -2.5359010838  CLST         436          1.0000000000
      1308       436  TIP3  H2           -6.6702442383       14.1012326099       -1.2475186143  CLST         436          1.0000000000
      1309       437  TIP3  OH2          -0.9501108181      -13.2293066724        5.2366446188  CLST         437          1.0000000000
      1310       437  TIP3  H1           -1.7163201996      -12.6637143546        5.1494357045  CLST         437          1.0000000000
      1311       437  TIP3  H2           -0.2734463562      -12.6447651668        5.5568367414  CLST         437          1.0000000000
      1312       438  TIP3  OH2         -12.1114455577       -1.0896315708       -3.2507196193  CLST         438          1.0000000000
      1313       438  TIP3  H1          -11.9699237306       -1.8679036274       -2.7258004208  CLST         438          1.0000000000
      1314       438  TIP3  H2          -12.6971143745       -0.6694189298       -2.6063794234  CLST         438          1.0000000000
      1315       439  TIP3  OH2          -3.9613401815       -3.8335097331        3.5809539597  CLST         439          1.0000000000
      1316       439  TIP3  H1           -4.4596265088       -3.1884326252        4.0544077277  CLST         439          1.0000000000
      1317       439  TIP3  H2           -4.6072341009       -4.5347852210        3.6581287542  CLST         439          1.0000000000
      1318       440  TIP3  OH2         -10.0750542545      -11.6240055076       12.1994658060  CLST         440          1.0000000000
      1319       440  TIP3  H1           -9.9970865377      -11.1686406110       11.3634731714  CLST         440          1.0000000000
      1320       440  TIP3  H2           -9.1595309429      -11.8148613124       12.2011362670  CLST         440          1.0000000000
      1321       441  TIP3  OH2         -14.3377200637        3.6549671024        7.2445173846  CLST         441          1.0000000000
      1322       441  TIP3  H1          -14.2819140032        4.6049985798        7.3950829872  CLST         441          1.0000000000
      1323       441  TIP3  H2          -14.8375559034        3.6040318943        6.4292703903  CLST         441          1.0000000000
      1324       442  TIP3  OH2           9.3025322657        0.7093453504      -12.3193129000  CLST         442          1.0000000000
      1325       442  TIP3  H1            9.4504291605       -0.1841861275      -12.0082427314  CLST         442          1.0000000000
      1326       442  TIP3  H2           10.1751040804        0.9190085666      -12.5854436370  CLST         442          1.0000000000
      1327       443  TIP3  OH2           8.0800090160       -8.3291368099        3.6433836804  CLST         443          1.0000000000
      1328       443  TIP3  H1            8.8063920618       -7.7532610588        3.3743015771  CLST         443          1.0000000000
      1329       443  TIP3  H2            7.3532879125       -7.9646525583        3.1589561130  CLST         443          1.0000000000
      1330       444  TIP3  OH2          13.0091155453        8.2251364606       -0.2920485491  CLST         444          1.0000000000
      1331       444  TIP3  H1           13.2046899159        9.1501757735       -0.4179387146  CLST         444          1.0000000000
      1332       444  TIP3  H2           13.7910144861        7.7156430664       -0.1585685332  CLST         444          1.0000000000
      1333       445  TIP3  OH2          -8.7959434584       -9.6452416962       14.1584148267  CLST         445          1.0000000000
      1334       445  TIP3  H1           -8.6618585107       -8.8928869517       13.5905407294  CLST         445          1.0000000000
      1335       445  TIP3  H2           -8.1821473845       -9.6370958356       14.8375559034  CLST         445          1.0000000000
      1336       446  TIP3  OH2          12.8556262384       11.0249884852        0.0046229461  CLST         446          1.0000000000
      1337       446  TIP3  H1           12.5273002494       11.5493086041        0.7484011935  CLST         446          1.0000000000
      1338       446  TIP3  H2           12.5931416311       11.7346361635       -0.5906221558  CLST         446          1.0000000000
      1339       447  TIP3  OH2          -3.6700021808       13.3967316803        5.0082624923  CLST         447          1.0000000000
      1340       447  TIP3  H1           -4.1049754558       14.2099605661        5.3478866631  CLST         447          1.0000000000
      1341       447  TIP3  H2           -4.5078427321       12.9420692250        4.7578192559  CLST         447          1.0000000000
      1342       448  TIP3  OH2         -10.7327735256        9.2872202472      -13.1205595175  CLST         448          1.0000000000
      1343       448  TIP3  H1          -10.2276403424        9.7467526943      -12.4929915469  CLST         448          1.0000000000
      1344       448  TIP3  H2          -10.2277771156        8.5237262636      -13.4210376833  CLST         448          1.0000000000
      1345       449  TIP3  OH2           5.2844775756       -7.8549604571       -5.6564901444  CLST         449          1.0000000000
      1346       449  TIP3  H1            5.2298428673       -8.7234219752       -5.2814334716  CLST         449          1.0000000000
      1347       449  TIP3  H2            5.1938514718       -7.4958594954       -4.7847093288  CLST         449          1.0000000000
      1348       450  TIP3  OH2           4.8434477312       10.2171700556       11.7646885557  CLST         450          1.0000000000
      1349       450  TIP3  H1            5.6791779915        9.7128179099       11.7837242244  CLST         450          1.0000000000
      1350       450  TIP3  H2            4.6028946437        9.9376734572       10.8503894558  CLST         450          1.0000000000
      1351       451  TIP3  OH2         -12.6373117669       11.1929618405      -12.6708236415  CLST         451          1.0000000000
      1352       451  TIP3  H1          -12.6999212974       11.6023588987      -13.5203798386  CLST         451          1.0000000000
      1353       451  TIP3  H2          -11.8418622412       10.6905726888      -12.8176817221  CLST         451          1.0000000000
      1354       452  TIP3  OH2         -10.0081664420       14.2435309578        1.5398869226  CLST         452          1.0000000000
      1355       452  TIP3  H1          -10.6911220663       13.6416876940        1.7808113226  CLST         452          1.0000000000
      1356       452  TIP3  H2          -10.4917157668       14.8375559034        1.0170574144  CLST         452          1.0000000000
      1357       453  TIP3  OH2          -3.2311916519       -8.6144617967      -13.7729567354  CLST         453          1.0000000000
      1358       453  TIP3  H1           -4.0775484068       -8.8711807517      -13.3895761746  CLST         453          1.0000000000
      1359       453  TIP3  H2           -3.2322860023       -9.2070428702      -14.5284627313  CLST         453          1.0000000000
      1360       454  TIP3  OH2          13.5774984308      -13.3667035437       11.2880335184  CLST         454          1.0000000000
      1361       454  TIP3  H1           14.3324223262      -13.7305442978       11.7281126175  CLST         454          1.0000000000
      1362       454  TIP3  H2           13.2195308288      -12.9026609823       12.0198067138  CLST         454          1.0000000000
      1363       455  TIP3  OH2         -13.5270718797       -9.8820649440       -4.4148305223  CLST         455          1.0000000000
      1364       455  TIP3  H1          -13.6022615797       -8.9506381182       -4.5011348802  CLST         455          1.0000000000
      1365       455  TIP3  H2          -12.6919105180       -9.8242404544       -3.9527250124  CLST         455          1.0000000000
      1366       456  TIP3  OH2          -8.0765627634        7.2498560396        6.5178773496  CLST         456          1.0000000000
      1367       456  TIP3  H1           -7.9842643842        8.0260018767        7.0284547195  CLST         456          1.0000000000
      1368       456  TIP3  H2           -8.6013055674        7.6584158061        5.8387850528  CLST         456          1.0000000000
      1369       457  TIP3  OH2          -3.8068606033      -12.7851102515        8.4571528853  CLST         457          1.0000000000
      1370       457  TIP3  H1           -3.7807274221      -12.8064291348        9.4045274676  CLST         457          1.0000000000
      1371       457  TIP3  H2           -2.9895532685      -13.1492552997        8.2229155106  CLST         457          1.0000000000
      1372       458  TIP3  OH2          -2.4373461139       12.1525234628      -11.4062578613  CLST         458          1.0000000000
      1373       458  TIP3  H1           -3.3322268776       12.4151702618      -11.5658767671  CLST         458          1.0000000000
      1374       458  TIP3  H2           -2.4714355854       11.3283303415      -11.8726660683  CLST         458          1.0000000000
      1375       459  TIP3  OH2         -13.6499523098        7.2288223291       -3.8867341488  CLST         459          1.0000000000
      1376       459  TIP3  H1          -13.6959330577        7.8523208841       -3.1333717324  CLST         459          1.0000000000
      1377       459  TIP3  H2          -13.0700425318        7.7731565032       -4.4247484045  CLST         459          1.0000000000
      1378       460  TIP3  OH2           7.2464876266        9.6215036234      -13.9093167097  CLST         460          1.0000000000
      1379       460  TIP3  H1            6.5838032286        9.4651663137      -13.2213965525  CLST         460          1.0000000000
      1380       460  TIP3  H2            6.9408290263       10.3831658851      -14.4319313618  CLST         460          1.0000000000
      1381       461  TIP3  OH2           0.4828156472        7.7450955394      -12.7876278564  CLST         461          1.0000000000
      1382       461  TIP3  H1           -0.2299644266        7.2099179737      -12.4411138637  CLST         461          1.0000000000
      1383       461  TIP3  H2            0.6154869539        8.1692349166      -11.9115840443  CLST         461          1.0000000000
      1384       462  TIP3  OH2           4.3792599008        7.8365012176      -10.1223459525  CLST         462          1.0000000000
      1385       462  TIP3  H1            3.5710266110        7.4293032148      -10.3990017843  CLST         462          1.0000000000
      1386       462  TIP3  H2            4.4265179769        7.5731870299       -9.2310601883  CLST         462          1.0000000000
      1387       463  TIP3  OH2          -1.1576952395      -11.6460672970       -8.2700219042  CLST         463          1.0000000000
      1388       463  TIP3  H1           -1.9478691276      -12.0217482254       -8.6809151541  CLST         463          1.0000000000
      1389       463  TIP3  H2           -1.4392907917      -11.6816510256       -7.3682274046  CLST         463          1.0000000000
      1390       464  TIP3  OH2          -2.1339385411        2.6939229151       14.3872016597  CLST         464          1.0000000000
      1391       464  TIP3  H1           -2.9182411375        2.4931158654       13.9042396032  CLST         464          1.0000000000
      1392       464  TIP3  H2           -2.2691383934        3.6416523644       14.2877032315  CLST         464          1.0000000000
      1393       465  TIP3  OH2         -14.4622268054        6.2258262846        8.1128413228  CLST         465          1.0000000000
      1394       465  TIP3  H1          -14.8375559034        5.8350627902        8.8699733833  CLST         465          1.0000000000
      1395       465  TIP3  H2          -14.2690932143        7.1125955039        8.4276431231  CLST         465          1.0000000000
      1396       466  TIP3  OH2          -3.9971733091      -13.5574370147        3.0073633952  CLST         466          1.0000000000
      1397       466  TIP3  H1           -4.4752480549      -14.3132146860        3.2771487953  CLST         466          1.0000000000
      1398       466  TIP3  H2           -4.7168280722      -13.0259172175        2.7602490338  CLST         466          1.0000000000
      1399       467  TIP3  OH2           4.5193468555       14.5741476071        8.1906659664  CLST         467          1.0000000000
      1400       467  TIP3  H1            5.2033691120       14.0330736757        8.6070629723  CLST         467          1.0000000000
      1401       467  TIP3  H2            4.0758579041       14.8375559034        9.0014620275  CLST         467          1.0000000000
      1402       468  TIP3  OH2          -8.6014800882       -0.8398213459        1.8911073529  CLST         468          1.0000000000
      1403       468  TIP3  H1           -8.6759682775       -1.2591474386        2.7309677197  CLST         468          1.0000000000
      1404       468  TIP3  H2           -9.1289938476       -1.3989660617        1.3454827400  CLST         468          1.0000000000
      1405       469  TIP3  OH2           7.0487209359        0.9740602655       14.6173259704  CLST         469          1.0000000000
      1406       469  TIP3  H1            6.2907284682        0.5354138271       14.2774460074  CLST         469          1.0000000000
      1407       469  TIP3  H2            6.9232891441        1.8188610723       14.1972497160  CLST         469          1.0000000000
      1408       470  TIP3  OH2           1.0683904881       11.5738823997       -8.8000726013  CLST         470          1.0000000000
      1409       470  TIP3  H1            1.4164384832       12.4477816122       -8.8691336700  CLST         470          1.0000000000
      1410       470  TIP3  H2            1.7551570409       11.1795184271       -8.2848476788  CLST         470          1.0000000000
      1411       471  TIP3  OH2           5.3439319327        5.6182003038       -2.1116472663  CLST         471          1.0000000000
      1412       471  TIP3  H1            4.8687618950        5.6718326105       -2.9368569030  CLST         471          1.0000000000
      1413       471  TIP3  H2            4.6646795426        5.7554890192       -1.5120997458  CLST         471          1.0000000000
      1414       472  TIP3  OH2           5.3947261634      -12.3465220342       -6.9601440899  CLST         472          1.0000000000
      1415       472  TIP3  H1            5.0449679634      -13.0516399340       -7.5147748926  CLST         472          1.0000000000
      1416       472  TIP3  H2            5.6458332531      -12.7293517933       -6.1583823712  CLST         472          1.0000000000
      1417       473  TIP3  OH2          -4.0168730581        2.8272471797        1.1048563545  CLST         473          1.0000000000
      1418       473  TIP3  H1           -3.0864895281        2.6617857157        0.9922931882  CLST         473          1.0000000000
      1419       473  TIP3  H2           -4.3391461665        2.1234329434        0.5451763410  CLST         473          1.0000000000
      1420       474  TIP3  OH2           8.3842406000        4.4948004347        7.5818156153  CLST         474          1.0000000000
      1421       474  TIP3  H1            7.6310375486        3.9711422142        7.3898363360  CLST         474          1.0000000000
      1422       474  TIP3  H2            9.0340612388        4.0534030885        7.0643703071  CLST         474          1.0000000000
      1423       475  TIP3  OH2           6.1243096631       -3.8160953527       -7.9848574923  CLST         475          1.0000000000
      1424       475  TIP3  H1            5.7759043418       -3.3595773342       -8.7402071555  CLST         475          1.0000000000
      1425       475  TIP3  H2            6.6942124307       -4.3551600790       -8.4995210072  CLST         475          1.0000000000
      1426       476  TIP3  OH2           3.3975258678       10.1703087924       -8.0228823539  CLST         476          1.0000000000
      1427       476  TIP3  H1            3.8267236302        9.3240779892       -7.9207318798  CLST         476          1.0000000000
      1428       476  TIP3  H2            3.3975487310       10.4265400298       -7.1076572230  CLST         476          1.0000000000
      1429       477  TIP3  OH2          -7.2073766587       -3.4855603234       -9.7826511853  CLST         477          1.0000000000
      1430       477  TIP3  H1           -6.7619276681       -3.2720336193      -10.5625488366  CLST         477          1.0000000000
      1431       477  TIP3  H2           -6.5574081922       -3.3492478754       -9.1007362300  CLST         477          1.0000000000
      1432       478  TIP3  OH2           0.7788029604       -5.0180274143      -12.7072899891  CLST         478          1.0000000000
      1433       478  TIP3  H1            1.2862939538       -5.7960257654      -12.4666123001  CLST         478          1.0000000000
      1434       478  TIP3  H2            1.3216931339       -4.3473351764      -12.3649606044  CLST         478          1.0000000000
      1435       479  TIP3  OH2           0.2526513126       -1.5692361710       -7.3843710322  CLST         479          1.0000000000
      1436       479  TIP3  H1            0.4813680405       -1.2619736648       -6.4760577124  CLST         479          1.0000000000
      1437       479  TIP3  H2            1.0374927123       -1.2581897089       -7.8472809670  CLST         479          1.0000000000
      1438       480  TIP3  OH2           5.6928502476       -1.0071306730        9.0207302213  CLST         480          1.0000000000
      1439       480  TIP3  H1            6.0843558359       -1.8662647855        8.9886137443  CLST         480          1.0000000000
      1440       480  TIP3  H2            6.5369160593       -0.5986775560        8.9593905265  CLST         480          1.0000000000
      1441       481  TIP3  OH2          -6.8120748289        2.2936042594       -5.7356242947  CLST         481          1.0000000000
      1442       481  TIP3  H1           -7.3249217079        2.9676832279       -6.1723390299  CLST         481          1.0000000000
      1443       481  TIP3  H2           -6.0366295029        2.3727491943       -6.2355581722  CLST         481          1.0000000000
      1444       482  TIP3  OH2           3.5790171087       -7.9117657770        4.3729127652  CLST         482          1.0000000000
      1445       482  TIP3  H1            4.2877776697       -7.6240794820        4.9130154616  CLST         482          1.0000000000
      1446       482  TIP3  H2            3.1973288182       -7.0888005377        4.1253723948  CLST         482          1.0000000000
      1447       483  TIP3  OH2         -14.7866474552        0.3641167391       -8.2521241050  CLST         483          1.0000000000
      1448       483  TIP3  H1          -14.8375559034       -0.3433856283       -8.8691935423  CLST         483          1.0000000000
      1449       483  TIP3  H2          -13.9161296167        0.3128933959       -7.9017233294  CLST         483          1.0000000000
      1450       484  TIP3  OH2          14.7612432373       -2.4160716693       -8.7601603615  CLST         484          1.0000000000
      1451       484  TIP3  H1           14.3110637861       -3.1160360998       -8.2793776758  CLST         484          1.0000000000
      1452       484  TIP3  H2           14.0224793058       -2.0415192667       -9.2625224512  CLST         484          1.0000000000
      1453       485  TIP3  OH2          -3.5569415926        5.4026467368        3.7316308689  CLST         485          1.0000000000
      1454       485  TIP3  H1           -2.7419947312        5.2087670079        4.2387048858  CLST         485          1.0000000000
      1455       485  TIP3  H2           -3.9881334817        5.7813601513        4.5160720469  CLST         485          1.0000000000
      1456       486  TIP3  OH2          11.1378290000       13.0161439103       -9.0994499395  CLST         486          1.0000000000
      1457       486  TIP3  H1           11.4203506683       12.5859872660       -8.3066087945  CLST         486          1.0000000000
      1458       486  TIP3  H2           11.9618960792       12.8742281387       -9.5840312928  CLST         486          1.0000000000
      1459       487  TIP3  OH2           2.1170636788       -5.7803827262        3.4588797283  CLST         487          1.0000000000
      1460       487  TIP3  H1            2.6042745816       -5.1358391623        3.9437598062  CLST         487          1.0000000000
      1461       487  TIP3  H2            1.8233880813       -5.2795871954        2.7084358588  CLST         487          1.0000000000
      1462       488  TIP3  OH2         -11.5996205801       -0.7315832108       11.0149086920  CLST         488          1.0000000000
      1463       488  TIP3  H1          -12.0528186776        0.1096465241       10.9348403197  CLST         488          1.0000000000
      1464       488  TIP3  H2          -10.9356677385       -0.6164834993       10.3444843410  CLST         488          1.0000000000
      1465       489  TIP3  OH2          -8.4503775653        8.0717205765       -4.5291616668  CLST         489          1.0000000000
      1466       489  TIP3  H1           -8.5632944733        8.1947342094       -3.6125037613  CLST         489          1.0000000000
      1467       489  TIP3  H2           -7.5591567007        7.8274658459       -4.5936831096  CLST         489          1.0000000000
      1468       490  TIP3  OH2         -11.3735423777       11.0752346174        5.1619506653  CLST         490          1.0000000000
      1469       490  TIP3  H1          -11.3515150784       10.1459984778        5.3414456836  CLST         490          1.0000000000
      1470       490  TIP3  H2          -10.6052073160       11.1641666552        4.6356392453  CLST         490          1.0000000000
      1471       491  TIP3  OH2          -0.8504329876      -10.1550208768       10.9813223702  CLST         491          1.0000000000
      1472       491  TIP3  H1           -0.0843905749      -10.2010948908       10.4614794502  CLST         491          1.0000000000
      1473       491  TIP3  H2           -0.5171038907       -9.4197914078       11.4767005471  CLST         491          1.0000000000
      1474       492  TIP3  OH2          -2.1908031931       10.2505192386        2.7996594489  CLST         492          1.0000000000
      1475       492  TIP3  H1           -1.4529817767       10.8292698212        2.7765631441  CLST         492          1.0000000000
      1476       492  TIP3  H2           -2.7238128662       10.6493169082        2.1584783767  CLST         492          1.0000000000
      1477       493  TIP3  OH2          -6.1017658071       10.4411456299       -2.8428679591  CLST         493          1.0000000000
      1478       493  TIP3  H1           -6.7245917007       10.9799450195       -3.3526884038  CLST         493          1.0000000000
      1479       493  TIP3  H2           -6.7397126752       10.1693856421       -2.2041470127  CLST         493          1.0000000000
      1480       494  TIP3  OH2         -13.7792555905       10.7939136787       12.4161914052  CLST         494          1.0000000000
      1481       494  TIP3  H1          -14.6842464409       10.9491874390       12.2059478971  CLST         494          1.0000000000
      1482       494  TIP3  H2          -13.3876229645       11.5813913791       12.0895090318  CLST         494          1.0000000000
      1483       495  TIP3  OH2           3.1291510255      -12.9633461943       13.8672535873  CLST         495          1.0000000000
      1484       495  TIP3  H1            2.8775714721      -13.0118182321       14.7691156027  CLST         495          1.0000000000
      1485       495  TIP3  H2            3.6053818361      -12.1238535892       13.8706933698  CLST         495          1.0000000000
      1486       496  TIP3  OH2         -14.7998033582        6.4873685947        0.2398526990  CLST         496          1.0000000000
      1487       496  TIP3  H1          -14.0767947457        6.5404887846        0.8632335290  CLST         496          1.0000000000
      1488       496  TIP3  H2          -14.8375559034        5.5572889651        0.2021156932  CLST         496          1.0000000000
      1489       497  TIP3  OH2         -13.6096609815       -8.6504369868        3.3263660458  CLST         497          1.0000000000
      1490       497  TIP3  H1          -14.1673868269       -7.8917583922        3.1915839240  CLST         497          1.0000000000
      1491       497  TIP3  H2          -13.6933193167       -8.8279046140        4.2540579540  CLST         497          1.0000000000
      1492       498  TIP3  OH2           4.2907550304       14.2116854639      -10.7352613817  CLST         498          1.0000000000
      1493       498  TIP3  H1            4.5817394971       14.1576510269      -11.6644432167  CLST         498          1.0000000000
      1494       498  TIP3  H2            4.9946694981       13.6296263662      -10.4677899208  CLST         498          1.0000000000
      1495       499  TIP3  OH2           1.4734868053       10.8767794287       -2.8783630329  CLST         499          1.0000000000
      1496       499  TIP3  H1            0.5540650759       11.1261251919       -2.7284957571  CLST         499          1.0000000000
      1497       499  TIP3  H2            1.8790642084       11.6222988427       -2.4186415150  CLST         499          1.0000000000
      1498       500  TIP3  OH2          -6.2734956183       -2.4623364718        4.3181304280  CLST         500          1.0000000000
      1499       500  TIP3  H1           -7.1138311187       -2.0039500619        4.3070102118  CLST         500          1.0000000000
      1500       500  TIP3  H2           -5.8410343639       -1.9258581628        3.6766176664  CLST         500          1.0000000000
      1501       501  TIP3  OH2         -12.5678834977      -13.4264137861       -6.0966500779  CLST         501          1.0000000000
      1502       501  TIP3  H1          -13.2720823677      -12.8182661492       -6.2270103019  CLST         501          1.0000000000
      1503       501  TIP3  H2          -11.8706725901      -12.8327194488       -6.3391156804  CLST         501          1.0000000000
      1504       502  TIP3  OH2          -1.4729756003       -3.6645631767      -11.5037434497  CLST         502          1.0000000000
      1505       502  TIP3  H1           -1.2046337792       -2.7805838088      -11.4043905421  CLST         502          1.0000000000
      1506       502  TIP3  H2           -0.7686734072       -4.0872551321      -11.9867341706  CLST         502          1.0000000000
      1507       503  TIP3  OH2          -0.2791630838       -5.0029171161        1.0974493700  CLST         503          1.0000000000
      1508       503  TIP3  H1            0.5359982600       -4.9902670309        0.6200315498  CLST         503          1.0000000000
      1509       503  TIP3  H2           -0.7942365828       -5.5368044271        0.4972848694  CLST         503          1.0000000000
      1510       504  TIP3  OH2          -4.2600915580       -3.5478107780       12.6033109325  CLST         504          1.0000000000
      1511       504  TIP3  H1           -4.8101456639       -4.3263781849       12.8408469885  CLST         504          1.0000000000
      1512       504  TIP3  H2           -4.1346278293       -3.2391401836       13.4982295080  CLST         504          1.0000000000
      1513       505  TIP3  OH2           5.8289802814       12.1494487982       -9.3562359572  CLST         505          1.0000000000
      1514       505  TIP3  H1            5.9269048639       11.5928617565       -8.5944829804  CLST         505          1.0000000000
      1515       505  TIP3  H2            6.7545646009       12.5061230827       -9.3054161332  CLST         505          1.0000000000
      1516       506  TIP3  OH2          -4.0176776062        3.5125531071       10.3380689605  CLST         506          1.0000000000
      1517       506  TIP3  H1           -4.7028722838        3.5233340329        9.6355681756  CLST         506          1.0000000000
      1518       506  TIP3  H2           -4.3870079433        2.8499718875       10.9195758268  CLST         506          1.0000000000
      1519       507  TIP3  OH2          -2.1814751035        6.8241871144      -12.5764125786  CLST         507          1.0000000000
      1520       507  TIP3  H1           -2.2996025316        5.9275680919      -12.2568107931  CLST         507          1.0000000000
      1521       507  TIP3  H2           -2.9712370864        6.8707332295      -13.1087094854  CLST         507          1.0000000000
      1522       508  TIP3  OH2         -11.2624530806        5.0362618866      -11.7172947593  CLST         508          1.0000000000
      1523       508  TIP3  H1          -12.0186606830        5.5456841410      -11.5384780183  CLST         508          1.0000000000
      1524       508  TIP3  H2          -11.6248768457        4.2221395521      -12.0276294258  CLST         508          1.0000000000
      1525       509  TIP3  OH2           5.1384624737        0.4852365258      -10.9252593587  CLST         509          1.0000000000
      1526       509  TIP3  H1            5.7391389288        0.5226779069      -10.2118896747  CLST         509          1.0000000000
      1527       509  TIP3  H2            5.8061093189        0.2233204790      -11.5904025094  CLST         509          1.0000000000
      1528       510  TIP3  OH2          -4.4412699082        0.1352383483       -3.8536178236  CLST         510          1.0000000000
      1529       510  TIP3  H1           -4.8555624087       -0.2045784632       -4.6617856798  CLST         510          1.0000000000
      1530       510  TIP3  H2           -3.6871073180        0.6041511406       -4.1289978773  CLST         510          1.0000000000
      1531       511  TIP3  OH2         -10.7752514469        1.6511266852       -0.9618119170  CLST         511          1.0000000000
      1532       511  TIP3  H1          -11.1690306882        2.2180914013       -0.3224814553  CLST         511          1.0000000000
      1533       511  TIP3  H2          -11.1403977562        0.8528084476       -0.5658047685  CLST         511          1.0000000000
      1534       512  TIP3  OH2          -3.2813079758       -8.2333538978       -8.5593769825  CLST         512          1.0000000000
      1535       512  TIP3  H1           -3.2588065866       -8.8159744599       -9.3239220416  CLST         512          1.0000000000
      1536       512  TIP3  H2           -2.8288980286       -7.4873880970       -8.9745077849  CLST         512          1.0000000000
      1537       513  TIP3  OH2           9.4667925044       13.9723116130       11.3956150164  CLST         513          1.0000000000
      1538       513  TIP3  H1            9.5179606290       14.8375559034       10.9917076808  CLST         513          1.0000000000
      1539       513  TIP3  H2            8.9838644869       13.5299864251       10.7024230089  CLST         513          1.0000000000
      1540       514  TIP3  OH2          -4.8461994920        7.9184444463      -13.0796266378  CLST         514          1.0000000000
      1541       514  TIP3  H1           -5.1630204800        8.1384736186      -13.9337151454  CLST         514          1.0000000000
      1542       514  TIP3  H2           -5.6695865332        8.0455169488      -12.6175034625  CLST         514          1.0000000000
      1543       515  TIP3  OH2           6.0803691117        6.0603060645       -6.1368713200  CLST         515          1.0000000000
      1544       515  TIP3  H1            5.5146122036        6.0965468753       -5.3596990619  CLST         515          1.0000000000
      1545       515  TIP3  H2            6.7648974357        6.6099495069       -5.7678417713  CLST         515          1.0000000000
      1546       516  TIP3  OH2           9.4412049117        0.3994764874       -8.2200519731  CLST         516          1.0000000000
      1547       516  TIP3  H1           10.3672220122        0.3320558506       -7.9961159579  CLST         516          1.0000000000
      1548       516  TIP3  H2            9.3477769811        1.2696095140       -7.8937427317  CLST         516          1.0000000000
      1549       517  TIP3  OH2          14.0468661149       -7.0882392557       -9.0561344617  CLST         517          1.0000000000
      1550       517  TIP3  H1           14.4739234112       -6.2509804694       -8.8741782020  CLST         517          1.0000000000
      1551       517  TIP3  H2           14.6622297502       -7.6555101741       -8.6085975049  CLST         517          1.0000000000
      1552       518  TIP3  OH2          -0.7397084286       12.2708007364       -5.8736697604  CLST         518          1.0000000000
      1553       518  TIP3  H1            0.1514175802       12.3185429449       -6.1143709672  CLST         518          1.0000000000
      1554       518  TIP3  H2           -0.7926952300       13.0516158369       -5.3301497766  CLST         518          1.0000000000
      1555       519  TIP3  OH2           0.7489734227        5.1058589731        1.1878833809  CLST         519          1.0000000000
      1556       519  TIP3  H1            0.7997959789        4.1677913011        1.0196112165  CLST         519          1.0000000000
      1557       519  TIP3  H2           -0.1915035234        5.0772388248        1.0514807690  CLST         519          1.0000000000
      1558       520  TIP3  OH2           6.8103472761        6.7392461756      -10.5404632549  CLST         520          1.0000000000
      1559       520  TIP3  H1            6.0208651586        7.2550934696      -10.5988339924  CLST         520          1.0000000000
      1560       520  TIP3  H2            7.2271957848        7.2406965000       -9.8093960223  CLST         520          1.0000000000
      1561       521  TIP3  OH2          -5.6697805747       10.1637821545        9.5186119633  CLST         521          1.0000000000
      1562       521  TIP3  H1           -4.8302737217       10.3065567657        9.8725210927  CLST         521          1.0000000000
      1563       521  TIP3  H2           -5.4656510192       10.4850025803        8.6537634948  CLST         521          1.0000000000
      1564       522  TIP3  OH2           2.9876601998        4.0001158880        2.1841891169  CLST         522          1.0000000000
      1565       522  TIP3  H1            2.2995878693        4.5534056429        1.9317585345  CLST         522          1.0000000000
      1566       522  TIP3  H2            3.1321215074        3.5594131515        1.3479108601  CLST         522          1.0000000000
      1567       523  TIP3  OH2           8.3196979608        0.6158654066       -3.4397917989  CLST         523          1.0000000000
      1568       523  TIP3  H1            7.3658895752        0.4443701620       -3.6108561034  CLST         523          1.0000000000
      1569       523  TIP3  H2            8.6382209901       -0.1540155522       -3.8621004181  CLST         523          1.0000000000
      1570       524  TIP3  OH2          -5.2077222579        5.8141021826      -10.7210575330  CLST         524          1.0000000000
      1571       524  TIP3  H1           -4.7611165858        6.5996237754      -11.0565264805  CLST         524          1.0000000000
      1572       524  TIP3  H2           -4.6240760402        5.1271089342      -10.9424275735  CLST         524          1.0000000000
      1573       525  TIP3  OH2          -5.6260121988        5.7852447412       -7.9964172239  CLST         525          1.0000000000
      1574       525  TIP3  H1           -5.0365001584        6.5231723339       -8.3107485521  CLST         525          1.0000000000
      1575       525  TIP3  H2           -5.3393588239        5.2336915998       -8.7362496704  CLST         525          1.0000000000
      1576       526  TIP3  OH2           9.5258343906      -11.1207061719      -13.0202083424  CLST         526          1.0000000000
      1577       526  TIP3  H1           10.1252194172      -10.7895485613      -13.6563446535  CLST         526          1.0000000000
      1578       526  TIP3  H2            8.7143355922      -10.8341874176      -13.4216882283  CLST         526          1.0000000000
      1579       527  TIP3  OH2         -11.5447331239       -3.1687670167       -1.5934650388  CLST         527          1.0000000000
      1580       527  TIP3  H1          -12.3196326428       -3.7082226151       -1.8053030217  CLST         527          1.0000000000
      1581       527  TIP3  H2          -10.9114545863       -3.4632296387       -2.2385097047  CLST         527          1.0000000000
      1582       528  TIP3  OH2           4.6740046785      -12.0516154284      -11.2220135554  CLST         528          1.0000000000
      1583       528  TIP3  H1            4.5310159338      -11.1509927078      -10.9348315073  CLST         528          1.0000000000
      1584       528  TIP3  H2            4.9575136109      -11.8994821630      -12.1027026292  CLST         528          1.0000000000
      1585       529  TIP3  OH2          -5.9260129629       -6.9201643602       -4.7336319640  CLST         529          1.0000000000
      1586       529  TIP3  H1           -5.2356074544       -7.5449140077       -4.9033955308  CLST         529          1.0000000000
      1587       529  TIP3  H2           -5.5913169829       -6.1483235016       -5.1807191935  CLST         529          1.0000000000
      1588       530  TIP3  OH2           2.7632594455       -5.7829772666        6.4796769038  CLST         530          1.0000000000
      1589       530  TIP3  H1            2.3306745744       -6.3046321809        7.1844045198  CLST         530          1.0000000000
      1590       530  TIP3  H2            1.9627645137       -5.7824772707        5.9060926029  CLST         530          1.0000000000
      1591       531  TIP3  OH2          -3.3122934360       -3.3661206953       14.7423934384  CLST         531          1.0000000000
      1592       531  TIP3  H1           -4.1115107682       -2.8445873798       14.8375559034  CLST         531          1.0000000000
      1593       531  TIP3  H2           -2.7581673270       -2.6062361221       14.7461539171  CLST         531          1.0000000000
      1594       532  TIP3  OH2          -1.0994429341       -3.6259084163       -2.0212809421  CLST         532          1.0000000000
      1595       532  TIP3  H1           -1.6608032498       -2.8718628319       -2.1023076872  CLST         532          1.0000000000
      1596       532  TIP3  H2           -1.7233513897       -4.2252250383       -1.6219237147  CLST         532          1.0000000000
      1597       533  TIP3  OH2          -3.1851155598       13.4697381368        8.0550456089  CLST         533          1.0000000000
      1598       533  TIP3  H1           -4.0925725345       13.5673005749        7.8686405281  CLST         533          1.0000000000
      1599       533  TIP3  H2           -3.1727255178       12.5399593240        8.0846979903  CLST         533          1.0000000000
      1600       534  TIP3  OH2           6.8758667008       -4.3781570577       -5.1596348744  CLST         534          1.0000000000
      1601       534  TIP3  H1            6.1049781761       -4.4054841088       -4.6236108553  CLST         534          1.0000000000
      1602       534  TIP3  H2            6.3692750868       -4.3560875647       -5.9827818806  CLST         534          1.0000000000
      1603       535  TIP3  OH2           7.0895715740       -3.8282595628      -11.5793470871  CLST         535          1.0000000000
      1604       535  TIP3  H1            6.3487809346       -3.4305715970      -11.1178282464  CLST         535          1.0000000000
      1605       535  TIP3  H2            7.3879860621       -4.3298521054      -10.8391776464  CLST         535          1.0000000000
      1606       536  TIP3  OH2          14.2825841662        7.9765071501       10.7811510741  CLST         536          1.0000000000
      1607       536  TIP3  H1           13.8652577576        8.7656783818       11.1206105699  CLST         536          1.0000000000
      1608       536  TIP3  H2           14.8375559034        8.4480323830       10.1341444063  CLST         536          1.0000000000
      1609       537  TIP3  OH2           4.6481451201       -4.3487184655       -3.6177181274  CLST         537          1.0000000000
      1610       537  TIP3  H1            3.9416053521       -3.8529117716       -4.0004199159  CLST         537          1.0000000000
      1611       537  TIP3  H2            4.2182181358       -5.1604546869       -3.3502942983  CLST         537          1.0000000000
      1612       538  TIP3  OH2          -0.5683185012        7.5990212934       13.1404705173  CLST         538          1.0000000000
      1613       538  TIP3  H1           -1.1411197718        7.5463540330       12.3910207394  CLST         538          1.0000000000
      1614       538  TIP3  H2           -0.6718048546        8.5168452091       13.2825223186  CLST         538          1.0000000000
      1615       539  TIP3  OH2           6.1392495764        8.7446420120        1.1147636329  CLST         539          1.0000000000
      1616       539  TIP3  H1            6.6949724568        8.0904484857        0.6870172255  CLST         539          1.0000000000
      1617       539  TIP3  H2            5.6839644137        8.0504323161        1.5994489434  CLST         539          1.0000000000
      1618       540  TIP3  OH2          12.2720766266       -1.1919144238       -4.0204807862  CLST         540          1.0000000000
      1619       540  TIP3  H1           12.8971951142       -0.4791941549       -4.2115276780  CLST         540          1.0000000000
      1620       540  TIP3  H2           12.3228569819       -1.1736902827       -3.0735341961  CLST         540          1.0000000000
      1621       541  TIP3  OH2          10.4137641734        7.2306503393        8.4472194957  CLST         541          1.0000000000
      1622       541  TIP3  H1           10.3078425735        7.5749557729        9.3204450087  CLST         541          1.0000000000
      1623       541  TIP3  H2           11.1062873210        6.6356406481        8.6595972985  CLST         541          1.0000000000
      1624       542  TIP3  OH2          13.6514358070        0.8482937592       -5.4116886377  CLST         542          1.0000000000
      1625       542  TIP3  H1           13.2526205717        1.5125463276       -5.9635456259  CLST         542          1.0000000000
      1626       542  TIP3  H2           14.1578466234        0.5566113098       -6.1742484630  CLST         542          1.0000000000
      1627       543  TIP3  OH2          10.0562608956       -6.4811303999        5.6246545983  CLST         543          1.0000000000
      1628       543  TIP3  H1            9.8976024371       -7.3104515456        5.2094040293  CLST         543          1.0000000000
      1629       543  TIP3  H2            9.7197009379       -5.8637750614        4.9411569718  CLST         543          1.0000000000
      1630       544  TIP3  OH2           6.8013298884        4.3562258501      -12.2466008211  CLST         544          1.0000000000
      1631       544  TIP3  H1            7.3092582308        3.7365749661      -11.7451720256  CLST         544          1.0000000000
      1632       544  TIP3  H2            6.9435063258        5.0471515126      -11.5976053995  CLST         544          1.0000000000
      1633       545  TIP3  OH2         -12.0540431934        2.0583905686        7.3980482452  CLST         545          1.0000000000
      1634       545  TIP3  H1          -12.6792715569        2.7816091752        7.3479744161  CLST         545          1.0000000000
      1635       545  TIP3  H2          -11.7465886328        2.2840948310        8.2603241639  CLST         545          1.0000000000
      1636       546  TIP3  OH2          -1.0632298376       12.0327980394       10.8070654398  CLST         546          1.0000000000
      1637       546  TIP3  H1           -0.7850210382       12.5294161431       10.0557620517  CLST         546          1.0000000000
      1638       546  TIP3  H2           -0.4122786116       12.2693703484       11.4538556581  CLST         546          1.0000000000
      1639       547  TIP3  OH2          -2.2686582213        7.1761530671        6.0197270008  CLST         547          1.0000000000
      1640       547  TIP3  H1           -2.1708592212        6.8521847090        6.9390018154  CLST         547          1.0000000000
      1641       547  TIP3  H2           -1.7637561131        6.4904713865        5.5963605403  CLST         547          1.0000000000
      1642       548  TIP3  OH2           2.8810790187       -7.5936838322       12.7594544302  CLST         548          1.0000000000
      1643       548  TIP3  H1            2.6087765041       -6.6259945342       12.8235685274  CLST         548          1.0000000000
      1644       548  TIP3  H2            3.7872231524       -7.3430523801       12.4504772576  CLST         548          1.0000000000
      1645       549  TIP3  OH2          -6.5091627120       14.2995519593        3.2283333879  CLST         549          1.0000000000
      1646       549  TIP3  H1           -7.0980916495       14.8375559034        3.6828180275  CLST         549          1.0000000000
      1647       549  TIP3  H2           -6.7480643115       13.4368149367        3.5290051539  CLST         549          1.0000000000
      1648       550  TIP3  OH2          -8.0748036909        4.6021885702       -4.2995864047  CLST         550          1.0000000000
      1649       550  TIP3  H1           -8.3054221397        3.8246044069       -3.7796809935  CLST         550          1.0000000000
      1650       550  TIP3  H2           -8.6426741303        5.2387150096       -3.9353164649  CLST         550          1.0000000000
      1651       551  TIP3  OH2          -2.3752495603      -13.4520336125       -3.2989765363  CLST         551          1.0000000000
      1652       551  TIP3  H1           -2.0479450558      -13.4475570438       -2.4228253173  CLST         551          1.0000000000
      1653       551  TIP3  H2           -3.2946072400      -13.2720960507       -3.2159505401  CLST         551          1.0000000000
      1654       552  TIP3  OH2          -2.3762198343       -7.7266434953       13.7755505631  CLST         552          1.0000000000
      1655       552  TIP3  H1           -2.6655515847       -8.6213952206       14.0388755932  CLST         552          1.0000000000
      1656       552  TIP3  H2           -1.5222393891       -7.8942797498       13.3573605101  CLST         552          1.0000000000
      1657       553  TIP3  OH2           8.3061419654      -13.8721235786        0.1668946815  CLST         553          1.0000000000
      1658       553  TIP3  H1            8.5469403764      -13.0694856169        0.5821476615  CLST         553          1.0000000000
      1659       553  TIP3  H2            8.7532348428      -14.5143384708        0.6801867494  CLST         553          1.0000000000
      1660       554  TIP3  OH2          -9.2589396603      -12.2253133278       -3.7277012676  CLST         554          1.0000000000
      1661       554  TIP3  H1           -9.4685543509      -11.6462723589       -2.9525443514  CLST         554          1.0000000000
      1662       554  TIP3  H2          -10.0462328999      -12.7541279821       -3.4235583661  CLST         554          1.0000000000
      1663       555  TIP3  OH2         -11.0157983235       -5.1637820801       -7.7038093942  CLST         555          1.0000000000
      1664       555  TIP3  H1          -11.3032896371       -4.2605199483       -7.6873818542  CLST         555          1.0000000000
      1665       555  TIP3  H2          -10.7755019422       -5.2063608693       -6.7394854760  CLST         555          1.0000000000
      1666       556  TIP3  OH2         -10.4265549858       11.1521453979       13.6032700389  CLST         556          1.0000000000
      1667       556  TIP3  H1          -10.7716872021       10.4376093036       14.1375929815  CLST         556          1.0000000000
      1668       556  TIP3  H2           -9.5832216020       10.7442690853       13.3449715182  CLST         556          1.0000000000
      1669       557  TIP3  OH2          -2.5728289792       -6.6802040047        1.3783656435  CLST         557          1.0000000000
      1670       557  TIP3  H1           -2.4858376388       -6.8973534011        2.3210684433  CLST         557          1.0000000000
      1671       557  TIP3  H2           -2.3641032940       -7.5173564109        0.9579726471  CLST         557          1.0000000000
      1672       558  TIP3  OH2         -10.3268222918        6.1658239124        3.0878772601  CLST         558          1.0000000000
      1673       558  TIP3  H1          -10.2875498581        5.6384998323        3.9188644258  CLST         558          1.0000000000
      1674       558  TIP3  H2           -9.8371620509        5.5219718378        2.5647993162  CLST         558          1.0000000000
      1675       559  TIP3  OH2           1.1426628519        2.3480882207        0.0242761240  CLST         559          1.0000000000
      1676       559  TIP3  H1            1.9411071366        2.4466947791       -0.5114100938  CLST         559          1.0000000000
      1677       559  TIP3  H2            1.0796369041        1.4021574704       -0.1970137658  CLST         559          1.0000000000
      1678       560  TIP3  OH2          12.5458526201      -11.7633010969        0.9862136756  CLST         560          1.0000000000
      1679       560  TIP3  H1           12.6989849641      -11.4858660337        0.1022620373  CLST         560          1.0000000000
      1680       560  TIP3  H2           12.2612876647      -12.6543312418        0.7146850564  CLST         560          1.0000000000
      1681       561  TIP3  OH2         -12.9914439338        8.6167604069      -10.7350368450  CLST         561          1.0000000000
      1682       561  TIP3  H1          -12.9982154240        9.0392691372      -11.5776514188  CLST         561          1.0000000000
      1683       561  TIP3  H2          -12.0710988637        8.3994905282      -10.6145069289  CLST         561          1.0000000000
      1684       562  TIP3  OH2           9.8035648250        6.9120318228       13.3412092917  CLST         562          1.0000000000
      1685       562  TIP3  H1           10.3536726542        7.2784632031       14.0380307641  CLST         562          1.0000000000
      1686       562  TIP3  H2           10.0233290005        6.0258977735       13.5798935693  CLST         562          1.0000000000
      1687       563  TIP3  OH2           3.1077485031      -10.3669136860       -6.7012331723  CLST         563          1.0000000000
      1688       563  TIP3  H1            3.7565153354      -11.0567441590       -6.6756028856  CLST         563          1.0000000000
      1689       563  TIP3  H2            2.4210326677      -10.8432295467       -7.1558625496  CLST         563          1.0000000000
      1690       564  TIP3  OH2           4.7206524754      -13.5527667009       -2.7716132882  CLST         564          1.0000000000
      1691       564  TIP3  H1            5.2554690252      -13.7893512894       -3.5308542824  CLST         564          1.0000000000
      1692       564  TIP3  H2            4.0248080896      -13.1358375897       -3.2373271133  CLST         564          1.0000000000
      1693       565  TIP3  OH2           1.4556822479       12.2231466166        0.2673167357  CLST         565          1.0000000000
      1694       565  TIP3  H1            1.0779122144       11.3973596369       -0.0512879997  CLST         565          1.0000000000
      1695       565  TIP3  H2            2.3764973967       12.0705898380       -0.0260045071  CLST         565          1.0000000000
      1696       566  TIP3  OH2          -8.9307996280        5.5493457750        0.9433123463  CLST         566          1.0000000000
      1697       566  TIP3  H1           -8.5326019976        4.8162523042        0.4857711941  CLST         566          1.0000000000
      1698       566  TIP3  H2           -9.5174732238        5.8556897986        0.2588214010  CLST         566          1.0000000000
      1699       567  TIP3  OH2          12.2357573871       -0.1935221108       -8.2115691469  CLST         567          1.0000000000
      1700       567  TIP3  H1           13.1764794062       -0.1166365624       -8.0805230610  CLST         567          1.0000000000
      1701       567  TIP3  H2           12.2446330166       -0.6385330694       -9.0707285383  CLST         567          1.0000000000
      1702       568  TIP3  OH2           8.9212512899       -7.1099162561       11.5710465150  CLST         568          1.0000000000
      1703       568  TIP3  H1            9.8542000632       -7.0070077471       11.8346624086  CLST         568          1.0000000000
      1704       568  TIP3  H2            8.8197172397       -6.1813611484       11.3822690745  CLST         568          1.0000000000
      1705       569  TIP3  OH2          -8.5447442838       -6.3093651090        3.5504195181  CLST         569          1.0000000000
      1706       569  TIP3  H1           -8.7342612138       -5.7471500271        2.8017753497  CLST         569          1.0000000000
      1707       569  TIP3  H2           -9.1335480699       -7.0219859870        3.2763154379  CLST         569          1.0000000000
      1708       570  TIP3  OH2           6.2653454568       11.8727984340       14.8375559034  CLST         570          1.0000000000
      1709       570  TIP3  H1            5.3951852551       11.8353016025       14.4666158256  CLST         570          1.0000000000
      1710       570  TIP3  H2            6.7354968549       12.0711375094       14.0423353821  CLST         570          1.0000000000
      1711       571  TIP3  OH2           9.4340642711        1.1435777906        4.3182102779  CLST         571          1.0000000000
      1712       571  TIP3  H1            8.7021417075        1.0240075842        4.8686917016  CLST         571          1.0000000000
      1713       571  TIP3  H2            9.1552671290        0.7874169671        3.4564161441  CLST         571          1.0000000000
      1714       572  TIP3  OH2           5.3263116730        0.3024779757        2.2627327698  CLST         572          1.0000000000
      1715       572  TIP3  H1            4.7894780878       -0.3058639467        1.8060778707  CLST         572          1.0000000000
      1716       572  TIP3  H2            6.0893125625       -0.1915176371        2.5360347561  CLST         572          1.0000000000
      1717       573  TIP3  OH2          -1.9117906864       -6.4969900712       -6.4924653224  CLST         573          1.0000000000
      1718       573  TIP3  H1           -1.8604297666       -7.4670962725       -6.5583373870  CLST         573          1.0000000000
      1719       573  TIP3  H2           -1.3860181778       -6.2808157705       -7.2509368307  CLST         573          1.0000000000
      1720       574  TIP3  OH2          -9.8297992251        0.7114245484        9.4742293939  CLST         574          1.0000000000
      1721       574  TIP3  H1           -9.5924088303        1.6284622223        9.7104883942  CLST         574          1.0000000000
      1722       574  TIP3  H2           -9.0231549946        0.5287652764        8.9933648869  CLST         574          1.0000000000
      1723       575  TIP3  OH2          -3.9419404500       10.7550856381        0.9282853421  CLST         575          1.0000000000
      1724       575  TIP3  H1           -3.8029653251       11.2206161686        0.0929504312  CLST         575          1.0000000000
      1725       575  TIP3  H2           -4.5855095798       11.3437703164        1.3280080239  CLST         575          1.0000000000
      1726       576  TIP3  OH2          -3.5703405542       -2.5720363085        6.3453812734  CLST         576          1.0000000000
      1727       576  TIP3  H1           -3.9182328577       -1.7265273658        6.1095004975  CLST         576          1.0000000000
      1728       576  TIP3  H2           -2.8626883222       -2.5218903874        5.7246177574  CLST         576          1.0000000000
      1729       577  TIP3  OH2         -12.0314248004       11.2737077035        8.4699180358  CLST         577          1.0000000000
      1730       577  TIP3  H1          -11.9023039655       12.1516389820        8.7600467365  CLST         577          1.0000000000
      1731       577  TIP3  H2          -12.0970290834       11.3403351469        7.5296132598  CLST         577          1.0000000000
      1732       578  TIP3  OH2          -1.7914847261        0.9772937369        5.3513859800  CLST         578          1.0000000000
      1733       578  TIP3  H1           -2.4816644025        1.4088980069        4.8785581951  CLST         578          1.0000000000
      1734       578  TIP3  H2           -2.1657802567        0.7927371246        6.2089532576  CLST         578          1.0000000000
      1735       579  TIP3  OH2          -6.5670103347       11.6697054680        1.6754062913  CLST         579          1.0000000000
      1736       579  TIP3  H1           -6.7565696785       12.4366555173        1.1455678205  CLST         579          1.0000000000
      1737       579  TIP3  H2           -6.7363672628       10.9175441433        1.1377168605  CLST         579          1.0000000000
      1738       580  TIP3  OH2          11.2191459478        3.6460044077       -3.3161162776  CLST         580          1.0000000000
      1739       580  TIP3  H1           11.0730491309        2.7790685264       -3.0239261602  CLST         580          1.0000000000
      1740       580  TIP3  H2           11.6300205899        3.9474598173       -2.5300903677  CLST         580          1.0000000000
      1741       581  TIP3  OH2          12.9185368223      -11.8267480878        3.8115215393  CLST         581          1.0000000000
      1742       581  TIP3  H1           12.8631756927      -12.0877927081        2.8962436631  CLST         581          1.0000000000
      1743       581  TIP3  H2           13.8498281953      -12.0382557139        3.8463509870  CLST         581          1.0000000000
      1744       582  TIP3  OH2           6.2923746304       10.8486609290       -7.0162213880  CLST         582          1.0000000000
      1745       582  TIP3  H1            5.5941410023       10.3393202975       -6.6105290037  CLST         582          1.0000000000
      1746       582  TIP3  H2            6.6400676312       11.2095772866       -6.1716770333  CLST         582          1.0000000000
      1747       583  TIP3  OH2          -2.4925430849        4.3333663808      -10.9316012659  CLST         583          1.0000000000
      1748       583  TIP3  H1           -3.2009402608        3.8218244951      -11.1997458758  CLST         583          1.0000000000
      1749       583  TIP3  H2           -1.8227106285        3.8726168388      -11.4170518734  CLST         583          1.0000000000
      1750       584  TIP3  OH2           2.1835714625       -3.8999162923       -9.8615336841  CLST         584          1.0000000000
      1751       584  TIP3  H1            2.8698697850       -4.5496939821       -9.8535409673  CLST         584          1.0000000000
      1752       584  TIP3  H2            2.7175857517       -3.1713988432      -10.0642351210  CLST         584          1.0000000000
      1753       585  TIP3  OH2         -13.8969943336        1.0018369505       -2.0147411613  CLST         585          1.0000000000
      1754       585  TIP3  H1          -13.7110723274        1.6809778493       -2.7158418633  CLST         585          1.0000000000
      1755       585  TIP3  H2          -14.8375559034        0.8842584099       -2.1518097636  CLST         585          1.0000000000
      1756       586  TIP3  OH2          -7.4583416344        8.4395520138       10.5837051643  CLST         586          1.0000000000
      1757       586  TIP3  H1           -7.0682404684        9.0140363585        9.9080594296  CLST         586          1.0000000000
      1758       586  TIP3  H2           -7.3979319993        7.6080872418       10.1465313063  CLST         586          1.0000000000
      1759       587  TIP3  OH2           4.7526277288        4.4918240364       -9.8215434321  CLST         587          1.0000000000
      1760       587  TIP3  H1            4.0305634825        4.8485844858      -10.3808661516  CLST         587          1.0000000000
      1761       587  TIP3  H2            5.3897158697        4.9632137632      -10.3253670607  CLST         587          1.0000000000
      1762       588  TIP3  OH2           4.8521341637       -9.6226536062      -14.1277293273  CLST         588          1.0000000000
      1763       588  TIP3  H1            4.0162188018       -9.5604917531      -14.5232042079  CLST         588          1.0000000000
      1764       588  TIP3  H2            4.8827332051       -9.1211983546      -13.3365699987  CLST         588          1.0000000000
      1765       589  TIP3  OH2           0.3709013888      -14.0566697951        3.0498385152  CLST         589          1.0000000000
      1766       589  TIP3  H1            0.0111990177      -14.8375559034        2.6823159139  CLST         589          1.0000000000
      1767       589  TIP3  H2           -0.3864273604      -13.7516727073        3.5563137615  CLST         589          1.0000000000
      1768       590  TIP3  OH2           2.3582088500        1.9230786406       -8.1624019085  CLST         590          1.0000000000
      1769       590  TIP3  H1            1.6303313524        2.4121502749       -7.8123433857  CLST         590          1.0000000000
      1770       590  TIP3  H2            2.1690154792        2.0602074257       -9.0798409088  CLST         590          1.0000000000
      1771       591  TIP3  OH2         -12.9672699986        0.8211429709       -6.7145692163  CLST         591          1.0000000000
      1772       591  TIP3  H1          -12.0446169198        0.8947682244       -6.4888727697  CLST         591          1.0000000000
      1773       591  TIP3  H2          -13.2251596363        1.6796183009       -6.3773466618  CLST         591          1.0000000000
      1774       592  TIP3  OH2          -4.3084283986       -3.8029479133       -6.2872679158  CLST         592          1.0000000000
      1775       592  TIP3  H1           -3.5048748463       -4.1808064323       -6.6415041362  CLST         592          1.0000000000
      1776       592  TIP3  H2           -4.9568151811       -4.2458449073       -6.8832416156  CLST         592          1.0000000000
      1777       593  TIP3  OH2          -1.7443063560        5.3661376742       -4.6442612121  CLST         593          1.0000000000
      1778       593  TIP3  H1           -2.1307909841        6.2033449780       -4.4098878711  CLST         593          1.0000000000
      1779       593  TIP3  H2           -0.9357074251        5.7081753050       -5.0579065769  CLST         593          1.0000000000
      1780       594  TIP3  OH2          11.0722167781       10.5104780079       13.5052344998  CLST         594          1.0000000000
      1781       594  TIP3  H1           11.1575088301        9.9323275597       14.2776129918  CLST         594          1.0000000000
      1782       594  TIP3  H2           10.1134947157       10.5057302318       13.4439967245  CLST         594          1.0000000000
      1783       595  TIP3  OH2          -9.2666222790       13.6995809773        4.4878768937  CLST         595          1.0000000000
      1784       595  TIP3  H1           -9.6024100584       14.4307169003        4.0209303913  CLST         595          1.0000000000
      1785       595  TIP3  H2           -9.4975737845       12.9755252388        3.9479983843  CLST         595          1.0000000000
      1786       596  TIP3  OH2         -14.1425602997       -0.7755368140        8.7900121521  CLST         596          1.0000000000
      1787       596  TIP3  H1          -14.0395358080       -1.6800876742        9.1226444444  CLST         596          1.0000000000
      1788       596  TIP3  H2          -13.5072392463       -0.7782602529        8.0596566218  CLST         596          1.0000000000
      1789       597  TIP3  OH2          -3.0364757849       -5.4466118865       -4.2720391655  CLST         597          1.0000000000
      1790       597  TIP3  H1           -2.6308424392       -5.8960764996       -5.0091364473  CLST         597          1.0000000000
      1791       597  TIP3  H2           -2.9935975950       -4.6237663515       -4.7648027862  CLST         597          1.0000000000
      1792       598  TIP3  OH2          -8.1485517472       -9.4987313260       -9.1771226098  CLST         598          1.0000000000
      1793       598  TIP3  H1           -9.0061138833       -9.9146351423       -9.2562158792  CLST         598          1.0000000000
      1794       598  TIP3  H2           -8.1926527277       -8.6819445966       -9.6493243205  CLST         598          1.0000000000
      1795       599  TIP3  OH2          12.1407361452        0.0736167930      -13.0060087131  CLST         599          1.0000000000
      1796       599  TIP3  H1           12.6688274622        0.5419939322      -13.6499393144  CLST         599          1.0000000000
      1797       599  TIP3  H2           11.7721645909       -0.5039740539      -13.6610224697  CLST         599          1.0000000000
      1798       600  TIP3  OH2          14.0843963363       -9.3433255591        1.5644414456  CLST         600          1.0000000000
      1799       600  TIP3  H1           14.5015654263      -10.1865201692        1.7510027686  CLST         600          1.0000000000
      1800       600  TIP3  H2           13.6376439325       -9.6301206253        0.7996405645  CLST         600          1.0000000000
      1801       601  TIP3  OH2          -2.1944566090       13.3210417851       -8.2027077756  CLST         601          1.0000000000
      1802       601  TIP3  H1           -1.5636544715       13.3368070846       -7.5349809283  CLST         601          1.0000000000
      1803       601  TIP3  H2           -1.6958418776       13.1720455819       -8.9765577352  CLST         601          1.0000000000
      1804       602  TIP3  OH2          13.9258499862       -3.0725280843        8.7588311371  CLST         602          1.0000000000
      1805       602  TIP3  H1           13.0017722218       -2.9472952553        8.6196211997  CLST         602          1.0000000000
      1806       602  TIP3  H2           14.0295986918       -3.3950339436        7.8593226232  CLST         602          1.0000000000
      1807       603  TIP3  OH2          -8.2357598168       -9.5577570358      -12.3007441867  CLST         603          1.0000000000
      1808       603  TIP3  H1           -8.7921492886       -8.8676744624      -12.0224321929  CLST         603          1.0000000000
      1809       603  TIP3  H2           -8.6082674379      -10.3684155635      -11.9350064319  CLST         603          1.0000000000
      1810       604  TIP3  OH2           0.0208047128       -7.8580727237       12.2095050775  CLST         604          1.0000000000
      1811       604  TIP3  H1            0.0786519762       -6.9715038226       11.8224558903  CLST         604          1.0000000000
      1812       604  TIP3  H2            0.9268605905       -7.8916378063       12.5462846140  CLST         604          1.0000000000
      1813       605  TIP3  OH2           9.9217859251        8.3083397622        3.7817864080  CLST         605          1.0000000000
      1814       605  TIP3  H1            9.3046891048        8.8136269433        3.2749685336  CLST         605          1.0000000000
      1815       605  TIP3  H2           10.4824103292        8.9674399758        4.0897986988  CLST         605          1.0000000000
      1816       606  TIP3  OH2           0.8586790752        8.7717684112       -6.3481112439  CLST         606          1.0000000000
      1817       606  TIP3  H1            1.3536871675        9.5010584783       -5.9654483881  CLST         606          1.0000000000
      1818       606  TIP3  H2            0.0189382598        9.2295562999       -6.2903960377  CLST         606          1.0000000000
      1819       607  TIP3  OH2          -4.9757492051        1.2920722073      -13.9908949213  CLST         607          1.0000000000
      1820       607  TIP3  H1           -5.7936108101        1.4160023213      -13.5142847539  CLST         607          1.0000000000
      1821       607  TIP3  H2           -5.2105210208        0.9479786362      -14.8375559034  CLST         607          1.0000000000
      1822       608  TIP3  OH2          -2.5544423577       -0.4962609286      -11.6043210421  CLST         608          1.0000000000
      1823       608  TIP3  H1           -1.7900642422       -0.4056476550      -11.0899227063  CLST         608          1.0000000000
      1824       608  TIP3  H2           -2.2830832286       -0.2407119741      -12.4552438936  CLST         608          1.0000000000
      1825       609  TIP3  OH2           3.7310181388        8.0860560020        3.1199311764  CLST         609          1.0000000000
      1826       609  TIP3  H1            4.2209084109        8.5355961438        3.7926443867  CLST         609          1.0000000000
      1827       609  TIP3  H2            4.1983769935        7.2759337075        3.1362240828  CLST         609          1.0000000000
      1828       610  TIP3  OH2          -7.7113540948       -9.0685763040       11.6713062245  CLST         610          1.0000000000
      1829       610  TIP3  H1           -7.3271732029       -9.8644140218       11.3082729822  CLST         610          1.0000000000
      1830       610  TIP3  H2           -6.8974232029       -8.6858044775       11.9186170049  CLST         610          1.0000000000
      1831       611  TIP3  OH2          14.0758089881       -4.2457846338        6.2421741424  CLST         611          1.0000000000
      1832       611  TIP3  H1           14.6557124425       -4.8407383223        5.7283189813  CLST         611          1.0000000000
      1833       611  TIP3  H2           14.0207517413       -3.6795087900        5.4720696914  CLST         611          1.0000000000
      1834       612  TIP3  OH2          -8.9152015141      -10.6761711367        6.1253730897  CLST         612          1.0000000000
      1835       612  TIP3  H1           -8.0510570592      -10.3744652486        5.8241042763  CLST         612          1.0000000000
      1836       612  TIP3  H2           -9.4589743376      -10.0237356469        5.6991859563  CLST         612          1.0000000000
      1837       613  TIP3  OH2           2.5092796497       -2.2374307861       14.5004900911  CLST         613          1.0000000000
      1838       613  TIP3  H1            2.1586324137       -3.0919886282       14.7693434522  CLST         613          1.0000000000
      1839       613  TIP3  H2            1.7166546961       -1.9390869004       13.9865423942  CLST         613          1.0000000000
      1840       614  TIP3  OH2           1.0408692042        4.5232954312       -8.9845011667  CLST         614          1.0000000000
      1841       614  TIP3  H1            1.6813255017        4.3859858662       -8.3137692475  CLST         614          1.0000000000
      1842       614  TIP3  H2            0.7644151168        5.3944767106       -8.7497279075  CLST         614          1.0000000000
      1843       615  TIP3  OH2           1.2146748271        4.4924508654        7.0963235606  CLST         615          1.0000000000
      1844       615  TIP3  H1            1.8743839997        4.7108139374        7.7270875476  CLST         615          1.0000000000
      1845       615  TIP3  H2            1.6993911528        4.3652152304        6.2950832136  CLST         615          1.0000000000
      1846       616  TIP3  OH2          -7.7106533854        4.2859309699       -7.3583157949  CLST         616          1.0000000000
      1847       616  TIP3  H1           -8.2933411241        4.1448839773       -8.0843808561  CLST         616          1.0000000000
      1848       616  TIP3  H2           -7.1879720426        4.9390991303       -7.7847648212  CLST         616          1.0000000000
      1849       617  TIP3  OH2          14.7924339312        2.0947774412       11.9663140078  CLST         617          1.0000000000
      1850       617  TIP3  H1           14.6113242596        1.2195718881       12.3206523625  CLST         617          1.0000000000
      1851       617  TIP3  H2           13.8793198665        2.3040721052       11.8789415252  CLST         617          1.0000000000
      1852       618  TIP3  OH2          -7.0802730301        3.2580147162        2.6671535369  CLST         618          1.0000000000
      1853       618  TIP3  H1           -6.5571409843        3.9255612226        2.2696741814  CLST         618          1.0000000000
      1854       618  TIP3  H2           -6.6925006644        3.1071923453        3.5277481124  CLST         618          1.0000000000
      1855       619  TIP3  OH2           1.3391697051        5.4454290498       -2.4220755674  CLST         619          1.0000000000
      1856       619  TIP3  H1            0.6652095712        4.9625037293       -1.9571691468  CLST         619          1.0000000000
      1857       619  TIP3  H2            0.7133146401        6.1942559003       -2.6115433826  CLST         619          1.0000000000
      1858       620  TIP3  OH2          -3.4216420939        8.4434887317       -6.0009733498  CLST         620          1.0000000000
      1859       620  TIP3  H1           -3.6904641439        7.8663184514       -5.2885674738  CLST         620          1.0000000000
      1860       620  TIP3  H2           -3.5900994725        7.8344525444       -6.7413113136  CLST         620          1.0000000000
      1861       621  TIP3  OH2           0.9460170712        7.4591867468       -8.7153950704  CLST         621          1.0000000000
      1862       621  TIP3  H1            1.1651294394        7.9563241442       -7.9310070756  CLST         621          1.0000000000
      1863       621  TIP3  H2            0.8960081158        8.1510972540       -9.4178484699  CLST         621          1.0000000000
      1864       622  TIP3  OH2           1.9859020034       10.4338603439        4.0507522876  CLST         622          1.0000000000
      1865       622  TIP3  H1            2.6804287135       10.3280457340        4.6773987299  CLST         622          1.0000000000
      1866       622  TIP3  H2            1.3220393501       10.0247703103        4.5687551584  CLST         622          1.0000000000
      1867       623  TIP3  OH2          -0.0230844082       12.2486033201        2.5727995593  CLST         623          1.0000000000
      1868       623  TIP3  H1            0.6506612552       12.2244560946        1.8922344448  CLST         623          1.0000000000
      1869       623  TIP3  H2            0.4188248596       11.6969896745        3.1913822869  CLST         623          1.0000000000
      1870       624  TIP3  OH2          -9.0066140512       -1.6702537030       -4.0597172278  CLST         624          1.0000000000
      1871       624  TIP3  H1           -8.4300881957       -1.2249898837       -4.6533989764  CLST         624          1.0000000000
      1872       624  TIP3  H2           -9.8228891717       -1.1954093457       -4.1130154853  CLST         624          1.0000000000
      1873       625  TIP3  OH2          -9.5984714747      -13.1501198110       -9.0713768470  CLST         625          1.0000000000
      1874       625  TIP3  H1           -9.7443101755      -12.3062483190       -8.6537260217  CLST         625          1.0000000000
      1875       625  TIP3  H2           -9.2912639891      -13.6481184340       -8.3052525682  CLST         625          1.0000000000
      1876       626  TIP3  OH2          13.4813142906       -5.6082269583       -2.7375302781  CLST         626          1.0000000000
      1877       626  TIP3  H1           13.0392284280       -6.1216095630       -3.4074383263  CLST         626          1.0000000000
      1878       626  TIP3  H2           14.0789783639       -5.1821601983       -3.3447754611  CLST         626          1.0000000000
      1879       627  TIP3  OH2          -0.9311899797      -11.4437762256        7.8502689254  CLST         627          1.0000000000
      1880       627  TIP3  H1           -0.1184372407      -11.4426233605        8.3186697922  CLST         627          1.0000000000
      1881       627  TIP3  H2           -1.0062391748      -12.3690976694        7.8771068238  CLST         627          1.0000000000
      1882       628  TIP3  OH2           7.0753361058        8.8514850051       -8.9097819525  CLST         628          1.0000000000
      1883       628  TIP3  H1            6.9159603814        9.5932922206       -9.4775020730  CLST         628          1.0000000000
      1884       628  TIP3  H2            6.7286615083        9.3646733040       -8.1795184694  CLST         628          1.0000000000
      1885       629  TIP3  OH2          -9.7778435111       -0.1387877585       -9.8247911225  CLST         629          1.0000000000
      1886       629  TIP3  H1           -8.8867233768       -0.1476467087      -10.1110710616  CLST         629          1.0000000000
      1887       629  TIP3  H2           -9.8761906448       -1.0680098242       -9.7028699454  CLST         629          1.0000000000
      1888       630  TIP3  OH2          11.6819763782       12.2912076845       11.5046713876  CLST         630          1.0000000000
      1889       630  TIP3  H1           10.9230071667       12.7795967968       11.2270674953  CLST         630          1.0000000000
      1890       630  TIP3  H2           11.2721455658       11.6256106881       11.9982488273  CLST         630          1.0000000000
      1891       631  TIP3  OH2         -12.2866134004      -11.4017274954      -11.5917521086  CLST         631          1.0000000000
      1892       631  TIP3  H1          -12.3510039645      -11.3979854091      -12.5370600007  CLST         631          1.0000000000
      1893       631  TIP3  H2          -12.9650561756      -12.0287758927      -11.4085294683  CLST         631          1.0000000000
      1894       632  TIP3  OH2          11.0444857179        1.9762382497        9.4344655222  CLST         632          1.0000000000
      1895       632  TIP3  H1           11.9876862930        1.8711285796        9.3400381565  CLST         632          1.0000000000
      1896       632  TIP3  H2           10.8377823456        1.7216606487        8.5518680879  CLST         632          1.0000000000
      1897       633  TIP3  OH2          -4.5044021563        6.4088065525       10.4932199219  CLST         633          1.0000000000
      1898       633  TIP3  H1           -4.2312743683        5.4881418002       10.5867800021  CLST         633          1.0000000000
      1899       633  TIP3  H2           -5.4308071084        6.2381768225       10.3139151988  CLST         633          1.0000000000
      1900       634  TIP3  OH2          -2.5019582684       -7.1623867966        6.8284782660  CLST         634          1.0000000000
      1901       634  TIP3  H1           -2.6086722924       -7.9410863533        7.3449459458  CLST         634          1.0000000000
      1902       634  TIP3  H2           -1.8564208907       -6.6813083085        7.3410767476  CLST         634          1.0000000000
      1903       635  TIP3  OH2           2.7705119456        2.7443067581       -2.2305309437  CLST         635          1.0000000000
      1904       635  TIP3  H1            2.4644837092        3.5620290809       -2.5763710472  CLST         635          1.0000000000
      1905       635  TIP3  H2            2.4676222675        2.1522266229       -2.9092715202  CLST         635          1.0000000000
      1906       636  TIP3  OH2           5.0088535582       -2.5353993919      -10.2331627525  CLST         636          1.0000000000
      1907       636  TIP3  H1            4.4706527750       -2.3022216492      -10.9887101025  CLST         636          1.0000000000
      1908       636  TIP3  H2            5.0661695592       -1.6645611938       -9.8123549467  CLST         636          1.0000000000
      1909       637  TIP3  OH2           3.6843085963       11.1440200641      -10.6373714393  CLST         637          1.0000000000
      1910       637  TIP3  H1            4.2741246425       11.7797764950      -10.2320063426  CLST         637          1.0000000000
      1911       637  TIP3  H2            3.6241102070       10.6803522350       -9.7946354996  CLST         637          1.0000000000
      1912       638  TIP3  OH2           8.8935760430      -12.3341675831       -7.2210209971  CLST         638          1.0000000000
      1913       638  TIP3  H1            8.1912658021      -12.7523592487       -7.7381527290  CLST         638          1.0000000000
      1914       638  TIP3  H2            9.4388043869      -12.2156491821       -7.9957075290  CLST         638          1.0000000000
      1915       639  TIP3  OH2           7.3966948208      -13.6459469569       -9.2259732495  CLST         639          1.0000000000
      1916       639  TIP3  H1            6.4471018665      -13.7210572179       -9.3024824656  CLST         639          1.0000000000
      1917       639  TIP3  H2            7.5565219273      -14.4629779287       -9.6928964147  CLST         639          1.0000000000
      1918       640  TIP3  OH2         -10.0757582231       -3.2363872546      -10.1175737744  CLST         640          1.0000000000
      1919       640  TIP3  H1           -9.2360263012       -3.2781206027       -9.6296727513  CLST         640          1.0000000000
      1920       640  TIP3  H2          -10.6685482725       -3.2844575172       -9.3820791093  CLST         640          1.0000000000
      1921       641  TIP3  OH2         -13.8511560187       -2.8214927803      -13.3929059991  CLST         641          1.0000000000
      1922       641  TIP3  H1          -13.8285950402       -3.7635107263      -13.5943292283  CLST         641          1.0000000000
      1923       641  TIP3  H2          -12.9032795080       -2.7750428538      -13.2793805869  CLST         641          1.0000000000
      1924       642  TIP3  OH2          -1.8733359689        1.7340846850       11.0038248942  CLST         642          1.0000000000
      1925       642  TIP3  H1           -1.1163815300        1.4136745048       11.4854823762  CLST         642          1.0000000000
      1926       642  TIP3  H2           -2.6031471886        1.9246095798       11.5622666170  CLST         642          1.0000000000
      1927       643  TIP3  OH2         -14.0917025202       -2.8348126520        3.6818581602  CLST         643          1.0000000000
      1928       643  TIP3  H1          -13.2893025765       -2.4040622088        3.9327557039  CLST         643          1.0000000000
      1929       643  TIP3  H2          -14.7269356616       -2.3755980404        4.2321645211  CLST         643          1.0000000000
      1930       644  TIP3  OH2          12.7469522859       -2.8841632715        1.2079496552  CLST         644          1.0000000000
      1931       644  TIP3  H1           13.5713783214       -2.3993288402        1.3312672046  CLST         644          1.0000000000
      1932       644  TIP3  H2           13.0567110186       -3.4640267889        0.4973233126  CLST         644          1.0000000000
      1933       645  TIP3  OH2          -6.8379313088        6.2543477263        8.9759423486  CLST         645          1.0000000000
      1934       645  TIP3  H1           -7.0157024548        6.3980351238        8.0366033032  CLST         645          1.0000000000
      1935       645  TIP3  H2           -6.7002116625        5.2979973817        8.8515625363  CLST         645          1.0000000000
      1936       646  TIP3  OH2           7.1276313389      -11.4631898442       11.9630527294  CLST         646          1.0000000000
      1937       646  TIP3  H1            6.2909833240      -11.5663706359       11.5116086841  CLST         646          1.0000000000
      1938       646  TIP3  H2            7.3788583795      -12.3968578270       11.9842644039  CLST         646          1.0000000000
      1939       647  TIP3  OH2         -13.2641270519       -9.3000538262       -7.5864284382  CLST         647          1.0000000000
      1940       647  TIP3  H1          -13.8027245846       -9.8314928640       -7.0290748920  CLST         647          1.0000000000
      1941       647  TIP3  H2          -12.5685405732       -9.2156836208       -6.9485904525  CLST         647          1.0000000000
      1942       648  TIP3  OH2         -13.9318323522        3.5309095414       -6.2821736867  CLST         648          1.0000000000
      1943       648  TIP3  H1          -14.8375559034        3.6974110066       -5.9701907729  CLST         648          1.0000000000
      1944       648  TIP3  H2          -13.5565918021        3.7162729732       -5.4014652875  CLST         648          1.0000000000
      1945       649  TIP3  OH2          -1.6130263777       -3.6012424163       -7.3264589418  CLST         649          1.0000000000
      1946       649  TIP3  H1           -0.9297456556       -2.9416086972       -7.1850369909  CLST         649          1.0000000000
      1947       649  TIP3  H2           -1.1263693513       -4.0502975318       -8.0024790345  CLST         649          1.0000000000
      1948       650  TIP3  OH2          -4.4172527760       -3.3411434475      -11.8586115428  CLST         650          1.0000000000
      1949       650  TIP3  H1           -3.5124478420       -3.2525021754      -12.1789730608  CLST         650          1.0000000000
      1950       650  TIP3  H2           -4.5007119784       -2.4296939308      -11.6178033223  CLST         650          1.0000000000
      1951       651  TIP3  OH2           0.9530896784       -4.2973955626       14.0230071861  CLST         651          1.0000000000
      1952       651  TIP3  H1            0.2697299986       -4.7307805177       13.4534459777  CLST         651          1.0000000000
      1953       651  TIP3  H2            0.5940188179       -4.6764798093       14.8375559034  CLST         651          1.0000000000
      1954       652  TIP3  OH2           2.2173977094       -9.1158149906       10.1355298983  CLST         652          1.0000000000
      1955       652  TIP3  H1            2.5473427240       -8.5620380829       10.8454916623  CLST         652          1.0000000000
      1956       652  TIP3  H2            1.9072424827       -8.3657318920        9.6176197524  CLST         652          1.0000000000
      1957       653  TIP3  OH2          13.4573020427        0.9761581077       -2.5613810912  CLST         653          1.0000000000
      1958       653  TIP3  H1           12.5265458753        0.8392240618       -2.3974445817  CLST         653          1.0000000000
      1959       653  TIP3  H2           13.4173786703        1.2817458873       -3.4754434006  CLST         653          1.0000000000
      1960       654  TIP3  OH2          -5.7383523795        9.2001405793       13.1104958016  CLST         654          1.0000000000
      1961       654  TIP3  H1           -4.9622997709        9.5460758096       13.5140894117  CLST         654          1.0000000000
      1962       654  TIP3  H2           -5.4207941260        8.7180704297       12.4004232968  CLST         654          1.0000000000
      1963       655  TIP3  OH2          -4.2883427918        1.3918689668       12.6907391190  CLST         655          1.0000000000
      1964       655  TIP3  H1           -4.3004068239        0.4782254701       12.3947709640  CLST         655          1.0000000000
      1965       655  TIP3  H2           -5.2249461484        1.3574197271       12.8847921960  CLST         655          1.0000000000
      1966       656  TIP3  OH2         -14.0503663515       -4.4963968569      -10.7167154040  CLST         656          1.0000000000
      1967       656  TIP3  H1          -14.8375559034       -3.9780892344      -10.9013487654  CLST         656          1.0000000000
      1968       656  TIP3  H2          -13.9847283180       -5.0481551080      -11.5039575097  CLST         656          1.0000000000
      1969       657  TIP3  OH2           4.4882149762       -0.8622771587        5.4281875106  CLST         657          1.0000000000
      1970       657  TIP3  H1            5.0740853891       -0.6607432674        6.1534571996  CLST         657          1.0000000000
      1971       657  TIP3  H2            3.9739149680       -0.0428784624        5.4751954203  CLST         657          1.0000000000
      1972       658  TIP3  OH2         -13.9581835778       -7.2511978631       -4.8032319732  CLST         658          1.0000000000
      1973       658  TIP3  H1          -13.5915858507       -6.5463678011       -5.3133437415  CLST         658          1.0000000000
      1974       658  TIP3  H2          -14.8375559034       -7.1299082286       -5.1690452085  CLST         658          1.0000000000
      1975       659  TIP3  OH2           9.1939845097      -13.2002707940        9.8544014482  CLST         659          1.0000000000
      1976       659  TIP3  H1            8.9090473472      -12.5833093446        9.2015582281  CLST         659          1.0000000000
      1977       659  TIP3  H2            8.3142273337      -13.6131878983        9.9347860534  CLST         659          1.0000000000
      1978       660  TIP3  OH2         -14.4190456876       -9.0697876343        6.5157952215  CLST         660          1.0000000000
      1979       660  TIP3  H1          -14.8375559034       -9.8782391651        6.8922733381  CLST         660          1.0000000000
      1980       660  TIP3  H2          -13.7719594530       -8.9812329863        7.2257163847  CLST         660          1.0000000000
      1981       661  TIP3  OH2           2.9891617747        1.1518091987       -4.7840641552  CLST         661          1.0000000000
      1982       661  TIP3  H1            2.6957502010        2.0062484874       -4.9951667916  CLST         661          1.0000000000
      1983       661  TIP3  H2            2.1537847014        0.6726091067       -4.7574006278  CLST         661          1.0000000000
      1984       662  TIP3  OH2          -8.7137098467       -5.1157661631        1.1361853405  CLST         662          1.0000000000
      1985       662  TIP3  H1           -9.2376203447       -5.6208614157        0.4697068117  CLST         662          1.0000000000
      1986       662  TIP3  H2           -9.0436987296       -4.2294086622        1.0051843098  CLST         662          1.0000000000
      1987       663  TIP3  OH2           6.2540297855       -2.0844177807        3.4696427688  CLST         663          1.0000000000
      1988       663  TIP3  H1            5.6323331760       -1.7303820437        4.1010020351  CLST         663          1.0000000000
      1989       663  TIP3  H2            5.9634519081       -2.9769359631        3.3825414693  CLST         663          1.0000000000
      1990       664  TIP3  OH2          10.4151403982      -14.0830001375        2.5827747809  CLST         664          1.0000000000
      1991       664  TIP3  H1           10.2834797006      -13.4337134212        3.2515788120  CLST         664          1.0000000000
      1992       664  TIP3  H2           10.3440217946      -14.8375559034        3.1183564392  CLST         664          1.0000000000
      1993       665  TIP3  OH2           9.7445621064       10.3524132849      -13.9673201489  CLST         665          1.0000000000
      1994       665  TIP3  H1            9.0996781693        9.6830876683      -13.8458821029  CLST         665          1.0000000000
      1995       665  TIP3  H2            9.3620830559       10.8165607283      -14.6841273250  CLST         665          1.0000000000
      1996       666  TIP3  OH2         -11.4011573932       -7.4756810462       -9.0318337876  CLST         666          1.0000000000
      1997       666  TIP3  H1          -11.3054581859       -6.7607729915       -8.4158118538  CLST         666          1.0000000000
      1998       666  TIP3  H2          -12.1772138668       -7.8594347126       -8.5767342920  CLST         666          1.0000000000
      1999       667  TIP3  OH2         -11.0507193647        5.3979915543        7.7667877272  CLST         667          1.0000000000
      2000       667  TIP3  H1          -11.3350753142        4.8735220864        8.5370135086  CLST         667          1.0000000000
      2001       667  TIP3  H2          -10.6715773440        6.1361753032        8.2465488171  CLST         667          1.0000000000
      2002       668  TIP3  OH2         -12.6649325654       -0.0499838021        0.1543484482  CLST         668          1.0000000000
      2003       668  TIP3  H1          -12.9248428244        0.4180780090        0.9336576463  CLST         668          1.0000000000
      2004       668  TIP3  H2          -13.1229829207        0.5159362810       -0.4792134526  CLST         668          1.0000000000
      2005       669  TIP3  OH2          -3.6579135696      -11.4484414476        5.1299618616  CLST         669          1.0000000000
      2006       669  TIP3  H1           -4.0202517837      -12.1241426502        4.5636902683  CLST         669          1.0000000000
      2007       669  TIP3  H2           -3.5838666725      -10.7122369877        4.5330542046  CLST         669          1.0000000000
      2008       670  TIP3  OH2          -6.2664175731       -2.2634166563        1.1618219700  CLST         670          1.0000000000
      2009       670  TIP3  H1           -6.9124815559       -1.5905254278        1.3566599903  CLST         670          1.0000000000
      2010       670  TIP3  H2           -6.0202679822       -1.9265964869        0.2999073248  CLST         670          1.0000000000
      2011       671  TIP3  OH2           3.9609578744       -9.4140719845      -11.0241479948  CLST         671          1.0000000000
      2012       671  TIP3  H1            3.5477637650       -9.2500129425      -10.1567732954  CLST         671          1.0000000000
      2013       671  TIP3  H2            4.9032736794       -9.2508621987      -10.9996437140  CLST         671          1.0000000000
      2014       672  TIP3  OH2          12.0856900726      -12.6044569963        9.0468945945  CLST         672          1.0000000000
      2015       672  TIP3  H1           11.2412424807      -12.9209555906        9.3454641362  CLST         672          1.0000000000
      2016       672  TIP3  H2           12.6248956234      -12.9545647141        9.7789201453  CLST         672          1.0000000000
      2017       673  TIP3  OH2           6.9286937771       -4.3186842558        6.7947110041  CLST         673          1.0000000000
      2018       673  TIP3  H1            7.5418321785       -3.5701962073        6.8245293504  CLST         673          1.0000000000
      2019       673  TIP3  H2            7.5594591849       -4.8873958760        7.2710728893  CLST         673          1.0000000000
      2020       674  TIP3  OH2          -4.1891915985       -0.6820058395        2.8886153334  CLST         674          1.0000000000
      2021       674  TIP3  H1           -3.4339954568       -1.0288374367        3.3284030921  CLST         674          1.0000000000
      2022       674  TIP3  H2           -4.2976007792       -1.3743792453        2.2583571209  CLST         674          1.0000000000
      2023       675  TIP3  OH2          -9.5702720721        2.4176623924       -3.2668525911  CLST         675          1.0000000000
      2024       675  TIP3  H1           -8.9338512401        1.7338398555       -3.2997714558  CLST         675          1.0000000000
      2025       675  TIP3  H2          -10.1827518643        2.1822352424       -2.5734582103  CLST         675          1.0000000000
      2026       676  TIP3  OH2         -13.7049881974        0.0053533918      -13.6330151972  CLST         676          1.0000000000
      2027       676  TIP3  H1          -13.8275075017       -0.9232845896      -13.4804015674  CLST         676          1.0000000000
      2028       676  TIP3  H2          -13.3608108664        0.2543570384      -12.7864817492  CLST         676          1.0000000000
      2029       677  TIP3  OH2           1.6535269844      -12.0466536007        2.2653891245  CLST         677          1.0000000000
      2030       677  TIP3  H1            1.9263732316      -12.2122706171        1.3661239190  CLST         677          1.0000000000
      2031       677  TIP3  H2            1.2563842461      -12.8925663889        2.4435358990  CLST         677          1.0000000000
      2032       678  TIP3  OH2          11.4703423340       -6.9789686222       -8.3774712681  CLST         678          1.0000000000
      2033       678  TIP3  H1           12.3811229651       -7.2427389789       -8.4758197177  CLST         678          1.0000000000
      2034       678  TIP3  H2           11.4786978889       -6.3399744613       -9.0663412375  CLST         678          1.0000000000
      2035       679  TIP3  OH2           7.5043435171       -9.8694625961      -14.1390491029  CLST         679          1.0000000000
      2036       679  TIP3  H1            7.4158534281       -9.2089184019      -14.8375559034  CLST         679          1.0000000000
      2037       679  TIP3  H2            6.5526786524       -9.9201631724      -14.0862795368  CLST         679          1.0000000000
      2038       680  TIP3  OH2           9.8251478099       -8.4494446583       -1.6852005048  CLST         680          1.0000000000
      2039       680  TIP3  H1            9.9964666581       -9.4073098301       -1.7993572933  CLST         680          1.0000000000
      2040       680  TIP3  H2            9.4124079415       -8.4432561275       -2.5628310638  CLST         680          1.0000000000
      2041       681  TIP3  OH2           7.4326868184        9.3959600679       11.0964107720  CLST         681          1.0000000000
      2042       681  TIP3  H1            7.4904767157        8.4403421521       11.0812032967  CLST         681          1.0000000000
      2043       681  TIP3  H2            8.3946980337        9.4745635971       11.0468989207  CLST         681          1.0000000000
      2044       682  TIP3  OH2           7.8913735751       14.0183466368        1.7155222707  CLST         682          1.0000000000
      2045       682  TIP3  H1            7.1582704467       13.8558363275        1.1287055269  CLST         682          1.0000000000
      2046       682  TIP3  H2            7.5740718732       14.8375559034        2.0773875276  CLST         682          1.0000000000
      2047       683  TIP3  OH2           3.3621741378       11.5569994055      -14.8375559034  CLST         683          1.0000000000
      2048       683  TIP3  H1            3.2250225981       11.8384363772      -13.9307096601  CLST         683          1.0000000000
      2049       683  TIP3  H2            3.1669272246       10.6168243171      -14.7094112202  CLST         683          1.0000000000
      2050       684  TIP3  OH2          12.6980951945        2.7985830181      -12.3762217830  CLST         684          1.0000000000
      2051       684  TIP3  H1           12.3752215293        2.0580224450      -11.8562902096  CLST         684          1.0000000000
      2052       684  TIP3  H2           13.2899696184        3.1720351599      -11.7153918613  CLST         684          1.0000000000
      2053       685  TIP3  OH2           3.7981909501       13.4193656720        2.1282219169  CLST         685          1.0000000000
      2054       685  TIP3  H1            4.1501862067       12.5431075830        1.9498299112  CLST         685          1.0000000000
      2055       685  TIP3  H2            2.8898611055       13.1928114791        1.9627450457  CLST         685          1.0000000000
      2056       686  TIP3  OH2          -1.9227160933      -11.7820087254       -5.6208464278  CLST         686          1.0000000000
      2057       686  TIP3  H1           -1.8103406022      -12.1906691302       -4.7635299448  CLST         686          1.0000000000
      2058       686  TIP3  H2           -2.3415581332      -12.5342030791       -6.0479751077  CLST         686          1.0000000000
      2059       687  TIP3  OH2           2.2360519597       11.0556177911       -5.4843744825  CLST         687          1.0000000000
      2060       687  TIP3  H1            1.8481463865       10.9934949546       -4.6160269985  CLST         687          1.0000000000
      2061       687  TIP3  H2            2.9262931349       11.6628688001       -5.1931337566  CLST         687          1.0000000000
      2062       688  TIP3  OH2          -4.8122927500       -1.0234454682      -10.2930817326  CLST         688          1.0000000000
      2063       688  TIP3  H1           -4.5193776020       -0.7370289096       -9.4115054215  CLST         688          1.0000000000
      2064       688  TIP3  H2           -4.0320008279       -0.7674446992      -10.7129590563  CLST         688          1.0000000000
      2065       689  TIP3  OH2         -11.7422032186       -2.5821390515       -7.4217395934  CLST         689          1.0000000000
      2066       689  TIP3  H1          -12.3855611736       -2.3870080055       -6.6696586538  CLST         689          1.0000000000
      2067       689  TIP3  H2          -12.1855911181       -2.0136159313       -8.0554145553  CLST         689          1.0000000000
      2068       690  TIP3  OH2           9.1613907829      -12.4583396716        3.9509018966  CLST         690          1.0000000000
      2069       690  TIP3  H1            9.4377861139      -12.2092635659        4.8738200792  CLST         690          1.0000000000
      2070       690  TIP3  H2            9.6484337139      -11.7037878639        3.5794911484  CLST         690          1.0000000000
      2071       691  TIP3  OH2          -0.9389454934       10.1772487678       13.7634349312  CLST         691          1.0000000000
      2072       691  TIP3  H1           -0.4682948236       10.9024816412       13.4215886956  CLST         691          1.0000000000
      2073       691  TIP3  H2           -0.3842922299       10.0591524512       14.5006873547  CLST         691          1.0000000000
      2074       692  TIP3  OH2           1.5698838054       -6.8081727043        8.7409142094  CLST         692          1.0000000000
      2075       692  TIP3  H1            0.6546017695       -6.5279974095        8.7477153336  CLST         692          1.0000000000
      2076       692  TIP3  H2            1.7668671081       -5.8828915692        9.0159002461  CLST         692          1.0000000000
      2077       693  TIP3  OH2          -9.2345313845       -4.2127913637       -2.8508410059  CLST         693          1.0000000000
      2078       693  TIP3  H1           -8.4371564756       -4.2471446612       -2.2393405626  CLST         693          1.0000000000
      2079       693  TIP3  H2           -9.0593372348       -3.4233294200       -3.3126162335  CLST         693          1.0000000000
      2080       694  TIP3  OH2          -1.6672938239       11.6066948453        5.7223134621  CLST         694          1.0000000000
      2081       694  TIP3  H1           -2.3197582264       12.1944612955        5.3386012087  CLST         694          1.0000000000
      2082       694  TIP3  H2           -1.0192771431       12.2973954477        5.8237625782  CLST         694          1.0000000000
      2083       695  TIP3  OH2           1.7628481476       10.3996339139        7.6112954185  CLST         695          1.0000000000
      2084       695  TIP3  H1            1.2127716004       10.1346354471        6.8718087736  CLST         695          1.0000000000
      2085       695  TIP3  H2            1.1831071422       10.2921516475        8.3633831875  CLST         695          1.0000000000
      2086       696  TIP3  OH2          -4.2826124962        3.1460381504       -6.1480651613  CLST         696          1.0000000000
      2087       696  TIP3  H1           -3.7183443308        3.9015265202       -6.1869285124  CLST         696          1.0000000000
      2088       696  TIP3  H2           -4.5831077657        3.1774549995       -5.2861654896  CLST         696          1.0000000000
      2089       697  TIP3  OH2           2.6854424965        5.5956222411       11.9133945170  CLST         697          1.0000000000
      2090       697  TIP3  H1            2.0460958466        5.5645874895       11.2305408440  CLST         697          1.0000000000
      2091       697  TIP3  H2            3.5074335788        5.6395923795       11.4724106500  CLST         697          1.0000000000
      2092       698  TIP3  OH2          -3.5055086468        5.0466091320       -1.1668784290  CLST         698          1.0000000000
      2093       698  TIP3  H1           -3.6030720499        4.1379467865       -1.4243659732  CLST         698          1.0000000000
      2094       698  TIP3  H2           -4.4025234117        5.3632616601       -1.1582197309  CLST         698          1.0000000000
      2095       699  TIP3  OH2          -1.3370436350       -4.6248270606        3.5205423583  CLST         699          1.0000000000
      2096       699  TIP3  H1           -2.1968150079       -4.2498936820        3.5634996749  CLST         699          1.0000000000
      2097       699  TIP3  H2           -1.0908211409       -4.7488029025        2.6283882767  CLST         699          1.0000000000
      2098       700  TIP3  OH2          -5.1521993369       -8.2915172170        8.9827017488  CLST         700          1.0000000000
      2099       700  TIP3  H1           -5.2839767193       -7.7656925016        8.1797379029  CLST         700          1.0000000000
      2100       700  TIP3  H2           -4.3109009089       -8.6791054674        8.7563687349  CLST         700          1.0000000000
      2101       701  TIP3  OH2         -13.9388735508       10.3428336040        0.1222034101  CLST         701          1.0000000000
      2102       701  TIP3  H1          -13.8066443715        9.5888041869       -0.4613610958  CLST         701          1.0000000000
      2103       701  TIP3  H2          -14.8375559034       10.3230346599        0.3363190561  CLST         701          1.0000000000
      2104       702  TIP3  OH2          -5.5714366476       -9.5529186204      -12.5096470998  CLST         702          1.0000000000
      2105       702  TIP3  H1           -5.5365119539       -9.8681903118      -11.5709315871  CLST         702          1.0000000000
      2106       702  TIP3  H2           -6.5138516838       -9.5278267556      -12.5910185030  CLST         702          1.0000000000
      2107       703  TIP3  OH2           3.7136076497        6.0981835830       -4.3890408502  CLST         703          1.0000000000
      2108       703  TIP3  H1            2.8890011703        5.6242171277       -4.3782269768  CLST         703          1.0000000000
      2109       703  TIP3  H2            3.3593750166        6.9767843337       -4.1128538805  CLST         703          1.0000000000
      2110       704  TIP3  OH2         -10.0187889183        5.1464259456       11.9118003678  CLST         704          1.0000000000
      2111       704  TIP3  H1           -9.8889784773        5.5910033095       12.7461567353  CLST         704          1.0000000000
      2112       704  TIP3  H2          -10.3337553173        5.9207143502       11.4586672913  CLST         704          1.0000000000
      2113       705  TIP3  OH2          -0.7026702853       -9.0188016305       -7.1105740590  CLST         705          1.0000000000
      2114       705  TIP3  H1           -0.9520633621       -9.8776779169       -7.4045869962  CLST         705          1.0000000000
      2115       705  TIP3  H2           -0.4253011554       -8.7214540226       -7.9680484046  CLST         705          1.0000000000
      2116       706  TIP3  OH2          -1.8383476324       -1.7619153731        4.5185279045  CLST         706          1.0000000000
      2117       706  TIP3  H1           -1.1495506291       -1.1474407913        4.7753571782  CLST         706          1.0000000000
      2118       706  TIP3  H2           -1.2240738509       -2.4527497707        4.2863891114  CLST         706          1.0000000000
      2119       707  TIP3  OH2           8.6853395148       11.0391764048        7.3421548727  CLST         707          1.0000000000
      2120       707  TIP3  H1            8.5764967837       11.3889871022        6.4626186020  CLST         707          1.0000000000
      2121       707  TIP3  H2            7.8345147336       10.6104400000        7.3178402332  CLST         707          1.0000000000
      2122       708  TIP3  OH2          -0.9190109241       -7.6934192078      -12.6332578974  CLST         708          1.0000000000
      2123       708  TIP3  H1           -1.6106553595       -7.9505841098      -13.2446525829  CLST         708          1.0000000000
      2124       708  TIP3  H2           -0.5115578496       -6.9971636773      -13.1091318498  CLST         708          1.0000000000
      2125       709  TIP3  OH2          -6.3432553172       14.4026929788        0.6633596457  CLST         709          1.0000000000
      2126       709  TIP3  H1           -5.4557857092       14.1178879642        0.8370585775  CLST         709          1.0000000000
      2127       709  TIP3  H2           -6.4626997343       14.8217470328        1.5096599083  CLST         709          1.0000000000
      2128       710  TIP3  OH2          -0.7918302313       14.1371811214      -10.8701842254  CLST         710          1.0000000000
      2129       710  TIP3  H1           -0.0367658756       14.2265673942      -11.4083259223  CLST         710          1.0000000000
      2130       710  TIP3  H2           -1.2898926536       13.5476479384      -11.4181325479  CLST         710          1.0000000000
      2131       711  TIP3  OH2          11.9062633916      -12.0724814854      -11.0464641713  CLST         711          1.0000000000
      2132       711  TIP3  H1           11.7335355100      -13.0120594769      -10.9204948556  CLST         711          1.0000000000
      2133       711  TIP3  H2           11.6514155764      -12.2288205603      -11.9648958537  CLST         711          1.0000000000
      2134       712  TIP3  OH2          -3.6889424148      -10.6270885206       11.7228038149  CLST         712          1.0000000000
      2135       712  TIP3  H1           -4.4541042128      -10.3291181359       11.2702101779  CLST         712          1.0000000000
      2136       712  TIP3  H2           -2.9291796629      -10.3773584079       11.2334266702  CLST         712          1.0000000000
      2137       713  TIP3  OH2           7.1311507685        0.0923061218        6.4000313684  CLST         713          1.0000000000
      2138       713  TIP3  H1            7.4838307759        0.1372985637        7.2775697902  CLST         713          1.0000000000
      2139       713  TIP3  H2            7.4859592801       -0.7291742586        6.0980795782  CLST         713          1.0000000000
      2140       714  TIP3  OH2           4.8991526670       12.5267239316        4.4836874516  CLST         714          1.0000000000
      2141       714  TIP3  H1            4.2755210576       12.8523073473        3.8322220822  CLST         714          1.0000000000
      2142       714  TIP3  H2            4.4115375264       12.7416978332        5.2592699474  CLST         714          1.0000000000
      2143       715  TIP3  OH2          -9.0611100765       -9.5046968309        1.7178159271  CLST         715          1.0000000000
      2144       715  TIP3  H1           -9.7275999180       -8.8246183205        1.6181877671  CLST         715          1.0000000000
      2145       715  TIP3  H2           -9.6102928940      -10.0076939120        2.3685029281  CLST         715          1.0000000000
      2146       716  TIP3  OH2         -13.7560066776      -13.6307717918       -0.0058578639  CLST         716          1.0000000000
      2147       716  TIP3  H1          -14.4076709046      -14.2986259241       -0.0713418106  CLST         716          1.0000000000
      2148       716  TIP3  H2          -13.8494217122      -13.1021385135       -0.7846601371  CLST         716          1.0000000000
      2149       717  TIP3  OH2          -6.1084246788      -12.0115203494        2.4301926301  CLST         717          1.0000000000
      2150       717  TIP3  H1           -6.3250921116      -11.3888759948        1.7369330146  CLST         717          1.0000000000
      2151       717  TIP3  H2           -6.7922193456      -12.6149880541        2.1686801540  CLST         717          1.0000000000
      2152       718  TIP3  OH2         -10.9370817059        7.4753538181       13.4057814045  CLST         718          1.0000000000
      2153       718  TIP3  H1          -11.4113622875        8.1011503446       14.0122102439  CLST         718          1.0000000000
      2154       718  TIP3  H2          -10.3917579896        8.1443007959       12.9840833420  CLST         718          1.0000000000
      2155       719  TIP3  OH2          10.4922193967       -7.2506844274        2.9259489345  CLST         719          1.0000000000
      2156       719  TIP3  H1           11.2341902411       -6.7436706690        3.3248135931  CLST         719          1.0000000000
      2157       719  TIP3  H2           10.7795784214       -7.1480116826        2.0071010459  CLST         719          1.0000000000
      2158       720  TIP3  OH2          -4.8968231604       13.1806687610       -8.4213048825  CLST         720          1.0000000000
      2159       720  TIP3  H1           -3.9387798474       13.1881231740       -8.3084057746  CLST         720          1.0000000000
      2160       720  TIP3  H2           -4.9924045747       13.5849524763       -7.5339188221  CLST         720          1.0000000000
      2161       721  TIP3  OH2           3.9561946114       -6.0230416696      -10.0853155965  CLST         721          1.0000000000
      2162       721  TIP3  H1            4.0540614672       -5.9353564974       -9.1560445702  CLST         721          1.0000000000
      2163       721  TIP3  H2            4.8255154937       -6.4183255064      -10.2280246421  CLST         721          1.0000000000
      2164       722  TIP3  OH2          10.2610420211       -2.4482564876        2.1370826586  CLST         722          1.0000000000
      2165       722  TIP3  H1            9.8535057218       -3.1310039182        1.6219491538  CLST         722          1.0000000000
      2166       722  TIP3  H2           11.1235998807       -2.4124001929        1.7324302936  CLST         722          1.0000000000
      2167       723  TIP3  OH2           0.3917353375       13.4239646479        5.9463322895  CLST         723          1.0000000000
      2168       723  TIP3  H1            0.6285221050       14.2709860045        5.5886468045  CLST         723          1.0000000000
      2169       723  TIP3  H2            1.2674222518       13.0741720030        6.0521837980  CLST         723          1.0000000000
      2170       724  TIP3  OH2           8.4087087293       -8.3776400941       -4.0515688945  CLST         724          1.0000000000
      2171       724  TIP3  H1            8.3724245774       -9.1166352940       -4.6556704190  CLST         724          1.0000000000
      2172       724  TIP3  H2            8.1702659034       -7.6938806824       -4.6517814791  CLST         724          1.0000000000
      2173       725  TIP3  OH2          -0.9701085905       -0.1529316259        2.2829422623  CLST         725          1.0000000000
      2174       725  TIP3  H1           -1.5766482935       -0.8484303357        2.4846599594  CLST         725          1.0000000000
      2175       725  TIP3  H2           -1.4822800002        0.4670689074        1.7808013622  CLST         725          1.0000000000
      2176       726  TIP3  OH2         -14.0800277566       10.7078541793        6.0326359722  CLST         726          1.0000000000
      2177       726  TIP3  H1          -14.8375559034       10.8554447200        5.4908238454  CLST         726          1.0000000000
      2178       726  TIP3  H2          -13.6812608304       11.6114737548        5.9293972664  CLST         726          1.0000000000
      2179       727  TIP3  OH2          -4.3140051664      -13.6898196246       -0.4857792238  CLST         727          1.0000000000
      2180       727  TIP3  H1           -4.0398725016      -14.0741621776        0.3291309344  CLST         727          1.0000000000
      2181       727  TIP3  H2           -3.8829682801      -12.8576038392       -0.3987066215  CLST         727          1.0000000000
      2182       728  TIP3  OH2          -8.0949324326        3.0904668126       -0.7992933278  CLST         728          1.0000000000
      2183       728  TIP3  H1           -7.5713607009        2.2700544746       -0.6002382604  CLST         728          1.0000000000
      2184       728  TIP3  H2           -8.9967424429        2.8298154032       -0.9257542992  CLST         728          1.0000000000
      2185       729  TIP3  OH2          10.5077679360      -10.3131978245        2.7554067457  CLST         729          1.0000000000
      2186       729  TIP3  H1           10.6621587555       -9.3643442342        2.7317606701  CLST         729          1.0000000000
      2187       729  TIP3  H2           11.3918741220      -10.6576314324        2.8029010306  CLST         729          1.0000000000
      2188       730  TIP3  OH2          -4.3392285191       10.9009132124       -5.3555064962  CLST         730          1.0000000000
      2189       730  TIP3  H1           -4.1147233372       10.1242257935       -5.8743008695  CLST         730          1.0000000000
      2190       730  TIP3  H2           -5.1953249601       10.9694731690       -5.7843189805  CLST         730          1.0000000000
      2191       731  TIP3  OH2          13.2033010939       12.5938768494       -4.5499405127  CLST         731          1.0000000000
      2192       731  TIP3  H1           13.7176505375       13.0055743803       -5.1991462229  CLST         731          1.0000000000
      2193       731  TIP3  H2           12.7823885792       11.8814407918       -5.0518390824  CLST         731          1.0000000000
      2194       732  TIP3  OH2          -2.7082614971       -1.4107266200       -1.9576625624  CLST         732          1.0000000000
      2195       732  TIP3  H1           -3.1685142648       -1.1893578227       -1.1567813569  CLST         732          1.0000000000
      2196       732  TIP3  H2           -3.3774387055       -1.3213520980       -2.6243427946  CLST         732          1.0000000000
      2197       733  TIP3  OH2           5.2704011193        2.5176062300       12.9974848195  CLST         733          1.0000000000
      2198       733  TIP3  H1            5.0679183566        1.7314122878       12.5016415885  CLST         733          1.0000000000
      2199       733  TIP3  H2            4.5126676728        2.4604007569       13.5720502507  CLST         733          1.0000000000
      2200       734  TIP3  OH2           8.5631599051       -2.0884035317        5.8700801478  CLST         734          1.0000000000
      2201       734  TIP3  H1            8.3494787412       -2.6507328199        5.1059060080  CLST         734          1.0000000000
      2202       734  TIP3  H2            9.5358034444       -2.1725573090        5.7972395803  CLST         734          1.0000000000
      2203       735  TIP3  OH2         -10.9191322037      -12.6446267406        1.0994661076  CLST         735          1.0000000000
      2204       735  TIP3  H1          -11.0616941614      -11.9953790480        1.8107073121  CLST         735          1.0000000000
      2205       735  TIP3  H2          -11.7876603608      -12.7878006743        0.7682761503  CLST         735          1.0000000000
      2206       736  TIP3  OH2          13.4206160664        2.4949069095        2.8740036937  CLST         736          1.0000000000
      2207       736  TIP3  H1           13.8972488033        2.7146373232        2.1039472839  CLST         736          1.0000000000
      2208       736  TIP3  H2           12.8161096876        1.9288878086        2.4622735468  CLST         736          1.0000000000
      2209       737  TIP3  OH2          11.5456679888       -2.0872001749        8.0145316841  CLST         737          1.0000000000
      2210       737  TIP3  H1           11.2570089980       -2.1944486030        7.1090011706  CLST         737          1.0000000000
      2211       737  TIP3  H2           11.7410532148       -1.1578417568        7.9566505761  CLST         737          1.0000000000
      2212       738  TIP3  OH2          10.4444414450        1.1440046241       14.2284915670  CLST         738          1.0000000000
      2213       738  TIP3  H1            9.5632761745        1.0222754631       14.5114259255  CLST         738          1.0000000000
      2214       738  TIP3  H2           10.6307920488        0.2225926030       14.3813747945  CLST         738          1.0000000000
      2215       739  TIP3  OH2         -13.5478759913        1.4759785979       10.2654721153  CLST         739          1.0000000000
      2216       739  TIP3  H1          -14.2479425801        1.6785172601       10.8614218054  CLST         739          1.0000000000
      2217       739  TIP3  H2          -14.0095098137        0.7772576539        9.7852238299  CLST         739          1.0000000000
      2218       740  TIP3  OH2           6.1963143946      -14.4249111028       -4.9401902390  CLST         740          1.0000000000
      2219       740  TIP3  H1            5.5070565260      -14.8375559034       -5.4194482344  CLST         740          1.0000000000
      2220       740  TIP3  H2            6.9857378698      -14.7818142858       -5.3479585642  CLST         740          1.0000000000
      2221       741  TIP3  OH2          11.6573552873        5.0925005915        9.3547970494  CLST         741          1.0000000000
      2222       741  TIP3  H1           12.4925279205        5.3270648112        9.6558595218  CLST         741          1.0000000000
      2223       741  TIP3  H2           11.6676062390        4.1619227311        9.3555295818  CLST         741          1.0000000000
      2224       742  TIP3  OH2           8.2898908188       -9.6938463161       -6.3273798482  CLST         742          1.0000000000
      2225       742  TIP3  H1            8.5360681762      -10.6060011671       -6.4471213898  CLST         742          1.0000000000
      2226       742  TIP3  H2            7.7029889734       -9.7510950075       -7.0649836330  CLST         742          1.0000000000
      2227       743  TIP3  OH2          -7.3144588430       -0.3300332345      -10.8899020076  CLST         743          1.0000000000
      2228       743  TIP3  H1           -7.0279966151        0.5640611484      -10.8097152909  CLST         743          1.0000000000
      2229       743  TIP3  H2           -6.4762613273       -0.7533353845      -10.8415440045  CLST         743          1.0000000000
      2230       744  TIP3  OH2          -6.2564465301        3.5748172620        5.4772316056  CLST         744          1.0000000000
      2231       744  TIP3  H1           -5.3401226545        3.2157180919        5.5615455436  CLST         744          1.0000000000
      2232       744  TIP3  H2           -6.0514160352        4.4805502497        5.7522513224  CLST         744          1.0000000000
      2233       745  TIP3  OH2           0.2957051658       -8.4219092476        6.8596945092  CLST         745          1.0000000000
      2234       745  TIP3  H1            0.7497579132       -9.2105381518        7.0793540431  CLST         745          1.0000000000
      2235       745  TIP3  H2            0.2540889918       -7.9977959523        7.6807573815  CLST         745          1.0000000000
      2236       746  TIP3  OH2          -7.7219642833       -4.5904070455       -5.9505911021  CLST         746          1.0000000000
      2237       746  TIP3  H1           -7.8559038847       -5.4069441982       -6.4641895246  CLST         746          1.0000000000
      2238       746  TIP3  H2           -8.1619994913       -3.9616540153       -6.5122859859  CLST         746          1.0000000000
      2239       747  TIP3  OH2          11.3658595597       12.0216168881        2.2053811996  CLST         747          1.0000000000
      2240       747  TIP3  H1           10.6510938850       12.4847414366        2.6270804120  CLST         747          1.0000000000
      2241       747  TIP3  H2           11.5561316616       11.5411321055        3.0133661062  CLST         747          1.0000000000
      2242       748  TIP3  OH2           3.6660180188        4.9728106587        8.6418616254  CLST         748          1.0000000000
      2243       748  TIP3  H1            4.2715511032        5.0816747505        9.3840932316  CLST         748          1.0000000000
      2244       748  TIP3  H2            3.7381586399        5.8292327674        8.2267402664  CLST         748          1.0000000000
      2245       749  TIP3  OH2          10.9946198183        9.4743113006        6.4033767227  CLST         749          1.0000000000
      2246       749  TIP3  H1           10.8811685859        8.7274715590        6.9550001805  CLST         749          1.0000000000
      2247       749  TIP3  H2           10.6943623508       10.2219914878        6.9014282088  CLST         749          1.0000000000
      2248       750  TIP3  OH2         -14.0153034092       12.3299488667       -7.6541031713  CLST         750          1.0000000000
      2249       750  TIP3  H1          -14.8375559034       12.0196294563       -7.9627841777  CLST         750          1.0000000000
      2250       750  TIP3  H2          -13.4907887294       11.8949565355       -8.2978355576  CLST         750          1.0000000000
      2251       751  TIP3  OH2           8.5746583465        4.3516893184       -4.3373270492  CLST         751          1.0000000000
      2252       751  TIP3  H1            7.9368054503        3.7536109406       -4.6710918431  CLST         751          1.0000000000
      2253       751  TIP3  H2            9.0174624834        3.8154005268       -3.7229554172  CLST         751          1.0000000000
      2254       752  TIP3  OH2         -12.2294168135       13.2562261241        2.3671082807  CLST         752          1.0000000000
      2255       752  TIP3  H1          -12.5355250287       13.2125964247        1.4775720261  CLST         752          1.0000000000
      2256       752  TIP3  H2          -12.3762470543       12.3517139294        2.5758400741  CLST         752          1.0000000000
      2257       753  TIP3  OH2           8.5233853056        2.5599537984       -7.0818937387  CLST         753          1.0000000000
      2258       753  TIP3  H1            8.2472429113        3.3740242245       -7.5400053360  CLST         753          1.0000000000
      2259       753  TIP3  H2            7.8374745696        2.3906186523       -6.4879286328  CLST         753          1.0000000000
      2260       754  TIP3  OH2          11.3622674004        2.3762909199       -6.0880495132  CLST         754          1.0000000000
      2261       754  TIP3  H1           11.2253032961        2.5384500488       -5.1723581512  CLST         754          1.0000000000
      2262       754  TIP3  H2           10.4399592438        2.4464543595       -6.3560070680  CLST         754          1.0000000000
      2263       755  TIP3  OH2           7.5127449263       -1.6897829393       -0.1455980276  CLST         755          1.0000000000
      2264       755  TIP3  H1            6.5953953599       -1.9037838225       -0.0458651699  CLST         755          1.0000000000
      2265       755  TIP3  H2            7.4619339403       -0.7357823716       -0.0949649973  CLST         755          1.0000000000
      2266       756  TIP3  OH2         -12.7756734070        6.3843689229        5.8243282006  CLST         756          1.0000000000
      2267       756  TIP3  H1          -13.4153021180        5.7435311168        5.6329444022  CLST         756          1.0000000000
      2268       756  TIP3  H2          -12.1854679667        6.1838398352        6.5541312520  CLST         756          1.0000000000
      2269       757  TIP3  OH2          -4.6958229123       -4.9805279172       -2.2349238936  CLST         757          1.0000000000
      2270       757  TIP3  H1           -4.1828518261       -5.2635558298       -2.9756629368  CLST         757          1.0000000000
      2271       757  TIP3  H2           -5.3817304106       -4.5479102671       -2.7526762992  CLST         757          1.0000000000
      2272       758  TIP3  OH2          12.1266162123        4.3794683014       -0.9249851916  CLST         758          1.0000000000
      2273       758  TIP3  H1           12.2792476621        4.9575082202       -0.2125757990  CLST         758          1.0000000000
      2274       758  TIP3  H2           12.6825818110        3.6369826117       -0.7808383412  CLST         758          1.0000000000
      2275       759  TIP3  OH2          -7.5957861642       11.7013756522      -11.1752835749  CLST         759          1.0000000000
      2276       759  TIP3  H1           -7.4742590025       11.9019212843      -12.0687598540  CLST         759          1.0000000000
      2277       759  TIP3  H2           -6.7297589165       11.4786496977      -10.9216359581  CLST         759          1.0000000000
      2278       760  TIP3  OH2           8.0580702422       14.4120178402       -6.2695617005  CLST         760          1.0000000000
      2279       760  TIP3  H1            8.5394621679       14.6676403700       -7.0539500405  CLST         760          1.0000000000
      2280       760  TIP3  H2            7.6036897123       13.6717953029       -6.6664467300  CLST         760          1.0000000000
      2281       761  TIP3  OH2          -7.0076511722        8.1113489418      -11.4676918918  CLST         761          1.0000000000
      2282       761  TIP3  H1           -7.8489203605        7.8375503442      -11.7388213846  CLST         761          1.0000000000
      2283       761  TIP3  H2           -7.1343773396        8.1710746320      -10.5298972352  CLST         761          1.0000000000
      2284       762  TIP3  OH2           7.7339473844       -6.1702286740      -12.9876326646  CLST         762          1.0000000000
      2285       762  TIP3  H1            7.1331524700       -6.7816165842      -12.5511961416  CLST         762          1.0000000000
      2286       762  TIP3  H2            7.5593861258       -5.3495497257      -12.5329574541  CLST         762          1.0000000000
      2287       763  TIP3  OH2          -1.0053697604       -6.2026178480        8.9557328841  CLST         763          1.0000000000
      2288       763  TIP3  H1           -1.2281607061       -5.3413791883        8.5907136702  CLST         763          1.0000000000
      2289       763  TIP3  H2           -1.5423366663       -6.2176740626        9.7401861648  CLST         763          1.0000000000
      2290       764  TIP3  OH2           8.9315641829      -11.3918805089        0.8233698775  CLST         764          1.0000000000
      2291       764  TIP3  H1            8.2631830228      -10.7335560314        0.8231786408  CLST         764          1.0000000000
      2292       764  TIP3  H2            9.6518866562      -11.0396919188        1.3327621289  CLST         764          1.0000000000
      2293       765  TIP3  OH2         -14.4921131647      -12.1997042612       13.1839335443  CLST         765          1.0000000000
      2294       765  TIP3  H1          -13.8983330881      -11.8272392905       13.7943260869  CLST         765          1.0000000000
      2295       765  TIP3  H2          -14.8375559034      -11.5083043048       12.6431906781  CLST         765          1.0000000000
      2296       766  TIP3  OH2          11.5470423901       -8.3846874591      -12.0189433275  CLST         766          1.0000000000
      2297       766  TIP3  H1           10.8618212572       -7.9560479040      -12.5216519273  CLST         766          1.0000000000
      2298       766  TIP3  H2           11.1354702272       -9.1223192989      -11.6254205195  CLST         766          1.0000000000
      2299       767  TIP3  OH2           2.2919182703       12.4481590856      -12.6842220718  CLST         767          1.0000000000
      2300       767  TIP3  H1            2.5262815758       12.0022920916      -11.8657399124  CLST         767          1.0000000000
      2301       767  TIP3  H2            2.2012481685       13.3890657801      -12.3902201777  CLST         767          1.0000000000
      2302       768  TIP3  OH2           7.7182053879        7.1180313927        8.5187830442  CLST         768          1.0000000000
      2303       768  TIP3  H1            8.6492860514        7.1015998690        8.4379667104  CLST         768          1.0000000000
      2304       768  TIP3  H2            7.6867904828        6.1709454033        8.5463187072  CLST         768          1.0000000000
      2305       769  TIP3  OH2         -11.8893365669        3.1189401031        1.0434467599  CLST         769          1.0000000000
      2306       769  TIP3  H1          -11.0310292992        3.0169175236        1.4442572939  CLST         769          1.0000000000
      2307       769  TIP3  H2          -12.4998837058        3.1872837613        1.7759632397  CLST         769          1.0000000000
      2308       770  TIP3  OH2          10.1750289981       -4.6620703439       11.4027639246  CLST         770          1.0000000000
      2309       770  TIP3  H1           10.0399946896       -3.8274301243       10.9994013792  CLST         770          1.0000000000
      2310       770  TIP3  H2           11.1080050659       -4.7317049747       11.3521736914  CLST         770          1.0000000000
      2311       771  TIP3  OH2         -10.4229762341        1.1160685200       -5.6854580888  CLST         771          1.0000000000
      2312       771  TIP3  H1           -9.7441275507        0.4846532530       -5.6234826884  CLST         771          1.0000000000
      2313       771  TIP3  H2          -10.2228564924        1.6064997852       -4.8907341329  CLST         771          1.0000000000
      2314       772  TIP3  OH2          13.0323079356      -12.5265676675       -6.7205232155  CLST         772          1.0000000000
      2315       772  TIP3  H1           13.2521094493      -11.6360097992       -6.8549481155  CLST         772          1.0000000000
      2316       772  TIP3  H2           12.4128636090      -12.5274376060       -6.0195114479  CLST         772          1.0000000000
      2317       773  TIP3  OH2          12.1108264511       -4.8146435423        3.5598065319  CLST         773          1.0000000000
      2318       773  TIP3  H1           11.7845932465       -4.2141446548        4.2533255040  CLST         773          1.0000000000
      2319       773  TIP3  H2           12.7973036391       -4.3170612443        3.1494557747  CLST         773          1.0000000000
      2320       774  TIP3  OH2          -7.7217349003       -0.2525941583       -5.9363102965  CLST         774          1.0000000000
      2321       774  TIP3  H1           -6.8550837570       -0.6666731437       -6.0388541526  CLST         774          1.0000000000
      2322       774  TIP3  H2           -7.4137488971        0.6362323232       -5.8054267817  CLST         774          1.0000000000
      2323       775  TIP3  OH2           2.6795711666        1.5973292360        5.3947288569  CLST         775          1.0000000000
      2324       775  TIP3  H1            2.6777014231        1.4541263834        6.3324249536  CLST         775          1.0000000000
      2325       775  TIP3  H2            3.1353637549        2.4282122249        5.3793306749  CLST         775          1.0000000000
      2326       776  TIP3  OH2           0.0381537875        9.5167395939        5.6718791486  CLST         776          1.0000000000
      2327       776  TIP3  H1           -0.6987317508       10.1070448808        5.7154922359  CLST         776          1.0000000000
      2328       776  TIP3  H2           -0.4017870039        8.7121933318        5.4720073280  CLST         776          1.0000000000
      2329       777  TIP3  OH2         -13.0858219291      -10.2175636130        0.1593575198  CLST         777          1.0000000000
      2330       777  TIP3  H1          -12.7940786340       -9.3083198814        0.2567282096  CLST         777          1.0000000000
      2331       777  TIP3  H2          -13.6817001767      -10.4339912443        0.8460653680  CLST         777          1.0000000000
      2332       778  TIP3  OH2         -11.6712527151        5.7442486079       -0.3828249795  CLST         778          1.0000000000
      2333       778  TIP3  H1          -11.5289218472        4.9132090502        0.0449159602  CLST         778          1.0000000000
      2334       778  TIP3  H2          -11.6467793736        5.4332660511       -1.2915533398  CLST         778          1.0000000000
      2335       779  TIP3  OH2          -6.1602099852        5.2775407878       -1.6165783486  CLST         779          1.0000000000
      2336       779  TIP3  H1           -6.9186129812        4.7116963521       -1.4485143777  CLST         779          1.0000000000
      2337       779  TIP3  H2           -6.4708641615        6.0703202603       -1.1676136621  CLST         779          1.0000000000
      2338       780  TIP3  OH2           2.4147188450       13.9101447462       -8.6266217626  CLST         780          1.0000000000
      2339       780  TIP3  H1            2.1120989980       14.6156300829       -9.2049676706  CLST         780          1.0000000000
      2340       780  TIP3  H2            3.2111725872       13.7754731797       -9.0894196465  CLST         780          1.0000000000
      2341       781  TIP3  OH2           8.9963045242       -8.7450707252       -9.6747442787  CLST         781          1.0000000000
      2342       781  TIP3  H1            9.6966824355       -8.2637065231       -9.2944058399  CLST         781          1.0000000000
      2343       781  TIP3  H2            9.3048667514       -9.6213499133       -9.4795171339  CLST         781          1.0000000000
      2344       782  TIP3  OH2           0.1699474095        2.5373683815        4.2720468054  CLST         782          1.0000000000
      2345       782  TIP3  H1           -0.4718201908        1.9869027371        4.7016333566  CLST         782          1.0000000000
      2346       782  TIP3  H2            0.9321033711        2.1542804191        4.6812068118  CLST         782          1.0000000000
      2347       783  TIP3  OH2          -7.1055103709      -12.5725396278      -13.4103142598  CLST         783          1.0000000000
      2348       783  TIP3  H1           -7.8127353248      -12.1749612959      -12.8184360347  CLST         783          1.0000000000
      2349       783  TIP3  H2           -7.6559118172      -12.8609186132      -14.1337152817  CLST         783          1.0000000000
      2350       784  TIP3  OH2          14.4234446666        5.1345775657       -4.0372385793  CLST         784          1.0000000000
      2351       784  TIP3  H1           14.8375559034        5.9591062485       -4.3390689593  CLST         784          1.0000000000
      2352       784  TIP3  H2           13.5068521262        5.3778836909       -4.1501823193  CLST         784          1.0000000000
      2353       785  TIP3  OH2          10.5542350574        8.3472507503        0.8146819728  CLST         785          1.0000000000
      2354       785  TIP3  H1           10.9482493894        8.6801309632        1.6015677994  CLST         785          1.0000000000
      2355       785  TIP3  H2           11.3649905077        8.3514388986        0.3510343266  CLST         785          1.0000000000
      2356       786  TIP3  OH2          12.6913552638        3.5027737370       12.5129109538  CLST         786          1.0000000000
      2357       786  TIP3  H1           13.0857341501        4.2850997368       12.9124632102  CLST         786          1.0000000000
      2358       786  TIP3  H2           11.8603938436        3.5126921800       12.9565792193  CLST         786          1.0000000000
      2359       787  TIP3  OH2          -8.0934360585       -0.0443298775       11.4395635791  CLST         787          1.0000000000
      2360       787  TIP3  H1           -8.7441787578        0.1854916061       10.8088453443  CLST         787          1.0000000000
      2361       787  TIP3  H2           -8.6159153422       -0.7083075402       11.8867174056  CLST         787          1.0000000000
      2362       788  TIP3  OH2           2.4479222923      -13.2885706795       10.8943626759  CLST         788          1.0000000000
      2363       788  TIP3  H1            2.2741289392      -13.4685428355       11.8048060111  CLST         788          1.0000000000
      2364       788  TIP3  H2            3.1585491037      -13.8982694362       10.8139332048  CLST         788          1.0000000000
      2365       789  TIP3  OH2          -6.9685711971        0.9790474299       -3.2783684869  CLST         789          1.0000000000
      2366       789  TIP3  H1           -7.1736894911        0.1636407235       -2.8779023340  CLST         789          1.0000000000
      2367       789  TIP3  H2           -6.0480420552        0.7740442592       -3.3695934649  CLST         789          1.0000000000
      2368       790  TIP3  OH2         -11.2555969199       -9.3685794981        5.6257032577  CLST         790          1.0000000000
      2369       790  TIP3  H1          -11.3154793107       -9.4178477709        6.5716741280  CLST         790          1.0000000000
      2370       790  TIP3  H2          -11.4346436558       -8.4023062387        5.5404105977  CLST         790          1.0000000000
      2371       791  TIP3  OH2          -5.0199104661       -5.7659016229      -10.7026658570  CLST         791          1.0000000000
      2372       791  TIP3  H1           -4.1199385450       -6.0113390965      -10.5918164013  CLST         791          1.0000000000
      2373       791  TIP3  H2           -4.8238642227       -4.9330294719      -11.1196648178  CLST         791          1.0000000000
      2374       792  TIP3  OH2           7.0962044895       -4.0461480109        9.9189953476  CLST         792          1.0000000000
      2375       792  TIP3  H1            7.5770559231       -4.8641018836        9.7016832061  CLST         792          1.0000000000
      2376       792  TIP3  H2            7.8892879897       -3.5244549865        9.8554400965  CLST         792          1.0000000000
      2377       793  TIP3  OH2          -3.1179722951       12.7613561766       -3.7445951214  CLST         793          1.0000000000
      2378       793  TIP3  H1           -3.5020548800       12.6135895994       -2.8675397320  CLST         793          1.0000000000
      2379       793  TIP3  H2           -3.5075842182       12.0110010237       -4.1943110859  CLST         793          1.0000000000
      2380       794  TIP3  OH2          -0.6034892999        2.8860074302       -6.6857606094  CLST         794          1.0000000000
      2381       794  TIP3  H1           -0.8608858954        2.2170140585       -7.3093129901  CLST         794          1.0000000000
      2382       794  TIP3  H2           -1.0037170008        3.6068855162       -7.2093059005  CLST         794          1.0000000000
      2383       795  TIP3  OH2          -2.0091473096       -9.4810882670        1.2339915984  CLST         795          1.0000000000
      2384       795  TIP3  H1           -2.5395101404      -10.2158209772        0.8722027754  CLST         795          1.0000000000
      2385       795  TIP3  H2           -1.7071441602       -9.9184407570        2.0676829682  CLST         795          1.0000000000
      2386       796  TIP3  OH2           2.8201758060        4.6515208089        4.8793855035  CLST         796          1.0000000000
      2387       796  TIP3  H1            3.0095607889        4.5324166512        3.9359141764  CLST         796          1.0000000000
      2388       796  TIP3  H2            3.6231368488        5.1307802336        5.1053529028  CLST         796          1.0000000000
      2389       797  TIP3  OH2         -11.7002830890        5.5453412995       -3.2250251307  CLST         797          1.0000000000
      2390       797  TIP3  H1          -12.1137325813        6.3468471543       -3.5544848333  CLST         797          1.0000000000
      2391       797  TIP3  H2          -11.2286979141        5.2837256877       -4.0159832531  CLST         797          1.0000000000
      2392       798  TIP3  OH2         -11.2600817886        9.8045706220       10.5904643901  CLST         798          1.0000000000
      2393       798  TIP3  H1          -11.3979179318       10.1850158948        9.7281136166  CLST         798          1.0000000000
      2394       798  TIP3  H2          -11.6539265998       10.5968774781       11.0066005358  CLST         798          1.0000000000
      2395       799  TIP3  OH2           3.7983604252       -1.8589991386      -12.7131468661  CLST         799          1.0000000000
      2396       799  TIP3  H1            4.4284069102       -1.1595172381      -12.5868116017  CLST         799          1.0000000000
      2397       799  TIP3  H2            4.0530741162       -2.1112791899      -13.5874339604  CLST         799          1.0000000000
      2398       800  TIP3  OH2         -10.2105846379        7.3011288099       10.2616246810  CLST         800          1.0000000000
      2399       800  TIP3  H1          -10.8740506830        7.9827055115       10.4510729563  CLST         800          1.0000000000
      2400       800  TIP3  H2           -9.4631947888        7.8754831708       10.3952745815  CLST         800          1.0000000000
      2401       801  TIP3  OH2           8.0563899644      -11.1962937065      -10.7497471923  CLST         801          1.0000000000
      2402       801  TIP3  H1            7.8484316441      -12.1038312180      -10.7159929209  CLST         801          1.0000000000
      2403       801  TIP3  H2            8.6905822616      -11.2158099424      -11.4504775829  CLST         801          1.0000000000
      2404       802  TIP3  OH2           5.5440884405       -0.1879142619       11.7877135905  CLST         802          1.0000000000
      2405       802  TIP3  H1            4.9356055734       -0.1929956747       11.0652477429  CLST         802          1.0000000000
      2406       802  TIP3  H2            6.3419355407       -0.3483856860       11.3147038870  CLST         802          1.0000000000
      2407       803  TIP3  OH2           6.6241048279       -9.6432813505        0.1816248394  CLST         803          1.0000000000
      2408       803  TIP3  H1            6.2429682806      -10.4960419413       -0.0559272212  CLST         803          1.0000000000
      2409       803  TIP3  H2            6.0035183356       -9.4417683883        0.8690280916  CLST         803          1.0000000000
      2410       804  TIP3  OH2           5.3979089172        6.2563775596        1.8475878598  CLST         804          1.0000000000
      2411       804  TIP3  H1            4.9385383477        6.0929782082        1.0155453669  CLST         804          1.0000000000
      2412       804  TIP3  H2            6.0476695554        5.5406154850        1.8177636245  CLST         804          1.0000000000
      2413       805  TIP3  OH2           7.4493973917       -4.4223623920       14.1068641585  CLST         805          1.0000000000
      2414       805  TIP3  H1            8.1101428777       -4.3068873926       13.4759526762  CLST         805          1.0000000000
      2415       805  TIP3  H2            7.9409849074       -4.6897685149       14.8375559034  CLST         805          1.0000000000
      2416       806  TIP3  OH2           8.3661371077       10.0108392415       13.7830068358  CLST         806          1.0000000000
      2417       806  TIP3  H1            8.0256893829        9.0955688216       13.8656730227  CLST         806          1.0000000000
      2418       806  TIP3  H2            7.8396951261       10.2611564503       13.0290619337  CLST         806          1.0000000000
      2419       807  TIP3  OH2          -3.7550693955        8.0399170057        1.4289479153  CLST         807          1.0000000000
      2420       807  TIP3  H1           -3.6539912198        9.0022477374        1.5277497326  CLST         807          1.0000000000
      2421       807  TIP3  H2           -3.7507190570        7.8125759873        2.3573458064  CLST         807          1.0000000000
      2422       808  TIP3  OH2          -3.7860234128       13.8548589294        1.1655739509  CLST         808          1.0000000000
      2423       808  TIP3  H1           -3.2046718117       13.9768074422        1.8700737187  CLST         808          1.0000000000
      2424       808  TIP3  H2           -3.1297463155       13.6647565298        0.5189916698  CLST         808          1.0000000000
      2425       809  TIP3  OH2           2.0379426125       12.6909632793        9.4714248329  CLST         809          1.0000000000
      2426       809  TIP3  H1            2.2167292288       11.9519253690        8.9146950993  CLST         809          1.0000000000
      2427       809  TIP3  H2            1.3891416459       13.1478867445        8.9680697987  CLST         809          1.0000000000
      2428       810  TIP3  OH2          -1.9096536017        8.6459321194        8.6816371429  CLST         810          1.0000000000
      2429       810  TIP3  H1           -0.9691854978        8.7889773748        8.5305047496  CLST         810          1.0000000000
      2430       810  TIP3  H2           -1.8926660793        8.1464126687        9.4726293532  CLST         810          1.0000000000
      2431       811  TIP3  OH2          -3.8364037296      -12.5066648322       -9.1638030798  CLST         811          1.0000000000
      2432       811  TIP3  H1           -4.3167886671      -13.0098260786       -9.8420284121  CLST         811          1.0000000000
      2433       811  TIP3  H2           -4.2194785136      -11.6199059137       -9.3003979048  CLST         811          1.0000000000
      2434       812  TIP3  OH2          10.8176230420        4.4042892020      -13.6522199452  CLST         812          1.0000000000
      2435       812  TIP3  H1           11.2526034751        3.6016187055      -13.3240089694  CLST         812          1.0000000000
      2436       812  TIP3  H2           11.5980090015        4.8778632960      -13.9337134544  CLST         812          1.0000000000
      2437       813  TIP3  OH2          -2.2890340037        0.7345996027      -14.0730234708  CLST         813          1.0000000000
      2438       813  TIP3  H1           -2.0688494102        1.5593044919      -14.5356485554  CLST         813          1.0000000000
      2439       813  TIP3  H2           -3.2217446206        0.9312618342      -14.1050433191  CLST         813          1.0000000000
      2440       814  TIP3  OH2          -7.4857748591        8.0404405967       -8.6348311984  CLST         814          1.0000000000
      2441       814  TIP3  H1           -6.8009048194        8.6626843373       -8.4570566642  CLST         814          1.0000000000
      2442       814  TIP3  H2           -6.9855053110        7.2375295507       -8.4880801457  CLST         814          1.0000000000
      2443       815  TIP3  OH2          -5.0682021594        1.2954243782       -8.4736484361  CLST         815          1.0000000000
      2444       815  TIP3  H1           -4.6363845618        2.0915238726       -8.2463690454  CLST         815          1.0000000000
      2445       815  TIP3  H2           -5.8439187161        1.6528599675       -8.8884357961  CLST         815          1.0000000000
      2446       816  TIP3  OH2          -8.2889080295      -13.6388891923        1.7064613887  CLST         816          1.0000000000
      2447       816  TIP3  H1           -8.6695083003      -14.5305614215        1.6045269742  CLST         816          1.0000000000
      2448       816  TIP3  H2           -9.1336162955      -13.1837065890        1.5758024660  CLST         816          1.0000000000
      2449       817  TIP3  OH2           3.5317980360       14.4367657890       10.9668478079  CLST         817          1.0000000000
      2450       817  TIP3  H1            2.9870240146       13.7380730223       10.5702865787  CLST         817          1.0000000000
      2451       817  TIP3  H2            3.2495960811       14.3668450972       11.8792668612  CLST         817          1.0000000000
      2452       818  TIP3  OH2          11.5693976731       -3.3609662937       -5.7435806705  CLST         818          1.0000000000
      2453       818  TIP3  H1           11.6538408971       -2.5502689252       -5.2905177602  CLST         818          1.0000000000
      2454       818  TIP3  H2           10.6712806205       -3.3889242908       -5.9571448349  CLST         818          1.0000000000
      2455       819  TIP3  OH2           0.2190040733        0.0478399133      -10.6339805256  CLST         819          1.0000000000
      2456       819  TIP3  H1            0.3524071733       -0.5521575270      -11.3248358954  CLST         819          1.0000000000
      2457       819  TIP3  H2            1.0790583212        0.4663112508      -10.7153614240  CLST         819          1.0000000000
      2458       820  TIP3  OH2         -11.2660540604       -7.8884241046       14.2773577197  CLST         820          1.0000000000
      2459       820  TIP3  H1          -11.8675051713       -8.3275158615       14.8375559034  CLST         820          1.0000000000
      2460       820  TIP3  H2          -11.1095259702       -8.4302980083       13.5112129051  CLST         820          1.0000000000
      2461       821  TIP3  OH2          12.0021734676       -1.0954515175       14.8155637352  CLST         821          1.0000000000
      2462       821  TIP3  H1           12.7438854954       -0.5319859819       14.6093107236  CLST         821          1.0000000000
      2463       821  TIP3  H2           12.2003335972       -1.8151756731       14.1961406499  CLST         821          1.0000000000
      2464       822  TIP3  OH2          -7.1647084568       14.4032846485        9.3044603820  CLST         822          1.0000000000
      2465       822  TIP3  H1           -7.0707219963       13.9325097291        8.5030808092  CLST         822          1.0000000000
      2466       822  TIP3  H2           -7.0764846673       13.7271959594        9.9256675883  CLST         822          1.0000000000
      2467       823  TIP3  OH2          -9.1631569612       -1.5980258458        7.7152787973  CLST         823          1.0000000000
      2468       823  TIP3  H1           -9.5853899342       -2.4056204022        8.0253791238  CLST         823          1.0000000000
      2469       823  TIP3  H2           -8.2699307135       -1.9264167645        7.7148795404  CLST         823          1.0000000000
      2470       824  TIP3  OH2          10.8225030880        0.6814633910        7.0519980396  CLST         824          1.0000000000
      2471       824  TIP3  H1           11.1846125474        0.3986795675        6.2271462431  CLST         824          1.0000000000
      2472       824  TIP3  H2           10.4280131101        1.4766571095        6.7082478627  CLST         824          1.0000000000
      2473       825  TIP3  OH2          -4.6141143169      -11.6403021581      -13.9688996997  CLST         825          1.0000000000
      2474       825  TIP3  H1           -5.4007763943      -12.1747896729      -13.9403865500  CLST         825          1.0000000000
      2475       825  TIP3  H2           -4.8555291401      -10.9684646752      -13.3515248306  CLST         825          1.0000000000
      2476       826  TIP3  OH2           4.4227568140      -13.9019394078        2.2542715763  CLST         826          1.0000000000
      2477       826  TIP3  H1            4.2727970332      -14.8375559034        2.1707996827  CLST         826          1.0000000000
      2478       826  TIP3  H2            5.2887287566      -13.8230594321        2.6234457601  CLST         826          1.0000000000
      2479       827  TIP3  OH2         -10.0925741644        8.3768785226       -6.5797082006  CLST         827          1.0000000000
      2480       827  TIP3  H1           -9.5081020864        8.5364640591       -5.8582921866  CLST         827          1.0000000000
      2481       827  TIP3  H2           -9.8572796618        7.4535144915       -6.6675501677  CLST         827          1.0000000000
      2482       828  TIP3  OH2          -9.9682630807       -7.6940433953       11.5614009098  CLST         828          1.0000000000
      2483       828  TIP3  H1           -9.0471601724       -7.9158895791       11.5600183315  CLST         828          1.0000000000
      2484       828  TIP3  H2           -9.9241501991       -6.8295782244       11.1858423744  CLST         828          1.0000000000
      2485       829  TIP3  OH2           3.0946841325       13.2541438870        6.3948520336  CLST         829          1.0000000000
      2486       829  TIP3  H1            3.6122141755       13.5941887906        7.1243680178  CLST         829          1.0000000000
      2487       829  TIP3  H2            2.8606370126       14.0255923971        5.9265073899  CLST         829          1.0000000000
      2488       830  TIP3  OH2          13.8915281700        2.8306218445        9.0361499892  CLST         830          1.0000000000
      2489       830  TIP3  H1           14.2950393475        3.4594305165        9.6348537335  CLST         830          1.0000000000
      2490       830  TIP3  H2           14.5486616677        3.0083395986        8.3666892196  CLST         830          1.0000000000
      2491       831  TIP3  OH2           3.0700333483        2.3041992176        8.1135611803  CLST         831          1.0000000000
      2492       831  TIP3  H1            3.3495490807        3.1772480470        8.3687279978  CLST         831          1.0000000000
      2493       831  TIP3  H2            2.1532802568        2.4503506454        8.0138964032  CLST         831          1.0000000000
      2494       832  TIP3  OH2         -12.8682779712       -2.7148026433        1.2319986972  CLST         832          1.0000000000
      2495       832  TIP3  H1          -12.9425817967       -1.9308884467        0.7246077712  CLST         832          1.0000000000
      2496       832  TIP3  H2          -13.3042588699       -2.6023325863        2.0521585052  CLST         832          1.0000000000
      2497       833  TIP3  OH2           1.4567168188      -11.6721577497        5.2071544699  CLST         833          1.0000000000
      2498       833  TIP3  H1            1.6389533475      -10.9652405051        5.8051704554  CLST         833          1.0000000000
      2499       833  TIP3  H2            2.3238034870      -11.8322958143        4.8796139707  CLST         833          1.0000000000
      2500       834  TIP3  OH2           3.5102542907       -3.3325370698        4.2410734140  CLST         834          1.0000000000
      2501       834  TIP3  H1            2.7832212153       -2.8543765382        3.8654912997  CLST         834          1.0000000000
      2502       834  TIP3  H2            3.9242340293       -2.6353222331        4.7592057214  CLST         834          1.0000000000
      2503       835  TIP3  OH2           4.3066628120        2.4629623374        0.1955366265  CLST         835          1.0000000000
      2504       835  TIP3  H1            4.6277030838        2.8868515934       -0.5774337127  CLST         835          1.0000000000
      2505       835  TIP3  H2            4.0619355997        1.6022249626       -0.1298791757  CLST         835          1.0000000000
      2506       836  TIP3  OH2           7.6852924019       -5.8002820489       -9.5558836978  CLST         836          1.0000000000
      2507       836  TIP3  H1            7.3150858306       -6.6013161784       -9.1362317239  CLST         836          1.0000000000
      2508       836  TIP3  H2            8.5423820278       -6.1779562746       -9.6519435097  CLST         836          1.0000000000
      2509       837  TIP3  OH2           3.2685094075        6.0668268333       -0.5298653595  CLST         837          1.0000000000
      2510       837  TIP3  H1            2.6315338393        5.7278639933       -1.1507125836  CLST         837          1.0000000000
      2511       837  TIP3  H2            2.7943515265        6.8407043997       -0.2756180272  CLST         837          1.0000000000
      2512       838  TIP3  OH2          -1.5764703659      -13.6550364496      -11.1620254685  CLST         838          1.0000000000
      2513       838  TIP3  H1           -1.5364976034      -14.5136810073      -10.7503590519  CLST         838          1.0000000000
      2514       838  TIP3  H2           -2.4720804039      -13.6670727623      -11.4295989796  CLST         838          1.0000000000
      2515       839  TIP3  OH2           1.3835409241       -7.2242829916       -1.4253467761  CLST         839          1.0000000000
      2516       839  TIP3  H1            0.9496808788       -7.6262507601       -0.6254744953  CLST         839          1.0000000000
      2517       839  TIP3  H2            0.5491304772       -6.9216439654       -1.8554638684  CLST         839          1.0000000000
      2518       840  TIP3  OH2          -7.5250191006       11.6674368952       10.7781636295  CLST         840          1.0000000000
      2519       840  TIP3  H1           -7.8729201903       11.1411785026       11.5051649029  CLST         840          1.0000000000
      2520       840  TIP3  H2           -6.7979249291       11.0689363549       10.5832926186  CLST         840          1.0000000000
      2521       841  TIP3  OH2          -8.5160493204       -7.6859046873       -4.2175734460  CLST         841          1.0000000000
      2522       841  TIP3  H1           -8.1500596996       -7.6420626447       -3.3450083837  CLST         841          1.0000000000
      2523       841  TIP3  H2           -7.6553767676       -7.5845722991       -4.6505025714  CLST         841          1.0000000000
      2524       842  TIP3  OH2          11.4039880245      -14.3168813935        0.1403786127  CLST         842          1.0000000000
      2525       842  TIP3  H1           10.9851577482      -14.5314025431        0.9403725466  CLST         842          1.0000000000
      2526       842  TIP3  H2           10.7085469183      -14.4054049876       -0.4611591714  CLST         842          1.0000000000
      2527       843  TIP3  OH2           9.4089201432       13.1303483211        3.8233827235  CLST         843          1.0000000000
      2528       843  TIP3  H1            8.8729735169       12.7887233107        4.5331291757  CLST         843          1.0000000000
      2529       843  TIP3  H2            8.7630396629       13.4889650040        3.2426471581  CLST         843          1.0000000000
      2530       844  TIP3  OH2           1.4625589864      -12.5794337180       -1.8306384290  CLST         844          1.0000000000
      2531       844  TIP3  H1            1.9284982932      -12.8101583656       -1.0245711332  CLST         844          1.0000000000
      2532       844  TIP3  H2            0.6235989481      -12.8856054006       -1.4294943108  CLST         844          1.0000000000
      2533       845  TIP3  OH2         -14.7287627438        4.4316093063       10.5474925727  CLST         845          1.0000000000
      2534       845  TIP3  H1          -14.5714324405        3.6611473049       11.0918848379  CLST         845          1.0000000000
      2535       845  TIP3  H2          -13.9280266168        4.9239422692       10.7388925979  CLST         845          1.0000000000
      2536       846  TIP3  OH2         -11.1061412238       -7.7835983938        2.4819171913  CLST         846          1.0000000000
      2537       846  TIP3  H1          -11.8681638041       -8.3425673982        2.7122230236  CLST         846          1.0000000000
      2538       846  TIP3  H2          -11.6332278535       -6.9884869705        2.3479030600  CLST         846          1.0000000000
      2539       847  TIP3  OH2           4.8845095876        9.7475827804        5.2463120904  CLST         847          1.0000000000
      2540       847  TIP3  H1            4.8926239091       10.6721250482        4.9820277694  CLST         847          1.0000000000
      2541       847  TIP3  H2            5.5947084578        9.9205697712        5.8914273024  CLST         847          1.0000000000
      2542       848  TIP3  OH2          -9.4340136935        5.6453062545       -9.7393541221  CLST         848          1.0000000000
      2543       848  TIP3  H1          -10.1781191935        5.2723089001      -10.2018594690  CLST         848          1.0000000000
      2544       848  TIP3  H2           -9.7386455157        6.4856322187       -9.4618306669  CLST         848          1.0000000000
      2545       849  TIP3  OH2          -1.6094088398        1.8510749974        0.1937424282  CLST         849          1.0000000000
      2546       849  TIP3  H1           -0.7398373857        2.2748921368        0.2888754013  CLST         849          1.0000000000
      2547       849  TIP3  H2           -1.8650095216        1.8902209321       -0.7213291335  CLST         849          1.0000000000
      2548       850  TIP3  OH2           5.3362966711       -6.4530336157        5.8027368044  CLST         850          1.0000000000
      2549       850  TIP3  H1            4.4640152874       -6.1923981076        6.0983050575  CLST         850          1.0000000000
      2550       850  TIP3  H2            5.8229967674       -5.6584129812        6.0454433663  CLST         850          1.0000000000
      2551       851  TIP3  OH2           8.3861363288        6.3108324731        5.4506153163  CLST         851          1.0000000000
      2552       851  TIP3  H1            8.3725930275        6.3903460328        6.3824394817  CLST         851          1.0000000000
      2553       851  TIP3  H2            8.4866300213        7.1999363102        5.1656685041  CLST         851          1.0000000000
      2554       852  TIP3  OH2           9.5419914553        3.8591598570        1.4125399654  CLST         852          1.0000000000
      2555       852  TIP3  H1            9.3877691797        3.6297740916        2.3498204895  CLST         852          1.0000000000
      2556       852  TIP3  H2            8.6396393660        4.0973000900        1.2031872735  CLST         852          1.0000000000
      2557       853  TIP3  OH2           8.6662771625       -5.0480890537       -3.2498300432  CLST         853          1.0000000000
      2558       853  TIP3  H1            8.2416535632       -4.7430975982       -4.0382107665  CLST         853          1.0000000000
      2559       853  TIP3  H2            8.1887803187       -4.5947573033       -2.5798613443  CLST         853          1.0000000000
      2560       854  TIP3  OH2         -10.7443788129       -9.1636153543       -5.9585204328  CLST         854          1.0000000000
      2561       854  TIP3  H1           -9.9897886197       -8.7333232156       -6.3376768760  CLST         854          1.0000000000
      2562       854  TIP3  H2          -10.6006972589       -8.8560919281       -5.0636488323  CLST         854          1.0000000000
      2563       855  TIP3  OH2           2.5861632302       -3.2444736882       -6.6573524669  CLST         855          1.0000000000
      2564       855  TIP3  H1            2.0090016826       -2.7874742810       -6.0527458888  CLST         855          1.0000000000
      2565       855  TIP3  H2            2.6815094250       -2.5045823961       -7.2660336217  CLST         855          1.0000000000
      2566       856  TIP3  OH2           3.2589357595      -12.8401271321        0.2113835655  CLST         856          1.0000000000
      2567       856  TIP3  H1            4.0962815671      -12.3258637573        0.2888216304  CLST         856          1.0000000000
      2568       856  TIP3  H2            3.5939996546      -13.4961403488        0.8460300299  CLST         856          1.0000000000
      2569       857  TIP3  OH2          -2.9912188092       -5.7004295982       11.1480879381  CLST         857          1.0000000000
      2570       857  TIP3  H1           -3.3000666180       -5.9232601585       12.0344017914  CLST         857          1.0000000000
      2571       857  TIP3  H2           -3.0621069706       -4.7412125090       11.2698480748  CLST         857          1.0000000000
      2572       858  TIP3  OH2           6.1780629488      -14.2180533086       12.9349390658  CLST         858          1.0000000000
      2573       858  TIP3  H1            6.6158777165      -14.8375559034       13.4641580795  CLST         858          1.0000000000
      2574       858  TIP3  H2            5.2893138176      -14.2423416408       13.2206831653  CLST         858          1.0000000000
      2575       859  TIP3  OH2          -8.5570773874       -1.5083238488      -12.9385934299  CLST         859          1.0000000000
      2576       859  TIP3  H1           -7.8656579191       -2.1574101415      -12.9108990503  CLST         859          1.0000000000
      2577       859  TIP3  H2           -8.3475859486       -1.0600776343      -12.1516566842  CLST         859          1.0000000000
      2578       860  TIP3  OH2          -9.9271859229       -6.2587514200       -1.1361275634  CLST         860          1.0000000000
      2579       860  TIP3  H1          -10.1716025117       -5.6288896686       -1.8159323524  CLST         860          1.0000000000
      2580       860  TIP3  H2           -9.1744438293       -6.6963721261       -1.5081907434  CLST         860          1.0000000000
      2581       861  TIP3  OH2           5.1605509785      -10.2458218597       -4.4168463323  CLST         861          1.0000000000
      2582       861  TIP3  H1            4.6886103966      -10.5129568447       -3.6545126001  CLST         861          1.0000000000
      2583       861  TIP3  H2            5.3070958195      -10.9326730198       -4.9620797636  CLST         861          1.0000000000
      2584       862  TIP3  OH2         -11.2162046275       -2.8373807829      -12.7695384382  CLST         862          1.0000000000
      2585       862  TIP3  H1          -10.5839822418       -2.1411798238      -12.8773285190  CLST         862          1.0000000000
      2586       862  TIP3  H2          -10.6834820385       -3.1246833515      -12.0468572772  CLST         862          1.0000000000
      2587       863  TIP3  OH2          11.0308461911      -10.6810399445       -8.6413915674  CLST         863          1.0000000000
      2588       863  TIP3  H1           11.7350785145      -10.3616640819       -8.0880351131  CLST         863          1.0000000000
      2589       863  TIP3  H2           11.4928669351      -11.1049859529       -9.3554317500  CLST         863          1.0000000000
      2590       864  TIP3  OH2         -13.7083052251        3.4368532281        3.1945658272  CLST         864          1.0000000000
      2591       864  TIP3  H1          -14.2183120380        3.5232261469        3.9811786464  CLST         864          1.0000000000
      2592       864  TIP3  H2          -13.6100831996        4.3294525202        2.9287019244  CLST         864          1.0000000000
      2593       865  TIP3  OH2          12.8067959388        8.6460009078      -11.4081766573  CLST         865          1.0000000000
      2594       865  TIP3  H1           13.5648321472        8.1409014965      -11.6696168456  CLST         865          1.0000000000
      2595       865  TIP3  H2           12.8572630469        8.3135239116      -10.5098579074  CLST         865          1.0000000000
      2596       866  TIP3  OH2           6.5762150518      -10.3072672765       -8.3812940975  CLST         866          1.0000000000
      2597       866  TIP3  H1            6.2972343870      -11.0190456090       -7.8073355336  CLST         866          1.0000000000
      2598       866  TIP3  H2            7.1514536748      -10.6101171226       -9.0772357839  CLST         866          1.0000000000
      2599       867  TIP3  OH2          -8.3931949322       12.2965968917       -3.1299334794  CLST         867          1.0000000000
      2600       867  TIP3  H1           -9.3001819784       12.3051510795       -2.7873608431  CLST         867          1.0000000000
      2601       867  TIP3  H2           -8.0552144243       13.0400275743       -2.6322935387  CLST         867          1.0000000000
      2602       868  TIP3  OH2          -9.7052276299       13.1599602168        9.9979949704  CLST         868          1.0000000000
      2603       868  TIP3  H1           -9.0350551079       12.4811487805        9.9520485643  CLST         868          1.0000000000
      2604       868  TIP3  H2           -9.2452388998       13.8881610165        9.6317997931  CLST         868          1.0000000000
      2605       869  TIP3  OH2           3.2865572426       -1.6832151262        1.2194477393  CLST         869          1.0000000000
      2606       869  TIP3  H1            2.5286770047       -2.2765048761        1.0670172016  CLST         869          1.0000000000
      2607       869  TIP3  H2            2.7839599674       -1.2280684864        1.9181370082  CLST         869          1.0000000000
      2608       870  TIP3  OH2          -6.9784708162       -3.7869325215      -12.9640289107  CLST         870          1.0000000000
      2609       870  TIP3  H1           -6.0954898062       -3.7778713490      -12.6151005080  CLST         870          1.0000000000
      2610       870  TIP3  H2           -6.6680373502       -3.7471231757      -13.8713549179  CLST         870          1.0000000000
      2611       871  TIP3  OH2          -7.2807157800        2.4277618484       -9.9207230955  CLST         871          1.0000000000
      2612       871  TIP3  H1           -7.4889118701        2.7627916231      -10.7722909597  CLST         871          1.0000000000
      2613       871  TIP3  H2           -8.1532460722        2.2825875554       -9.5986574901  CLST         871          1.0000000000
      2614       872  TIP3  OH2         -13.1543329519       11.4817153900       -9.9142762595  CLST         872          1.0000000000
      2615       872  TIP3  H1          -12.9834221042       11.8123990964      -10.7899488884  CLST         872          1.0000000000
      2616       872  TIP3  H2          -13.2573900030       10.5678236358      -10.1138518002  CLST         872          1.0000000000
      2617       873  TIP3  OH2          12.0246286624       -4.2840863621       -9.9980183641  CLST         873          1.0000000000
      2618       873  TIP3  H1           11.6638261349       -3.4120083790      -10.1296655787  CLST         873          1.0000000000
      2619       873  TIP3  H2           12.0395393025       -4.4885546868      -10.9254086433  CLST         873          1.0000000000
      2620       874  TIP3  OH2          12.8794987343        8.3950910887       -8.5673673137  CLST         874          1.0000000000
      2621       874  TIP3  H1           13.2015143400        7.7976012308       -7.8354653309  CLST         874          1.0000000000
      2622       874  TIP3  H2           11.9457767834        8.4587938973       -8.3911432925  CLST         874          1.0000000000
      2623       875  TIP3  OH2           1.2135119793       -1.4644410080      -12.5196427115  CLST         875          1.0000000000
      2624       875  TIP3  H1            2.0680352022       -1.6190980754      -12.8181192054  CLST         875          1.0000000000
      2625       875  TIP3  H2            0.8114598682       -1.4918489677      -13.3536341993  CLST         875          1.0000000000
      2626       876  TIP3  OH2           9.1467905332        7.1842467990      -11.8723590806  CLST         876          1.0000000000
      2627       876  TIP3  H1            8.9839362426        7.3533137095      -12.7636546525  CLST         876          1.0000000000
      2628       876  TIP3  H2            8.2862024918        7.0669231102      -11.5193950876  CLST         876          1.0000000000
      2629       877  TIP3  OH2          -7.0137038377      -13.3723263438       -5.0744098477  CLST         877          1.0000000000
      2630       877  TIP3  H1           -7.6652674118      -12.9351959238       -4.5185576451  CLST         877          1.0000000000
      2631       877  TIP3  H2           -6.2287365740      -12.8103436182       -5.0741315965  CLST         877          1.0000000000
      2632       878  TIP3  OH2           5.6868653471      -11.1907973257        6.9487142632  CLST         878          1.0000000000
      2633       878  TIP3  H1            5.0087620887      -11.6141967415        6.4499636937  CLST         878          1.0000000000
      2634       878  TIP3  H2            5.1571278482      -10.4226541753        7.1285816813  CLST         878          1.0000000000
      2635       879  TIP3  OH2           2.8912295088        5.1088285508       -7.1439722497  CLST         879          1.0000000000
      2636       879  TIP3  H1            3.4899296222        5.5928894043       -7.6970248343  CLST         879          1.0000000000
      2637       879  TIP3  H2            3.4526781450        5.1127808865       -6.3859837271  CLST         879          1.0000000000
      2638       880  TIP3  OH2          -5.5225606561       -1.8244040750       14.8375559034  CLST         880          1.0000000000
      2639       880  TIP3  H1           -6.0395046743       -2.4708793483       14.4244250953  CLST         880          1.0000000000
      2640       880  TIP3  H2           -5.9673210238       -1.0965346812       14.4038245887  CLST         880          1.0000000000
      2641       881  TIP3  OH2          -0.5304963112       13.5877428687        8.4413162274  CLST         881          1.0000000000
      2642       881  TIP3  H1           -0.0920019638       13.4971318962        7.6376697694  CLST         881          1.0000000000
      2643       881  TIP3  H2           -1.4452525029       13.6798288542        8.2040152477  CLST         881          1.0000000000
      2644       882  TIP3  OH2          12.3460123625       -1.8148357811       -1.3383631941  CLST         882          1.0000000000
      2645       882  TIP3  H1           11.7708894567       -2.4340948187       -1.7353123731  CLST         882          1.0000000000
      2646       882  TIP3  H2           12.2154166151       -2.0404548450       -0.4201368251  CLST         882          1.0000000000
      2647       883  TIP3  OH2           1.6366022584       -9.5070400642       -4.4474683964  CLST         883          1.0000000000
      2648       883  TIP3  H1            2.1261030218       -9.6061201153       -3.6488188583  CLST         883          1.0000000000
      2649       883  TIP3  H2            2.3665603554       -9.4914470842       -5.0633976560  CLST         883          1.0000000000
      2650       884  TIP3  OH2         -14.2196064592       -5.9623504787      -13.2100370850  CLST         884          1.0000000000
      2651       884  TIP3  H1          -13.5079287274       -6.5864137191      -13.3595069447  CLST         884          1.0000000000
      2652       884  TIP3  H2          -14.8199193839       -6.5744151221      -12.7675097042  CLST         884          1.0000000000
      2653       885  TIP3  OH2           0.8028762675       14.8027050388       -0.4545816098  CLST         885          1.0000000000
      2654       885  TIP3  H1           -0.1360793342       14.8027123262       -0.3984510376  CLST         885          1.0000000000
      2655       885  TIP3  H2            1.0307504774       13.9506426655       -0.1205995133  CLST         885          1.0000000000
      2656       886  TIP3  OH2          12.0739956117       10.0635427478        4.0015170201  CLST         886          1.0000000000
      2657       886  TIP3  H1           12.7602954875        9.4655581960        3.8613358571  CLST         886          1.0000000000
      2658       886  TIP3  H2           11.7926932965        9.9412958748        4.8875563571  CLST         886          1.0000000000
      2659       887  TIP3  OH2          -7.3806773686       -7.9242900386       -1.7646291885  CLST         887          1.0000000000
      2660       887  TIP3  H1           -7.2121295955       -8.8471376070       -1.9671636003  CLST         887          1.0000000000
      2661       887  TIP3  H2           -6.5449819769       -7.7021681060       -1.3731551744  CLST         887          1.0000000000
      2662       888  TIP3  OH2         -13.1913282340       -2.8866059575       10.6186812265  CLST         888          1.0000000000
      2663       888  TIP3  H1          -13.6529797909       -2.8547269128       11.4493467505  CLST         888          1.0000000000
      2664       888  TIP3  H2          -12.5258822039       -2.2369476875       10.8330260460  CLST         888          1.0000000000
      2665       889  TIP3  OH2           4.8840891285      -12.8905385485        8.8247563456  CLST         889          1.0000000000
      2666       889  TIP3  H1            5.5419510081      -12.4820159819        8.2390041159  CLST         889          1.0000000000
      2667       889  TIP3  H2            4.9121234155      -12.1526842858        9.4275392881  CLST         889          1.0000000000
      2668       890  TIP3  OH2         -13.6590510402        5.8524880029       -9.5756021177  CLST         890          1.0000000000
      2669       890  TIP3  H1          -13.8502991022        6.7037769053       -9.9478572862  CLST         890          1.0000000000
      2670       890  TIP3  H2          -14.0911090230        6.0499467722       -8.7646309452  CLST         890          1.0000000000
      2671       891  TIP3  OH2         -12.7413279951       -5.7765142511       10.8375745589  CLST         891          1.0000000000
      2672       891  TIP3  H1          -13.2669669583       -4.9984153210       10.7443850572  CLST         891          1.0000000000
      2673       891  TIP3  H2          -12.6803287961       -5.8775263604        9.8878923874  CLST         891          1.0000000000
      2674       892  TIP3  OH2           3.2067609732       13.8533423603       13.5821535468  CLST         892          1.0000000000
      2675       892  TIP3  H1            2.5941996877       14.1913082411       14.1875496099  CLST         892          1.0000000000
      2676       892  TIP3  H2            3.4879183963       13.1304365031       14.1276174133  CLST         892          1.0000000000
      2677       893  TIP3  OH2          -0.3366314499        7.3585148843        3.1067954263  CLST         893          1.0000000000
      2678       893  TIP3  H1           -0.8131827432        6.5742883836        2.9144004130  CLST         893          1.0000000000
      2679       893  TIP3  H2           -0.8038968689        7.9532079335        2.5676811337  CLST         893          1.0000000000
      2680       894  TIP3  OH2           9.4092113953       11.3118048915        0.3170681465  CLST         894          1.0000000000
      2681       894  TIP3  H1            9.8371679097       12.0145802598        0.7593505509  CLST         894          1.0000000000
      2682       894  TIP3  H2            8.6044616672       11.5451297300       -0.1313344071  CLST         894          1.0000000000
      2683       895  TIP3  OH2         -10.0356974587       10.5545375900      -10.7652347611  CLST         895          1.0000000000
      2684       895  TIP3  H1          -10.2682338163       11.2116851535      -10.1437396530  CLST         895          1.0000000000
      2685       895  TIP3  H2           -9.1378747473       10.8960744057      -10.7236806477  CLST         895          1.0000000000
      2686       896  TIP3  OH2           8.0610928378       -6.8371909021       -0.3778854249  CLST         896          1.0000000000
      2687       896  TIP3  H1            7.6653639188       -6.5385446552       -1.1784210561  CLST         896          1.0000000000
      2688       896  TIP3  H2            8.7682875740       -7.3719462465       -0.7350740741  CLST         896          1.0000000000
      2689       897  TIP3  OH2           9.6101329595       -2.2155370016       -9.0611852183  CLST         897          1.0000000000
      2690       897  TIP3  H1            9.3689680810       -2.5351953784       -8.1905041074  CLST         897          1.0000000000
      2691       897  TIP3  H2            9.5677825160       -1.2832335753       -8.8884989045  CLST         897          1.0000000000
      2692       898  TIP3  OH2          13.9992745741        5.9676179058      -11.8016140913  CLST         898          1.0000000000
      2693       898  TIP3  H1           14.6691660923        5.5759434861      -11.2888970479  CLST         898          1.0000000000
      2694       898  TIP3  H2           13.2006080144        5.5787127641      -11.3883878263  CLST         898          1.0000000000
      2695       899  TIP3  OH2          14.2872450450       -6.4678143612        1.7214836688  CLST         899          1.0000000000
      2696       899  TIP3  H1           14.2510662857       -7.4303326616        1.7571131093  CLST         899          1.0000000000
      2697       899  TIP3  H2           13.7503670097       -6.3118062509        2.5038307604  CLST         899          1.0000000000
      2698       900  TIP3  OH2          -9.7563600615      -10.1498098694        9.9008660960  CLST         900          1.0000000000
      2699       900  TIP3  H1           -9.7225796229       -9.2805289362       10.2505652535  CLST         900          1.0000000000
      2700       900  TIP3  H2           -8.9838588602      -10.1585958306        9.3585089034  CLST         900          1.0000000000
      2701       901  TIP3  OH2          10.1775498079        8.6078388288       -8.5354951689  CLST         901          1.0000000000
      2702       901  TIP3  H1           10.0306371684        9.5281727986       -8.6264392099  CLST         901          1.0000000000
      2703       901  TIP3  H2            9.6605630294        8.2723522419       -9.2504595770  CLST         901          1.0000000000
      2704       902  TIP3  OH2           3.6434783094        0.4585925720       10.0521578468  CLST         902          1.0000000000
      2705       902  TIP3  H1            4.1004210058       -0.0937376025        9.3931262093  CLST         902          1.0000000000
      2706       902  TIP3  H2            3.5609075810        1.1689415573        9.4116141648  CLST         902          1.0000000000
      2707       903  TIP3  OH2          -0.8791645534        0.7334274311       -8.3295217803  CLST         903          1.0000000000
      2708       903  TIP3  H1           -0.6827655295        0.5393391073       -9.2261293775  CLST         903          1.0000000000
      2709       903  TIP3  H2           -0.2902453803        0.0630487337       -8.0262872767  CLST         903          1.0000000000
