* Geometry rescue: EQUI at step 2500
*
        2709  EXT
         1         1  TIP3  OH2           5.4267112387        0.9944135716       -3.5284002021  CLST           1          1.0000000000
         2         1  TIP3  H1            5.1489398744        0.5806240017       -2.6762938694  CLST           1          1.0000000000
         3         1  TIP3  H2            4.5425582822        0.9172688644       -3.9431765217  CLST           1          1.0000000000
         4         2  TIP3  OH2          14.7329443581       -2.0821250530       -1.3776457167  CLST           2          1.0000000000
         5         2  TIP3  H1           13.8181066015       -2.2099609644       -1.7610959247  CLST           2          1.0000000000
         6         2  TIP3  H2           14.8727544582       -3.0182559877       -1.0675763881  CLST           2          1.0000000000
         7         3  TIP3  OH2          -8.1832449043       -6.4868766864       -7.5746348983  CLST           3          1.0000000000
         8         3  TIP3  H1           -9.1138650612       -6.1005587676       -7.5955001792  CLST           3          1.0000000000
         9         3  TIP3  H2           -8.0822353238       -6.7814729405       -8.5360846771  CLST           3          1.0000000000
        10         4  TIP3  OH2          -9.2594386306       -3.8900310138       12.8005035080  CLST           4          1.0000000000
        11         4  TIP3  H1          -10.0550905043       -4.3455849329       13.2310737386  CLST           4          1.0000000000
        12         4  TIP3  H2           -9.1834144855       -4.4219843910       11.9816376067  CLST           4          1.0000000000
        13         5  TIP3  OH2          -3.3739174907      -10.1444558770       14.4224193465  CLST           5          1.0000000000
        14         5  TIP3  H1           -3.7354142903      -10.9098426692       14.8973263248  CLST           5          1.0000000000
        15         5  TIP3  H2           -3.6291992041      -10.4020232243       13.4551710129  CLST           5          1.0000000000
        16         6  TIP3  OH2          -3.4551476628        9.5601114860       14.1509805726  CLST           6          1.0000000000
        17         6  TIP3  H1           -2.5920933548        9.7273648702       13.7547912458  CLST           6          1.0000000000
        18         6  TIP3  H2           -3.2760850970        9.7583956608       15.0647890443  CLST           6          1.0000000000
        19         7  TIP3  OH2          -5.0916136364       -1.4986155081        8.7266254874  CLST           7          1.0000000000
        20         7  TIP3  H1           -4.4930865835       -1.2439868524        7.9628474362  CLST           7          1.0000000000
        21         7  TIP3  H2           -5.6193536533       -2.1812479338        8.2213700679  CLST           7          1.0000000000
        22         8  TIP3  OH2          -7.2614677930       -4.5554760747       -1.1731828269  CLST           8          1.0000000000
        23         8  TIP3  H1           -7.2199927332       -4.7003872117       -0.1993387494  CLST           8          1.0000000000
        24         8  TIP3  H2           -6.3298814801       -4.8167960077       -1.4093951988  CLST           8          1.0000000000
        25         9  TIP3  OH2         -13.1199928882       -5.2980583824        0.3524324939  CLST           9          1.0000000000
        26         9  TIP3  H1          -13.9490901819       -5.0656640434       -0.1948414386  CLST           9          1.0000000000
        27         9  TIP3  H2          -12.7911383898       -4.3541918449        0.4208700349  CLST           9          1.0000000000
        28        10  TIP3  OH2          -4.4965772707        8.0610894257       -8.5431070982  CLST          10          1.0000000000
        29        10  TIP3  H1           -4.6808616349        9.0172090032       -8.5645766301  CLST          10          1.0000000000
        30        10  TIP3  H2           -3.5320519375        8.0619003026       -8.7167983274  CLST          10          1.0000000000
        31        11  TIP3  OH2           5.7853447289       12.7946705165       10.7439510773  CLST          11          1.0000000000
        32        11  TIP3  H1            5.0789273541       13.2966357736       10.6822894316  CLST          11          1.0000000000
        33        11  TIP3  H2            5.5200445163       11.8634780479       10.9193395913  CLST          11          1.0000000000
        34        12  TIP3  OH2         -11.8583386886      -13.1868293378       -3.2396001441  CLST          12          1.0000000000
        35        12  TIP3  H1          -12.6569474362      -12.7557024719       -2.9018941784  CLST          12          1.0000000000
        36        12  TIP3  H2          -12.1370030523      -13.4512354942       -4.1298361861  CLST          12          1.0000000000
        37        13  TIP3  OH2          -0.6396940132      -11.1402981282        2.9161211752  CLST          13          1.0000000000
        38        13  TIP3  H1            0.2418086616      -11.4862282481        2.6522897993  CLST          13          1.0000000000
        39        13  TIP3  H2           -0.4710267716      -11.1343458760        3.8801164481  CLST          13          1.0000000000
        40        14  TIP3  OH2          -1.5172986302        5.1453214410        7.8568775003  CLST          14          1.0000000000
        41        14  TIP3  H1           -1.5876759719        4.8737718810        8.8067662347  CLST          14          1.0000000000
        42        14  TIP3  H2           -0.5710439041        4.8410414508        7.7055589530  CLST          14          1.0000000000
        43        15  TIP3  OH2           1.0507000426       -1.1355970380       -4.7403308020  CLST          15          1.0000000000
        44        15  TIP3  H1            0.4599304842       -0.5923397914       -4.1268305021  CLST          15          1.0000000000
        45        15  TIP3  H2            0.8943887157       -1.9776246781       -4.2589507808  CLST          15          1.0000000000
        46        16  TIP3  OH2          -4.6351811597       -6.0508464085       13.6287547362  CLST          16          1.0000000000
        47        16  TIP3  H1           -4.0374927339       -6.7899387778       13.8827796553  CLST          16          1.0000000000
        48        16  TIP3  H2           -5.2630755849       -6.1124059153       14.4297186111  CLST          16          1.0000000000
        49        17  TIP3  OH2           8.4128196287       -0.6449443232        2.7563947587  CLST          17          1.0000000000
        50        17  TIP3  H1            7.5850429772       -1.1666494249        2.9935833756  CLST          17          1.0000000000
        51        17  TIP3  H2            8.9679405472       -1.2963072594        2.2983668771  CLST          17          1.0000000000
        52        18  TIP3  OH2           2.8307752645       -8.5076013350       -8.5747052071  CLST          18          1.0000000000
        53        18  TIP3  H1            3.0908624767       -7.6366695852       -8.1792631076  CLST          18          1.0000000000
        54        18  TIP3  H2            2.9517680963       -9.0841656326       -7.7842016897  CLST          18          1.0000000000
        55        19  TIP3  OH2           6.7471850654        7.7722487443       14.3443395496  CLST          19          1.0000000000
        56        19  TIP3  H1            7.4625156290        7.2491995344       14.8166606178  CLST          19          1.0000000000
        57        19  TIP3  H2            6.7437913043        8.4972513697       15.0374569484  CLST          19          1.0000000000
        58        20  TIP3  OH2           4.1001950538        9.4196717245        9.0496851969  CLST          20          1.0000000000
        59        20  TIP3  H1            3.4084341507       10.0885884505        8.7637393045  CLST          20          1.0000000000
        60        20  TIP3  H2            3.6750972293        8.6445281749        8.6572822524  CLST          20          1.0000000000
        61        21  TIP3  OH2           0.6454101223       -8.3485507749        1.0868080105  CLST          21          1.0000000000
        62        21  TIP3  H1            0.6649415379       -8.2656568031        2.0784067620  CLST          21          1.0000000000
        63        21  TIP3  H2           -0.2352323218       -8.7449674715        0.9884541450  CLST          21          1.0000000000
        64        22  TIP3  OH2          11.4316921514       -9.2938599139       10.1423984843  CLST          22          1.0000000000
        65        22  TIP3  H1           11.1711518974       -8.7758068665        9.3600554662  CLST          22          1.0000000000
        66        22  TIP3  H2           10.7228620473       -9.9690940944       10.0186085438  CLST          22          1.0000000000
        67        23  TIP3  OH2          12.3283207329      -14.2968183815      -10.6623075855  CLST          23          1.0000000000
        68        23  TIP3  H1           11.7083653875      -14.9437419281      -10.2629042230  CLST          23          1.0000000000
        69        23  TIP3  H2           12.9336694589      -14.3313159403       -9.8846735373  CLST          23          1.0000000000
        70        24  TIP3  OH2          12.7848277402       -7.2664942976       14.3052130100  CLST          24          1.0000000000
        71        24  TIP3  H1           12.2714730186       -7.1866097860       13.4904436263  CLST          24          1.0000000000
        72        24  TIP3  H2           12.1962445865       -7.2391514264       15.0698163604  CLST          24          1.0000000000
        73        25  TIP3  OH2           0.2250162914       -5.7141132189        5.6423898741  CLST          25          1.0000000000
        74        25  TIP3  H1           -0.4610392268       -5.7082930614        4.9567265383  CLST          25          1.0000000000
        75        25  TIP3  H2            0.0317271488       -6.5445307266        6.1616958672  CLST          25          1.0000000000
        76        26  TIP3  OH2          -5.5496949115       -5.6161402723       -7.9214154284  CLST          26          1.0000000000
        77        26  TIP3  H1           -6.4713901042       -5.9089919076       -8.0020981131  CLST          26          1.0000000000
        78        26  TIP3  H2           -5.1884093656       -5.9405325868       -8.7805586467  CLST          26          1.0000000000
        79        27  TIP3  OH2           3.9613882006       12.3907318234       -0.8397746871  CLST          27          1.0000000000
        80        27  TIP3  H1            4.8824825405       12.1164557791       -0.5759160436  CLST          27          1.0000000000
        81        27  TIP3  H2            4.0403644312       13.3600101818       -0.9676491487  CLST          27          1.0000000000
        82        28  TIP3  OH2          -4.9319666120       -6.3465587621        6.8324906765  CLST          28          1.0000000000
        83        28  TIP3  H1           -3.9688949343       -6.4122820352        6.6921223955  CLST          28          1.0000000000
        84        28  TIP3  H2           -5.2797679612       -6.5812860301        5.9261365207  CLST          28          1.0000000000
        85        29  TIP3  OH2           3.9473236089      -10.0958234478       13.6171638111  CLST          29          1.0000000000
        86        29  TIP3  H1            4.8299576292       -9.8056866628       13.2308885737  CLST          29          1.0000000000
        87        29  TIP3  H2            3.4325914244       -9.3996974038       13.1374497503  CLST          29          1.0000000000
        88        30  TIP3  OH2          -0.6960107770       -3.4875515486       11.8036879489  CLST          30          1.0000000000
        89        30  TIP3  H1           -1.0848535175       -4.1312811847       12.4202477105  CLST          30          1.0000000000
        90        30  TIP3  H2           -0.3194386532       -2.8511854931       12.4452426839  CLST          30          1.0000000000
        91        31  TIP3  OH2          -5.3427389668      -10.0776497394       -9.9046221065  CLST          31          1.0000000000
        92        31  TIP3  H1           -6.3368555661      -10.1348709344       -9.8254804042  CLST          31          1.0000000000
        93        31  TIP3  H2           -5.2966709694       -9.2467814573       -9.3750352781  CLST          31          1.0000000000
        94        32  TIP3  OH2           4.5337624806        6.3367814372       15.0678339424  CLST          32          1.0000000000
        95        32  TIP3  H1            5.2373637235        6.9107671876       14.6579161085  CLST          32          1.0000000000
        96        32  TIP3  H2            3.7656734125        6.5466187229       14.4243306406  CLST          32          1.0000000000
        97        33  TIP3  OH2           1.8812799536       -5.4782530740       11.9539377524  CLST          33          1.0000000000
        98        33  TIP3  H1            1.6389963633       -4.8024271013       12.6423451758  CLST          33          1.0000000000
        99        33  TIP3  H2            2.0038902413       -4.9561617385       11.1552444503  CLST          33          1.0000000000
       100        34  TIP3  OH2         -12.5159017096       -6.4849863901        5.5854030695  CLST          34          1.0000000000
       101        34  TIP3  H1          -12.4987719609       -6.0659596285        4.7094753937  CLST          34          1.0000000000
       102        34  TIP3  H2          -13.4965017079       -6.5948929669        5.6630783675  CLST          34          1.0000000000
       103        35  TIP3  OH2         -12.5351788275        9.1611149000       14.1283435399  CLST          35          1.0000000000
       104        35  TIP3  H1          -13.1278163920        9.6907331850       13.5882544917  CLST          35          1.0000000000
       105        35  TIP3  H2          -12.9347911389        9.2181003606       14.9877901488  CLST          35          1.0000000000
       106        36  TIP3  OH2           6.5468164628       -8.5880433995      -11.6787351619  CLST          36          1.0000000000
       107        36  TIP3  H1            7.2883309380       -8.7706666167      -11.0429598642  CLST          36          1.0000000000
       108        36  TIP3  H2            6.8263968237       -9.1414044101      -12.4175116294  CLST          36          1.0000000000
       109        37  TIP3  OH2          10.5977872658      -12.0125429372        6.6842884491  CLST          37          1.0000000000
       110        37  TIP3  H1            9.7638555875      -12.0100986534        7.2195940781  CLST          37          1.0000000000
       111        37  TIP3  H2           11.2281304711      -12.4136633647        7.3658752488  CLST          37          1.0000000000
       112        38  TIP3  OH2           5.8699700877      -12.0918332597       -0.6966800693  CLST          38          1.0000000000
       113        38  TIP3  H1            6.6277203237      -12.6761255354       -0.4448165184  CLST          38          1.0000000000
       114        38  TIP3  H2            5.5343435040      -12.4324992085       -1.5464797730  CLST          38          1.0000000000
       115        39  TIP3  OH2          13.1943450785        6.4656212215       -6.8445305009  CLST          39          1.0000000000
       116        39  TIP3  H1           13.3472744635        5.6040967470       -7.2999003548  CLST          39          1.0000000000
       117        39  TIP3  H2           12.3968503364        6.2206347087       -6.3113711622  CLST          39          1.0000000000
       118        40  TIP3  OH2          -4.8137085378       14.2712494530       -6.0140236716  CLST          40          1.0000000000
       119        40  TIP3  H1           -5.5451083899       14.4448186054       -5.4112057378  CLST          40          1.0000000000
       120        40  TIP3  H2           -4.2998353424       13.6664905463       -5.4269886597  CLST          40          1.0000000000
       121        41  TIP3  OH2          11.1963939754        5.5695233331      -11.0850486981  CLST          41          1.0000000000
       122        41  TIP3  H1           10.9337177740        5.0553328186      -11.9164343382  CLST          41          1.0000000000
       123        41  TIP3  H2           10.4975999988        6.2556329367      -11.2707256395  CLST          41          1.0000000000
       124        42  TIP3  OH2          -1.0530202462       -6.7758298426       -2.4222467834  CLST          42          1.0000000000
       125        42  TIP3  H1           -1.4787466210       -5.9765603457       -2.8810987040  CLST          42          1.0000000000
       126        42  TIP3  H2           -1.2131472262       -7.4691606126       -3.1046189921  CLST          42          1.0000000000
       127        43  TIP3  OH2           9.7883515251      -11.0203638026       -1.8421232565  CLST          43          1.0000000000
       128        43  TIP3  H1            9.5181450159      -11.2168077482       -0.9103709459  CLST          43          1.0000000000
       129        43  TIP3  H2            9.5427945180      -11.9151610041       -2.2203537825  CLST          43          1.0000000000
       130        44  TIP3  OH2           0.2549130420       -3.0071225493        6.3311014614  CLST          44          1.0000000000
       131        44  TIP3  H1           -0.4741000721       -3.2157044665        6.9455118996  CLST          44          1.0000000000
       132        44  TIP3  H2            0.2933594739       -3.9266194236        5.9090752285  CLST          44          1.0000000000
       133        45  TIP3  OH2           4.7594659760       -6.3430805265        9.1539177859  CLST          45          1.0000000000
       134        45  TIP3  H1            4.5521433409       -5.3801219638        9.0806566536  CLST          45          1.0000000000
       135        45  TIP3  H2            5.0891490744       -6.3310201679       10.0926587301  CLST          45          1.0000000000
       136        46  TIP3  OH2           7.8040712827        4.7752538124       -7.9803843163  CLST          46          1.0000000000
       137        46  TIP3  H1            7.3717087631        5.4184725574       -7.3515701610  CLST          46          1.0000000000
       138        46  TIP3  H2            7.0504952021        4.7033899119       -8.5983217167  CLST          46          1.0000000000
       139        47  TIP3  OH2         -10.8775074426      -11.0117723814        3.3022389813  CLST          47          1.0000000000
       140        47  TIP3  H1          -11.1417810161      -10.2620666006        3.8764780190  CLST          47          1.0000000000
       141        47  TIP3  H2          -10.6784538096      -11.6717175291        4.0194915515  CLST          47          1.0000000000
       142        48  TIP3  OH2         -14.6127151293        9.3394118449        8.6443172284  CLST          48          1.0000000000
       143        48  TIP3  H1          -14.4996660636        9.7009380123        7.7313915414  CLST          48          1.0000000000
       144        48  TIP3  H2          -13.7915664399        9.8759381261        8.9430926251  CLST          48          1.0000000000
       145        49  TIP3  OH2           8.5821264271       -4.3844851937        3.9953093487  CLST          49          1.0000000000
       146        49  TIP3  H1            7.6856353549       -4.6513110288        3.7129589523  CLST          49          1.0000000000
       147        49  TIP3  H2            9.0174068223       -4.5248220243        3.0999827669  CLST          49          1.0000000000
       148        50  TIP3  OH2          11.0485419181        5.6963470879       -5.1410335803  CLST          50          1.0000000000
       149        50  TIP3  H1           11.3235971970        5.1273124989       -4.3702813031  CLST          50          1.0000000000
       150        50  TIP3  H2           10.1223294909        5.3661083903       -5.1705734155  CLST          50          1.0000000000
       151        51  TIP3  OH2          12.7794216675       -1.2570553238      -10.5646143718  CLST          51          1.0000000000
       152        51  TIP3  H1           13.2489834961       -1.9845646805      -10.9965804732  CLST          51          1.0000000000
       153        51  TIP3  H2           12.3560192418       -0.8890816131      -11.3821643467  CLST          51          1.0000000000
       154        52  TIP3  OH2          -1.7521645260       -1.5745491548       10.1204244963  CLST          52          1.0000000000
       155        52  TIP3  H1           -2.4334102892       -1.0963148695       10.6908326351  CLST          52          1.0000000000
       156        52  TIP3  H2           -1.3469522453       -2.1576835621       10.7995055135  CLST          52          1.0000000000
       157        53  TIP3  OH2         -11.1415524215       14.1843138561       -7.0370961988  CLST          53          1.0000000000
       158        53  TIP3  H1          -11.6134743146       15.0073544848       -6.6793605670  CLST          53          1.0000000000
       159        53  TIP3  H2          -10.2568139292       14.5579443993       -7.0738460311  CLST          53          1.0000000000
       160        54  TIP3  OH2         -13.7946135732       -5.3676443261       -8.0656719076  CLST          54          1.0000000000
       161        54  TIP3  H1          -12.8314106379       -5.5388277539       -8.1067105187  CLST          54          1.0000000000
       162        54  TIP3  H2          -14.0952257087       -4.9365885841       -8.9022721291  CLST          54          1.0000000000
       163        55  TIP3  OH2           0.2858499344        9.4952722870      -10.5115008828  CLST          55          1.0000000000
       164        55  TIP3  H1           -0.3976063314        9.9770483693      -11.0090366684  CLST          55          1.0000000000
       165        55  TIP3  H2            0.4822729581       10.1940996072       -9.8347427397  CLST          55          1.0000000000
       166        56  TIP3  OH2          -1.5188919832       -5.0426172269       14.0434227777  CLST          56          1.0000000000
       167        56  TIP3  H1           -2.2546418502       -4.5672724576       14.5516139656  CLST          56          1.0000000000
       168        56  TIP3  H2           -1.8768851398       -5.9404936660       13.9403043358  CLST          56          1.0000000000
       169        57  TIP3  OH2         -10.4668437841       11.4912041954       -1.7208073247  CLST          57          1.0000000000
       170        57  TIP3  H1          -11.0452999778       11.7887553502       -0.9964295394  CLST          57          1.0000000000
       171        57  TIP3  H2          -11.2337425169       11.6025299738       -2.3679141295  CLST          57          1.0000000000
       172        58  TIP3  OH2           9.7897479738        1.3507784499        0.0848226006  CLST          58          1.0000000000
       173        58  TIP3  H1            8.8502050925        1.0436517195        0.1849852740  CLST          58          1.0000000000
       174        58  TIP3  H2            9.6664153425        2.2708570706        0.4044324472  CLST          58          1.0000000000
       175        59  TIP3  OH2         -13.2346753455       13.0791746629        5.1490886893  CLST          59          1.0000000000
       176        59  TIP3  H1          -13.1512222926       13.3411091193        4.1978712320  CLST          59          1.0000000000
       177        59  TIP3  H2          -12.3486625840       12.6454260833        5.2574700171  CLST          59          1.0000000000
       178        60  TIP3  OH2          -4.0190254734        3.2118531650        7.0561824942  CLST          60          1.0000000000
       179        60  TIP3  H1           -3.4136968980        2.5396616369        7.4458248876  CLST          60          1.0000000000
       180        60  TIP3  H2           -3.4154556910        3.9910636593        7.1955788017  CLST          60          1.0000000000
       181        61  TIP3  OH2           0.5404511542       -2.1412427196        0.4596405900  CLST          61          1.0000000000
       182        61  TIP3  H1           -0.0166967798       -1.6285984597        1.0917229285  CLST          61          1.0000000000
       183        61  TIP3  H2            0.1241203429       -3.0515466697        0.6375903982  CLST          61          1.0000000000
       184        62  TIP3  OH2          -3.8452430365        8.8494700948        4.4953867503  CLST          62          1.0000000000
       185        62  TIP3  H1           -3.2745305223        8.1925580158        4.9471834738  CLST          62          1.0000000000
       186        62  TIP3  H2           -3.1464819320        9.3157056208        3.9787960653  CLST          62          1.0000000000
       187        63  TIP3  OH2          -0.4721203538        7.7695683588       -3.1510158840  CLST          63          1.0000000000
       188        63  TIP3  H1           -0.7608075489        8.4968924117       -3.7584790085  CLST          63          1.0000000000
       189        63  TIP3  H2           -1.0430643830        7.9719311472       -2.3421462010  CLST          63          1.0000000000
       190        64  TIP3  OH2         -13.7325761515        3.4820434300       -3.4725181388  CLST          64          1.0000000000
       191        64  TIP3  H1          -12.9952616591        4.0419066842       -3.2403346292  CLST          64          1.0000000000
       192        64  TIP3  H2          -14.4612873526        4.1422177160       -3.5358643154  CLST          64          1.0000000000
       193        65  TIP3  OH2          -9.2519033537      -12.1034889281      -11.6493228421  CLST          65          1.0000000000
       194        65  TIP3  H1           -9.3362841563      -12.2721598268      -10.6739281968  CLST          65          1.0000000000
       195        65  TIP3  H2          -10.2004799849      -11.8219147043      -11.8098303042  CLST          65          1.0000000000
       196        66  TIP3  OH2          13.1870043225       -7.9481468987        3.7988698231  CLST          66          1.0000000000
       197        66  TIP3  H1           13.4059033505       -8.6040345843        3.1402871884  CLST          66          1.0000000000
       198        66  TIP3  H2           12.7035611453       -8.5557289809        4.4569627489  CLST          66          1.0000000000
       199        67  TIP3  OH2           7.4354738845       -0.8245018619       -6.3797967831  CLST          67          1.0000000000
       200        67  TIP3  H1            7.7996788911       -1.5588824277       -5.8359573004  CLST          67          1.0000000000
       201        67  TIP3  H2            8.3061053106       -0.5066368041       -6.7233150055  CLST          67          1.0000000000
       202        68  TIP3  OH2          -6.8979717154        1.2631743648        0.8711741235  CLST          68          1.0000000000
       203        68  TIP3  H1           -7.4558416896        0.4957931446        1.1794480138  CLST          68          1.0000000000
       204        68  TIP3  H2           -7.0649610111        1.8484255922        1.6455976050  CLST          68          1.0000000000
       205        69  TIP3  OH2         -11.9890890575       -0.6298889799        7.1086095645  CLST          69          1.0000000000
       206        69  TIP3  H1          -11.1455924684       -1.0405245617        7.4173923143  CLST          69          1.0000000000
       207        69  TIP3  H2          -11.7863736677        0.3250717527        7.1469076496  CLST          69          1.0000000000
       208        70  TIP3  OH2          -1.7833585131        7.6031709433       -8.2697629218  CLST          70          1.0000000000
       209        70  TIP3  H1           -0.8454096481        7.4281094277       -8.4490964544  CLST          70          1.0000000000
       210        70  TIP3  H2           -1.6267272802        8.5227496173       -7.8826163383  CLST          70          1.0000000000
       211        71  TIP3  OH2         -13.3460638227       -1.7263006766       -5.5901182149  CLST          71          1.0000000000
       212        71  TIP3  H1          -12.9751394333       -1.5247043240       -4.6703190433  CLST          71          1.0000000000
       213        71  TIP3  H2          -13.3120626378       -0.7804332232       -5.9054550265  CLST          71          1.0000000000
       214        72  TIP3  OH2          10.7712982571       -2.5818499153        4.8051230099  CLST          72          1.0000000000
       215        72  TIP3  H1           10.3416898244       -2.7073973753        3.9310877568  CLST          72          1.0000000000
       216        72  TIP3  H2           11.2619906075       -1.7230505725        4.6316989127  CLST          72          1.0000000000
       217        73  TIP3  OH2          -3.9468144505      -13.4370033842       -6.5335868969  CLST          73          1.0000000000
       218        73  TIP3  H1           -3.9289470651      -13.1782633057       -7.4600195993  CLST          73          1.0000000000
       219        73  TIP3  H2           -4.2460068118      -14.3617162762       -6.4494669656  CLST          73          1.0000000000
       220        74  TIP3  OH2          -4.5807445134       12.2697845082       -1.4765982579  CLST          74          1.0000000000
       221        74  TIP3  H1           -5.0761816573       11.5133357357       -1.8524372602  CLST          74          1.0000000000
       222        74  TIP3  H2           -5.2689530535       12.9547739918       -1.6003274206  CLST          74          1.0000000000
       223        75  TIP3  OH2          -9.6921350355        4.9559381983        5.2737736823  CLST          75          1.0000000000
       224        75  TIP3  H1           -8.7850132623        5.2677605873        5.5002374208  CLST          75          1.0000000000
       225        75  TIP3  H2          -10.1305640056        5.1737013682        6.1331338607  CLST          75          1.0000000000
       226        76  TIP3  OH2           8.5687113514       13.4463189478       -8.9830698732  CLST          76          1.0000000000
       227        76  TIP3  H1            8.6551047702       13.6464974584       -9.9692735195  CLST          76          1.0000000000
       228        76  TIP3  H2            9.4863650679       13.0510817842       -8.9804152661  CLST          76          1.0000000000
       229        77  TIP3  OH2           0.3066018681       -5.0038548900       -5.4864880077  CLST          77          1.0000000000
       230        77  TIP3  H1            0.5251486433       -4.9307267654       -6.4798161166  CLST          77          1.0000000000
       231        77  TIP3  H2           -0.6249320280       -5.2859967140       -5.6234395887  CLST          77          1.0000000000
       232        78  TIP3  OH2          -5.3741557333       -8.1699892276        1.6141130913  CLST          78          1.0000000000
       233        78  TIP3  H1           -5.1917200330       -7.6743549315        0.8165380259  CLST          78          1.0000000000
       234        78  TIP3  H2           -5.9878084049       -8.8162921004        1.1656055553  CLST          78          1.0000000000
       235        79  TIP3  OH2           6.9557412395      -14.2355002228       10.2388402642  CLST          79          1.0000000000
       236        79  TIP3  H1            6.5343320380      -14.5892074713       11.0677689727  CLST          79          1.0000000000
       237        79  TIP3  H2            6.1633349300      -13.9779810463        9.7518257918  CLST          79          1.0000000000
       238        80  TIP3  OH2           6.4466299597       -0.2192216320      -13.0844715280  CLST          80          1.0000000000
       239        80  TIP3  H1            6.4078157094        0.1868975014      -14.0100001492  CLST          80          1.0000000000
       240        80  TIP3  H2            7.4134598554       -0.0028200647      -12.9643963396  CLST          80          1.0000000000
       241        81  TIP3  OH2          -7.3548283735        1.0995973550        5.8414483412  CLST          81          1.0000000000
       242        81  TIP3  H1           -8.2570605837        1.5384243864        5.7634566781  CLST          81          1.0000000000
       243        81  TIP3  H2           -6.8847705589        1.9504600383        5.6118227982  CLST          81          1.0000000000
       244        82  TIP3  OH2           2.1917430807       -1.8379305615       10.6849376290  CLST          82          1.0000000000
       245        82  TIP3  H1            2.5477184208       -1.0196909480       10.2263031354  CLST          82          1.0000000000
       246        82  TIP3  H2            3.0664782819       -2.3321799221       10.6693566304  CLST          82          1.0000000000
       247        83  TIP3  OH2          10.2582298689        8.3353140635       -4.9681361570  CLST          83          1.0000000000
       248        83  TIP3  H1           10.4847728295        7.4250662377       -5.2590612444  CLST          83          1.0000000000
       249        83  TIP3  H2           10.5972500837        8.1745862081       -4.0277180948  CLST          83          1.0000000000
       250        84  TIP3  OH2         -13.5455344707        8.0152026370       -1.3382792430  CLST          84          1.0000000000
       251        84  TIP3  H1          -14.2468789381        7.4656705782       -0.9054593135  CLST          84          1.0000000000
       252        84  TIP3  H2          -12.8042846443        7.3958921734       -1.1208145344  CLST          84          1.0000000000
       253        85  TIP3  OH2           2.3322894072       -1.6862323354        7.5007741331  CLST          85          1.0000000000
       254        85  TIP3  H1            1.7150078632       -2.1647995037        6.9017391857  CLST          85          1.0000000000
       255        85  TIP3  H2            2.9266734920       -2.4378654025        7.7176784604  CLST          85          1.0000000000
       256        86  TIP3  OH2           8.2005287834       -9.3770846089        9.9086347711  CLST          86          1.0000000000
       257        86  TIP3  H1            8.5073899565       -8.5843792603       10.4378097352  CLST          86          1.0000000000
       258        86  TIP3  H2            7.7969428334       -9.8705263955       10.6335826824  CLST          86          1.0000000000
       259        87  TIP3  OH2           0.6137595511       -1.2941704984       12.8922181519  CLST          87          1.0000000000
       260        87  TIP3  H1            1.1137515270       -1.3521751278       12.0017342133  CLST          87          1.0000000000
       261        87  TIP3  H2            0.3601725337       -0.3538307671       12.8438463864  CLST          87          1.0000000000
       262        88  TIP3  OH2          14.3186451023      -11.3008035452        7.9765415869  CLST          88          1.0000000000
       263        88  TIP3  H1           13.4081787625      -11.5809477039        8.2016705680  CLST          88          1.0000000000
       264        88  TIP3  H2           14.6893158568      -12.2049396726        8.0741031702  CLST          88          1.0000000000
       265        89  TIP3  OH2           6.9303175012       11.6704783830       -3.9526195108  CLST          89          1.0000000000
       266        89  TIP3  H1            6.0581975157       12.0639892534       -3.8265165726  CLST          89          1.0000000000
       267        89  TIP3  H2            6.8748462799       10.9089929073       -3.3205741121  CLST          89          1.0000000000
       268        90  TIP3  OH2          14.4841343336       -4.7156528712       -0.2875470079  CLST          90          1.0000000000
       269        90  TIP3  H1           14.1056871389       -5.2558397736       -1.0391677500  CLST          90          1.0000000000
       270        90  TIP3  H2           14.3958970275       -5.3989059664        0.4454893344  CLST          90          1.0000000000
       271        91  TIP3  OH2          11.5643737122       10.6508203163       -5.7328000903  CLST          91          1.0000000000
       272        91  TIP3  H1           11.2970420473        9.7315140697       -5.4941343080  CLST          91          1.0000000000
       273        91  TIP3  H2           10.6678858200       11.0714937383       -5.7346454586  CLST          91          1.0000000000
       274        92  TIP3  OH2          -6.1816229955        3.5036092220        8.7175888588  CLST          92          1.0000000000
       275        92  TIP3  H1           -5.5598854394        3.3584081440        7.9647639887  CLST          92          1.0000000000
       276        92  TIP3  H2           -6.1962990446        2.5395178823        9.0585048546  CLST          92          1.0000000000
       277        93  TIP3  OH2           5.2794242674       -6.5417903992       11.8854064211  CLST          93          1.0000000000
       278        93  TIP3  H1            5.2792988872       -5.9554632864       12.6749556035  CLST          93          1.0000000000
       279        93  TIP3  H2            5.9373436915       -7.2418637433       12.2127307021  CLST          93          1.0000000000
       280        94  TIP3  OH2          -5.7595020224       12.0706915468        4.2578959175  CLST          94          1.0000000000
       281        94  TIP3  H1           -5.9187465594       11.9027690352        3.2885001614  CLST          94          1.0000000000
       282        94  TIP3  H2           -6.0038612203       11.1624594278        4.5611119230  CLST          94          1.0000000000
       283        95  TIP3  OH2           6.5037725786       11.3309231472       -0.3654603829  CLST          95          1.0000000000
       284        95  TIP3  H1            6.8115970965       10.7581517392       -1.0923043621  CLST          95          1.0000000000
       285        95  TIP3  H2            6.2624700633       10.5522662794        0.2265713754  CLST          95          1.0000000000
       286        96  TIP3  OH2          14.5794144525       -0.6323849155       12.2039836590  CLST          96          1.0000000000
       287        96  TIP3  H1           15.0199514940       -1.4553752159       12.5225702048  CLST          96          1.0000000000
       288        96  TIP3  H2           13.9066868323       -0.9924279998       11.5923294465  CLST          96          1.0000000000
       289        97  TIP3  OH2          -8.4143577806        9.4368347463       12.8492905838  CLST          97          1.0000000000
       290        97  TIP3  H1           -8.2210910104        9.1347238814       11.9258480739  CLST          97          1.0000000000
       291        97  TIP3  H2           -7.5464040879        9.1566570484       13.2073415229  CLST          97          1.0000000000
       292        98  TIP3  OH2           1.6011965540        4.2037756559       14.0460279294  CLST          98          1.0000000000
       293        98  TIP3  H1            2.0896869118        4.6662226250       13.3126115374  CLST          98          1.0000000000
       294        98  TIP3  H2            2.2781967331        3.4389772915       14.1630598270  CLST          98          1.0000000000
       295        99  TIP3  OH2         -12.5291836662       12.2074172122       -5.4791680517  CLST          99          1.0000000000
       296        99  TIP3  H1          -12.9648875255       12.2463952341       -6.4471063758  CLST          99          1.0000000000
       297        99  TIP3  H2          -11.6692767049       12.6534513900       -5.7752490754  CLST          99          1.0000000000
       298       100  TIP3  OH2           9.2258377291       -3.9245022075       -6.7488275294  CLST         100          1.0000000000
       299       100  TIP3  H1            8.6248748801       -4.0849040580       -5.9677172106  CLST         100          1.0000000000
       300       100  TIP3  H2            9.1144734726       -4.8497645248       -6.8918728659  CLST         100          1.0000000000
       301       101  TIP3  OH2          11.1734816714        2.0038152669      -10.2184584477  CLST         101          1.0000000000
       302       101  TIP3  H1           11.1274725522        2.7673108444       -9.6415638844  CLST         101          1.0000000000
       303       101  TIP3  H2           11.4504723113        1.4707327458       -9.4716477338  CLST         101          1.0000000000
       304       102  TIP3  OH2          -7.0974076370        2.5199494343      -13.1246921999  CLST         102          1.0000000000
       305       102  TIP3  H1           -7.9314363547        2.2373250195      -13.4824102316  CLST         102          1.0000000000
       306       102  TIP3  H2           -7.5900923710        3.2723656712      -12.8267713863  CLST         102          1.0000000000
       307       103  TIP3  OH2          -4.3493889783      -14.1847436574      -11.2276589960  CLST         103          1.0000000000
       308       103  TIP3  H1           -4.4973109552      -14.6149314811      -12.0398211371  CLST         103          1.0000000000
       309       103  TIP3  H2           -5.3191105027      -14.0518980393      -11.3145883005  CLST         103          1.0000000000
       310       104  TIP3  OH2         -10.8944547069      -11.6148212446        8.1817290481  CLST         104          1.0000000000
       311       104  TIP3  H1          -10.2745442696      -11.2301930372        7.5239030893  CLST         104          1.0000000000
       312       104  TIP3  H2          -10.9508335829      -10.9905102649        8.9207431549  CLST         104          1.0000000000
       313       105  TIP3  OH2           4.5058580347       -0.2807682507       14.0316309993  CLST         105          1.0000000000
       314       105  TIP3  H1            4.1177057998       -1.1329267954       14.2780551402  CLST         105          1.0000000000
       315       105  TIP3  H2            4.6486439543       -0.7247147301       13.1923693404  CLST         105          1.0000000000
       316       106  TIP3  OH2          14.3156259469       -1.4745647170        5.0141220622  CLST         106          1.0000000000
       317       106  TIP3  H1           14.6933842878       -0.6940260444        5.4180645887  CLST         106          1.0000000000
       318       106  TIP3  H2           13.5351825066       -0.9236634888        4.9435374736  CLST         106          1.0000000000
       319       107  TIP3  OH2           1.5465744843      -12.4580038089       -7.1354795772  CLST         107          1.0000000000
       320       107  TIP3  H1            0.9165235198      -11.9337249764       -6.6469527478  CLST         107          1.0000000000
       321       107  TIP3  H2            1.7477522065      -12.7186145872       -6.2070666984  CLST         107          1.0000000000
       322       108  TIP3  OH2          -6.8840336395       -3.8030892054       14.3683836259  CLST         108          1.0000000000
       323       108  TIP3  H1           -6.5034609014       -4.3641260536       13.6862200794  CLST         108          1.0000000000
       324       108  TIP3  H2           -7.7661719147       -3.8236158285       13.8116923205  CLST         108          1.0000000000
       325       109  TIP3  OH2          -4.1521061209       -1.0863311965       11.4670315152  CLST         109          1.0000000000
       326       109  TIP3  H1           -4.3402664499       -2.0008337789       11.7062185654  CLST         109          1.0000000000
       327       109  TIP3  H2           -4.5798181749       -1.1540256054       10.5507451276  CLST         109          1.0000000000
       328       110  TIP3  OH2           1.1852045009       -3.5918271108       -3.2258212510  CLST         110          1.0000000000
       329       110  TIP3  H1            1.0825448642       -4.2390089970       -3.9577085615  CLST         110          1.0000000000
       330       110  TIP3  H2            0.3120947001       -3.7153223607       -2.8285008369  CLST         110          1.0000000000
       331       111  TIP3  OH2          -5.0968600298       -0.7506593448       -6.1833370384  CLST         111          1.0000000000
       332       111  TIP3  H1           -4.5493364810       -0.6287448469       -7.1653824693  CLST         111          1.0000000000
       333       111  TIP3  H2           -4.2959532317       -1.3921639480       -6.5926348843  CLST         111          1.0000000000
       334       112  TIP3  OH2           2.2106209002      -12.2805924074       -4.5534007900  CLST         112          1.0000000000
       335       112  TIP3  H1            2.1348237816      -12.4499181104       -3.5618128354  CLST         112          1.0000000000
       336       112  TIP3  H2            1.8188508620      -11.4889666926       -4.1926518981  CLST         112          1.0000000000
       337       113  TIP3  OH2          13.9998307819        5.9306119550       12.3078281258  CLST         113          1.0000000000
       338       113  TIP3  H1           14.0250553067        6.8356696450       11.9669655923  CLST         113          1.0000000000
       339       113  TIP3  H2           14.6639312841        5.9127115724       11.5540888955  CLST         113          1.0000000000
       340       114  TIP3  OH2          -5.1723638084      -11.5637189252       -4.7093243766  CLST         114          1.0000000000
       341       114  TIP3  H1           -4.7042535466      -10.9215410541       -5.2080800668  CLST         114          1.0000000000
       342       114  TIP3  H2           -4.8244018210      -12.3153987164       -5.2252935320  CLST         114          1.0000000000
       343       115  TIP3  OH2           4.8456036429      -14.0027070506       -9.0107930702  CLST         115          1.0000000000
       344       115  TIP3  H1            4.3941125210      -14.4292861574       -9.9605826831  CLST         115          1.0000000000
       345       115  TIP3  H2            4.6517330283      -13.4907848305       -9.9735578300  CLST         115          1.0000000000
       346       116  TIP3  OH2           8.2490292950        5.8645530901      -14.1992538344  CLST         116          1.0000000000
       347       116  TIP3  H1            8.9901099144        5.2807514509      -14.2426889184  CLST         116          1.0000000000
       348       116  TIP3  H2            7.7647067724        5.2329767142      -13.6111330582  CLST         116          1.0000000000
       349       117  TIP3  OH2          -0.2340371070        1.4448244679       13.0241078766  CLST         117          1.0000000000
       350       117  TIP3  H1           -0.8522954202        1.6531489285       13.8085826387  CLST         117          1.0000000000
       351       117  TIP3  H2            0.1331351956        2.3210412786       13.2556703035  CLST         117          1.0000000000
       352       118  TIP3  OH2          12.5131404941       -9.7442070335       -6.8532115680  CLST         118          1.0000000000
       353       118  TIP3  H1           12.2541646568       -9.5303998182       -5.9586330407  CLST         118          1.0000000000
       354       118  TIP3  H2           13.0303949774       -8.9658275284       -6.7335152349  CLST         118          1.0000000000
       355       119  TIP3  OH2         -12.0315111328       -1.3096688971        4.4339541362  CLST         119          1.0000000000
       356       119  TIP3  H1          -11.1499394104       -1.6657071946        4.4968040436  CLST         119          1.0000000000
       357       119  TIP3  H2          -12.0627774775       -1.0605785267        5.4023361575  CLST         119          1.0000000000
       358       120  TIP3  OH2         -11.6550718771        4.1783837490       -7.8508122416  CLST         120          1.0000000000
       359       120  TIP3  H1          -12.2036000074        4.7993202041       -8.3513481441  CLST         120          1.0000000000
       360       120  TIP3  H2          -12.4618891126        3.9113158915       -7.4051635086  CLST         120          1.0000000000
       361       121  TIP3  OH2          -6.0716215304       -7.1234300874        4.1649654294  CLST         121          1.0000000000
       362       121  TIP3  H1           -5.8072277652       -7.3435592348        3.2554903932  CLST         121          1.0000000000
       363       121  TIP3  H2           -6.9659854848       -6.8767626872        3.9610616987  CLST         121          1.0000000000
       364       122  TIP3  OH2           9.4810320078       -7.1595459111       -6.2527488224  CLST         122          1.0000000000
       365       122  TIP3  H1            9.0809663246       -7.9052179000       -6.7456030130  CLST         122          1.0000000000
       366       122  TIP3  H2           10.0943529289       -7.1624975099       -7.0145925218  CLST         122          1.0000000000
       367       123  TIP3  OH2          -6.7921111503      -10.2302225837        0.4254784880  CLST         123          1.0000000000
       368       123  TIP3  H1           -6.9854293967      -10.4737502367       -0.4894212074  CLST         123          1.0000000000
       369       123  TIP3  H2           -7.7221138201       -9.9274501341        0.5330625606  CLST         123          1.0000000000
       370       124  TIP3  OH2         -12.8613663351       -2.1161536050       -9.6956464598  CLST         124          1.0000000000
       371       124  TIP3  H1          -13.8270358590       -2.1341067711       -9.4916774825  CLST         124          1.0000000000
       372       124  TIP3  H2          -13.0826638095       -2.9567673518      -10.1104189226  CLST         124          1.0000000000
       373       125  TIP3  OH2           6.4609641425        2.7660058218       -5.4238001071  CLST         125          1.0000000000
       374       125  TIP3  H1            6.1975449889        2.0466059374       -4.8325871717  CLST         125          1.0000000000
       375       125  TIP3  H2            5.8840403527        2.4791771488       -6.1611310262  CLST         125          1.0000000000
       376       126  TIP3  OH2          12.2236478660      -10.0201602975        5.4657999014  CLST         126          1.0000000000
       377       126  TIP3  H1           12.8805995096      -10.6442608892        5.0934308894  CLST         126          1.0000000000
       378       126  TIP3  H2           11.5555012148      -10.7076156260        5.7553369754  CLST         126          1.0000000000
       379       127  TIP3  OH2         -10.4357952392       -5.6816801994       -5.0286491146  CLST         127          1.0000000000
       380       127  TIP3  H1          -10.0400373989       -5.1278140670       -4.3542977484  CLST         127          1.0000000000
       381       127  TIP3  H2           -9.9751717694       -6.3797716983       -4.5773999190  CLST         127          1.0000000000
       382       128  TIP3  OH2          -6.1530324496       -3.5354838366        6.9560082658  CLST         128          1.0000000000
       383       128  TIP3  H1           -5.6229043793       -4.3773983237        7.0022531048  CLST         128          1.0000000000
       384       128  TIP3  H2           -5.7801746740       -3.2071349283        6.1275805356  CLST         128          1.0000000000
       385       129  TIP3  OH2         -11.8112855199      -13.8703254575      -10.5943182937  CLST         129          1.0000000000
       386       129  TIP3  H1          -11.1431724567      -13.8442622891       -9.9158197951  CLST         129          1.0000000000
       387       129  TIP3  H2          -11.9850539072      -14.7802013306      -10.2670693480  CLST         129          1.0000000000
       388       130  TIP3  OH2           8.9235516078       -0.7861376754       13.9681672820  CLST         130          1.0000000000
       389       130  TIP3  H1            8.9826854624       -1.2371446035       14.8343068591  CLST         130          1.0000000000
       390       130  TIP3  H2            8.0409413049       -0.5224185683       14.2737603888  CLST         130          1.0000000000
       391       131  TIP3  OH2          -9.8830902221      -11.1375387484       -1.2580778153  CLST         131          1.0000000000
       392       131  TIP3  H1           -9.9045042965      -11.0962541957       -0.2769213786  CLST         131          1.0000000000
       393       131  TIP3  H2          -10.3610927444      -11.9846894414       -1.0359997070  CLST         131          1.0000000000
       394       132  TIP3  OH2           9.4240684188       -2.7531969558        9.7440542794  CLST         132          1.0000000000
       395       132  TIP3  H1           10.1397316554       -2.4121931739        9.1481626594  CLST         132          1.0000000000
       396       132  TIP3  H2            9.4681717200       -1.8938729133       10.1493410112  CLST         132          1.0000000000
       397       133  TIP3  OH2          -9.4817930125       -7.6605085372        7.7701474276  CLST         133          1.0000000000
       398       133  TIP3  H1           -8.7252114703       -8.2123090060        7.9202446061  CLST         133          1.0000000000
       399       133  TIP3  H2           -8.8997273824       -7.3134847889        7.0763915162  CLST         133          1.0000000000
       400       134  TIP3  OH2          -9.1820417424      -12.0554545735       14.8194771502  CLST         134          1.0000000000
       401       134  TIP3  H1           -9.5048637196      -11.7011759429       13.8203091128  CLST         134          1.0000000000
       402       134  TIP3  H2           -8.8194323538      -11.3873313019       14.5361339287  CLST         134          1.0000000000
       403       135  TIP3  OH2          -9.1036355602       10.9431046062        3.3670549493  CLST         135          1.0000000000
       404       135  TIP3  H1           -9.1704145887       10.4555549953        2.5559316166  CLST         135          1.0000000000
       405       135  TIP3  H2           -8.2997303041       10.4781564592        3.6271934599  CLST         135          1.0000000000
       406       136  TIP3  OH2          -5.5347655090       13.1789699672      -11.2679863616  CLST         136          1.0000000000
       407       136  TIP3  H1           -5.2315147330       13.5351287256      -10.4619002768  CLST         136          1.0000000000
       408       136  TIP3  H2           -5.7587235000       14.0864361468      -11.4103103330  CLST         136          1.0000000000
       409       137  TIP3  OH2          -5.7361564884      -11.1178728555        7.5805596220  CLST         137          1.0000000000
       410       137  TIP3  H1           -5.1018660030      -11.4542319759        6.6722847674  CLST         137          1.0000000000
       411       137  TIP3  H2           -5.0601153710      -11.5939329998        7.7213366156  CLST         137          1.0000000000
       412       138  TIP3  OH2           9.8231459484        8.1978429555       11.1068166612  CLST         138          1.0000000000
       413       138  TIP3  H1            9.8630310317        7.5283541489       11.6097394530  CLST         138          1.0000000000
       414       138  TIP3  H2           10.4255879915        8.1619599388       12.1057149912  CLST         138          1.0000000000
       415       139  TIP3  OH2           2.1662612334        9.7992253219       12.2584051023  CLST         139          1.0000000000
       416       139  TIP3  H1            3.1038893263        9.9409622929       12.0950979996  CLST         139          1.0000000000
       417       139  TIP3  H2            2.2057037262        9.0634473112       12.8531865916  CLST         139          1.0000000000
       418       140  TIP3  OH2          -3.0887237543       -1.1477377253       -7.9228403857  CLST         140          1.0000000000
       419       140  TIP3  H1           -2.2854050596       -0.6121048000       -7.9017781766  CLST         140          1.0000000000
       420       140  TIP3  H2           -2.4347074904       -1.8723463799       -7.9398864838  CLST         140          1.0000000000
       421       141  TIP3  OH2         -13.0583535802        5.3312717081       12.5075652402  CLST         141          1.0000000000
       422       141  TIP3  H1          -12.5374882937        6.3109170804       12.3560956588  CLST         141          1.0000000000
       423       141  TIP3  H2          -12.2855744879        5.3969545752       12.7379356776  CLST         141          1.0000000000
       424       142  TIP3  OH2          14.9820761123       -6.5544426622        5.4779866003  CLST         142          1.0000000000
       425       142  TIP3  H1           14.2168402955       -6.8444223304        4.9145206430  CLST         142          1.0000000000
       426       142  TIP3  H2           14.9205195755       -7.3200989687        6.0532176127  CLST         142          1.0000000000
       427       143  TIP3  OH2           6.5769548849       -6.9963026672        1.9601268045  CLST         143          1.0000000000
       428       143  TIP3  H1            6.9179733453       -7.0404424715        1.0218413053  CLST         143          1.0000000000
       429       143  TIP3  H2            5.7323394014       -7.0317684367        1.4862093545  CLST         143          1.0000000000
       430       144  TIP3  OH2          -1.4448111962      -13.9548427322        7.8740020012  CLST         144          1.0000000000
       431       144  TIP3  H1           -1.2269171875      -14.1739030289        6.9455856888  CLST         144          1.0000000000
       432       144  TIP3  H2           -0.8671045333      -14.6940841457        8.0497954937  CLST         144          1.0000000000
       433       145  TIP3  OH2           2.2355698852        7.4243531198       13.5264013106  CLST         145          1.0000000000
       434       145  TIP3  H1            1.2723766124        7.4138101821       13.7040518243  CLST         145          1.0000000000
       435       145  TIP3  H2            2.1349043474        6.9202466492       12.7535257642  CLST         145          1.0000000000
       436       146  TIP3  OH2          -6.0280523638       10.6101135085       -8.3652792279  CLST         146          1.0000000000
       437       146  TIP3  H1           -5.8030895740       11.5574817762       -8.3385239924  CLST         146          1.0000000000
       438       146  TIP3  H2           -6.7961076836       10.8454836565       -7.8824465449  CLST         146          1.0000000000
       439       147  TIP3  OH2           0.9118432649        2.9759920352       -4.4495324114  CLST         147          1.0000000000
       440       147  TIP3  H1            0.1601553851        2.9713716624       -3.9183000829  CLST         147          1.0000000000
       441       147  TIP3  H2            0.3076183419        3.0328542946       -5.2196998969  CLST         147          1.0000000000
       442       148  TIP3  OH2           7.2557384210        6.5448021690       -3.5657354186  CLST         148          1.0000000000
       443       148  TIP3  H1            7.8262724346        5.7737282178       -3.4479459055  CLST         148          1.0000000000
       444       148  TIP3  H2            6.7571875842        6.3158423291       -2.7593027852  CLST         148          1.0000000000
       445       149  TIP3  OH2          -4.1713213721      -12.9759340368       10.8907790450  CLST         149          1.0000000000
       446       149  TIP3  H1           -4.5861459540      -12.1736348093       11.3439537274  CLST         149          1.0000000000
       447       149  TIP3  H2           -3.4627407675      -12.5941083782       11.4137513883  CLST         149          1.0000000000
       448       150  TIP3  OH2          10.9277939045        1.1324458777       -2.4021104301  CLST         150          1.0000000000
       449       150  TIP3  H1           10.5427965050        1.0188909480       -1.4958230881  CLST         150          1.0000000000
       450       150  TIP3  H2           10.0804880511        0.8150001251       -2.7186952993  CLST         150          1.0000000000
       451       151  TIP3  OH2           3.5561189487      -12.1403189493        4.1442631459  CLST         151          1.0000000000
       452       151  TIP3  H1            3.6527399878      -12.8023318744        3.4662817460  CLST         151          1.0000000000
       453       151  TIP3  H2            3.2457070060      -11.6064582349        3.3894738522  CLST         151          1.0000000000
       454       152  TIP3  OH2           0.4954346119        6.0593170430       -5.8349929013  CLST         152          1.0000000000
       455       152  TIP3  H1            0.8465017224        6.9049565293       -6.1456430194  CLST         152          1.0000000000
       456       152  TIP3  H2            1.2991541193        5.6452351249       -6.1514036232  CLST         152          1.0000000000
       457       153  TIP3  OH2          -1.2604927788       10.3856004664       -7.4456136067  CLST         153          1.0000000000
       458       153  TIP3  H1           -1.6578192839       11.3260803381       -7.4481108344  CLST         153          1.0000000000
       459       153  TIP3  H2           -0.4534350803       10.9053814734       -7.5320163543  CLST         153          1.0000000000
       460       154  TIP3  OH2         -11.9080154359       -7.6323264897       -0.5930793101  CLST         154          1.0000000000
       461       154  TIP3  H1          -12.4739921062       -6.8344649616       -0.4105221340  CLST         154          1.0000000000
       462       154  TIP3  H2          -11.1812576870       -7.0295758416       -0.5908041974  CLST         154          1.0000000000
       463       155  TIP3  OH2          10.2919005901       -5.0674825775       14.3640029563  CLST         155          1.0000000000
       464       155  TIP3  H1           10.9190245338       -4.2436376544       13.9333696834  CLST         155          1.0000000000
       465       155  TIP3  H2           10.4974331815       -4.8476116297       13.2549452155  CLST         155          1.0000000000
       466       156  TIP3  OH2          13.9054380129        1.7067034777        0.2163091823  CLST         156          1.0000000000
       467       156  TIP3  H1           14.7753053247        1.2693340514       -0.0031746168  CLST         156          1.0000000000
       468       156  TIP3  H2           13.7970198305        1.5246413206       -0.7800830238  CLST         156          1.0000000000
       469       157  TIP3  OH2           0.2843713853       -4.9164385524       -8.3384195717  CLST         157          1.0000000000
       470       157  TIP3  H1            1.0956260184       -4.7057563907       -8.8192623565  CLST         157          1.0000000000
       471       157  TIP3  H2            0.3959032234       -5.8391983212       -8.6861635186  CLST         157          1.0000000000
       472       158  TIP3  OH2          -6.8040208029       -1.4699292117       -2.4899591227  CLST         158          1.0000000000
       473       158  TIP3  H1           -7.7427980670       -1.7039454618       -2.6424920190  CLST         158          1.0000000000
       474       158  TIP3  H2           -6.5326777015       -2.2614104353       -2.9009140277  CLST         158          1.0000000000
       475       159  TIP3  OH2           8.2568433889      -11.4685779702        8.0571790624  CLST         159          1.0000000000
       476       159  TIP3  H1            7.3773514364      -11.3667143719        7.7032733486  CLST         159          1.0000000000
       477       159  TIP3  H2            8.2397004500      -10.5732212573        8.5212554601  CLST         159          1.0000000000
       478       160  TIP3  OH2           4.5624601281       -9.4207868418        2.0006407348  CLST         160          1.0000000000
       479       160  TIP3  H1            4.2217247621       -8.8800327503        2.6882266888  CLST         160          1.0000000000
       480       160  TIP3  H2            5.2168139925       -9.7672310860        2.6204016045  CLST         160          1.0000000000
       481       161  TIP3  OH2           3.9060783618       -6.9200255134       -2.8598151126  CLST         161          1.0000000000
       482       161  TIP3  H1            4.5643087085       -7.3678356350       -2.3659532435  CLST         161          1.0000000000
       483       161  TIP3  H2            3.2455563315       -7.2608374361       -2.2574398849  CLST         161          1.0000000000
       484       162  TIP3  OH2           6.7354656525      -10.5521090823        3.0668123894  CLST         162          1.0000000000
       485       162  TIP3  H1            7.2327034842      -11.3197953231        3.3924166333  CLST         162          1.0000000000
       486       162  TIP3  H2            7.4692638269      -10.0585621022        3.3852228894  CLST         162          1.0000000000
       487       163  TIP3  OH2         -13.3531178491       -0.0420321929        2.5789697985  CLST         163          1.0000000000
       488       163  TIP3  H1          -13.6590552448        0.2997684693        3.6439011617  CLST         163          1.0000000000
       489       163  TIP3  H2          -12.7275855476       -0.1666892438        3.3236156119  CLST         163          1.0000000000
       490       164  TIP3  OH2           8.4439660389        2.8880963743        9.9239521107  CLST         164          1.0000000000
       491       164  TIP3  H1            8.7084471152        3.7344396932        9.2735903411  CLST         164          1.0000000000
       492       164  TIP3  H2            9.3543137309        3.0187028575        9.2261573200  CLST         164          1.0000000000
       493       165  TIP3  OH2          14.3018790139        3.8043692088        4.9426384441  CLST         165          1.0000000000
       494       165  TIP3  H1           13.1868419065        4.0077967129        4.8377489410  CLST         165          1.0000000000
       495       165  TIP3  H2           13.5961718677        3.3635232185        4.1965653074  CLST         165          1.0000000000
       496       166  TIP3  OH2          -6.2642857500      -12.7688955228        5.1342828060  CLST         166          1.0000000000
       497       166  TIP3  H1           -6.6351275262      -12.7025248587        4.2437794823  CLST         166          1.0000000000
       498       166  TIP3  H2           -6.7269798506      -11.9240610451        5.2321926472  CLST         166          1.0000000000
       499       167  TIP3  OH2           0.3492144387       -7.5963397623       -9.1817706013  CLST         167          1.0000000000
       500       167  TIP3  H1            0.5835803564       -7.5302933408      -10.1598284199  CLST         167          1.0000000000
       501       167  TIP3  H2            1.2603636747       -8.0795812431       -9.1097628921  CLST         167          1.0000000000
       502       168  TIP3  OH2          -2.6444125787       -2.4909340414        1.7123012751  CLST         168          1.0000000000
       503       168  TIP3  H1           -3.1846479197       -3.3503679842        1.7912014024  CLST         168          1.0000000000
       504       168  TIP3  H2           -2.4352413743       -2.9018363724        0.8350277345  CLST         168          1.0000000000
       505       169  TIP3  OH2           0.7875550971       12.1147823940       12.6106206069  CLST         169          1.0000000000
       506       169  TIP3  H1            1.4208779368       11.3518696736       12.5383856266  CLST         169          1.0000000000
       507       169  TIP3  H2            1.4678840364       12.5206838058       13.0885991282  CLST         169          1.0000000000
       508       170  TIP3  OH2         -14.5374434501      -12.1181751244        4.7491474205  CLST         170          1.0000000000
       509       170  TIP3  H1          -13.7773317904      -12.4559026172        5.2588645621  CLST         170          1.0000000000
       510       170  TIP3  H2          -14.8171086923      -11.7234968984        5.5729979953  CLST         170          1.0000000000
       511       171  TIP3  OH2          -9.7964724335        2.5884872242        2.5365806762  CLST         171          1.0000000000
       512       171  TIP3  H1           -8.9175339562        2.9425316714        2.5563465856  CLST         171          1.0000000000
       513       171  TIP3  H2           -9.6478507467        2.1372536009        3.3725826752  CLST         171          1.0000000000
       514       172  TIP3  OH2          13.9755724413       -7.1174910333      -11.8751326926  CLST         172          1.0000000000
       515       172  TIP3  H1           13.9598850877       -7.1906639398      -10.8866816036  CLST         172          1.0000000000
       516       172  TIP3  H2           13.2685251062       -7.7654545279      -11.7975143475  CLST         172          1.0000000000
       517       173  TIP3  OH2         -12.8407373596       -5.3637919704        3.0309696321  CLST         173          1.0000000000
       518       173  TIP3  H1          -13.2259978985       -4.5150289539        3.1755594889  CLST         173          1.0000000000
       519       173  TIP3  H2          -13.1499831103       -5.5643790702        2.1357901615  CLST         173          1.0000000000
       520       174  TIP3  OH2           5.5912690784      -14.0837561594        5.7307821443  CLST         174          1.0000000000
       521       174  TIP3  H1            5.1346165561      -14.5598129686        6.4621883762  CLST         174          1.0000000000
       522       174  TIP3  H2            4.8679289051      -13.5010219297        5.7282556892  CLST         174          1.0000000000
       523       175  TIP3  OH2           4.3957498329       -3.6582716264        7.6912077310  CLST         175          1.0000000000
       524       175  TIP3  H1            4.0423215852       -4.3641132838        7.1509749261  CLST         175          1.0000000000
       525       175  TIP3  H2            5.3001487756       -3.7605048802        7.4023045629  CLST         175          1.0000000000
       526       176  TIP3  OH2           8.2802705950        2.6305710373      -10.9240323257  CLST         176          1.0000000000
       527       176  TIP3  H1            9.2681982551        2.5448355408      -10.7676405089  CLST         176          1.0000000000
       528       176  TIP3  H2            8.4804493523        1.8878704397      -11.4981836504  CLST         176          1.0000000000
       529       177  TIP3  OH2          -4.0543950897       10.8426953375        7.4109429333  CLST         177          1.0000000000
       530       177  TIP3  H1           -3.2750001227       10.9345591496        6.7831432968  CLST         177          1.0000000000
       531       177  TIP3  H2           -4.0825685329        9.9103897977        7.1011631673  CLST         177          1.0000000000
       532       178  TIP3  OH2           4.2822055223       -6.1820777282        0.6624734046  CLST         178          1.0000000000
       533       178  TIP3  H1            3.6247168670       -5.4778679696        0.4944269074  CLST         178          1.0000000000
       534       178  TIP3  H2            3.6520029594       -6.7565847819        0.2198058489  CLST         178          1.0000000000
       535       179  TIP3  OH2           2.6631507514       -9.9490760027       -0.0061867757  CLST         179          1.0000000000
       536       179  TIP3  H1            1.9631956830       -9.4694162788        0.5531123390  CLST         179          1.0000000000
       537       179  TIP3  H2            3.2835048413       -9.7283470195        0.7293346156  CLST         179          1.0000000000
       538       180  TIP3  OH2          -2.0007501475       -3.6477889638        8.2145856674  CLST         180          1.0000000000
       539       180  TIP3  H1           -2.0221574259       -2.9853314213        8.9664586124  CLST         180          1.0000000000
       540       180  TIP3  H2           -2.6777807969       -3.1788749514        7.6361768655  CLST         180          1.0000000000
       541       181  TIP3  OH2         -12.0303915738       -0.0626864174      -11.3523495829  CLST         181          1.0000000000
       542       181  TIP3  H1          -11.3397013493       -0.1874413541      -10.9225845495  CLST         181          1.0000000000
       543       181  TIP3  H2          -11.7700118696       -0.9997404232      -10.8025065505  CLST         181          1.0000000000
       544       182  TIP3  OH2         -10.2162622107      -12.6050765807        5.5208471787  CLST         182          1.0000000000
       545       182  TIP3  H1          -10.6192140893      -12.4534616744        6.3936064452  CLST         182          1.0000000000
       546       182  TIP3  H2           -9.4767460874      -12.2177001774        6.0603141568  CLST         182          1.0000000000
       547       183  TIP3  OH2          11.7485431556        5.0457427012        4.2808146970  CLST         183          1.0000000000
       548       183  TIP3  H1           11.8535447627        5.0798696896        3.3289887483  CLST         183          1.0000000000
       549       183  TIP3  H2           11.5723747082        5.9715844036        4.1976499443  CLST         183          1.0000000000
       550       184  TIP3  OH2          -0.2997181526       -0.4912364331        8.1103165093  CLST         184          1.0000000000
       551       184  TIP3  H1            0.5154772932       -0.9593087110        7.8694323532  CLST         184          1.0000000000
       552       184  TIP3  H2           -0.5914836622       -1.0061976283        8.8528866050  CLST         184          1.0000000000
       553       185  TIP3  OH2           9.5057625644       13.0024553622       -3.9722031864  CLST         185          1.0000000000
       554       185  TIP3  H1            8.7132137122       12.4004238546       -3.8622132917  CLST         185          1.0000000000
       555       185  TIP3  H2            9.0558177154       13.5104209611       -4.6583526583  CLST         185          1.0000000000
       556       186  TIP3  OH2          11.9180631696       -0.0300952574        4.3452925360  CLST         186          1.0000000000
       557       186  TIP3  H1           12.2168403953        0.0524568183        3.3834045568  CLST         186          1.0000000000
       558       186  TIP3  H2           11.3864799279        0.7415208140        4.0680867329  CLST         186          1.0000000000
       559       187  TIP3  OH2         -10.1313506346       -7.8639892610      -11.3752984652  CLST         187          1.0000000000
       560       187  TIP3  H1          -10.4397384794       -7.6800594350      -10.4968381328  CLST         187          1.0000000000
       561       187  TIP3  H2           -9.8031351279       -6.9855723868      -11.3392306981  CLST         187          1.0000000000
       562       188  TIP3  OH2         -14.7313918993       -0.2264751152        0.5414563775  CLST         188          1.0000000000
       563       188  TIP3  H1          -14.6702112481       -0.3565323841        1.3878188040  CLST         188          1.0000000000
       564       188  TIP3  H2          -15.0540401849       -0.9236002938       -0.0948103457  CLST         188          1.0000000000
       565       189  TIP3  OH2          13.9914819500        0.6216698760       14.4030317825  CLST         189          1.0000000000
       566       189  TIP3  H1           14.6286151109        0.5173480073       15.0698163604  CLST         189          1.0000000000
       567       189  TIP3  H2           14.4451773997        0.3101921526       13.5916225024  CLST         189          1.0000000000
       568       190  TIP3  OH2           0.4839712518       -7.9236623898        3.8308305047  CLST         190          1.0000000000
       569       190  TIP3  H1            0.7063893340       -8.2984201300        4.6934294083  CLST         190          1.0000000000
       570       190  TIP3  H2            1.0376363067       -7.0976022377        3.9490433236  CLST         190          1.0000000000
       571       191  TIP3  OH2          -0.9807578844       14.2085489877       -4.0770739971  CLST         191          1.0000000000
       572       191  TIP3  H1           -1.8967462970       13.8904987096       -3.9487397723  CLST         191          1.0000000000
       573       191  TIP3  H2           -1.4193655125       15.0367833978       -3.8082629284  CLST         191          1.0000000000
       574       192  TIP3  OH2          -5.1956860417       -0.2795471843       -0.8208787532  CLST         192          1.0000000000
       575       192  TIP3  H1           -5.9655963366       -0.4647740022       -1.3799505472  CLST         192          1.0000000000
       576       192  TIP3  H2           -5.7011816671        0.3312469183       -0.2309668506  CLST         192          1.0000000000
       577       193  TIP3  OH2         -13.0236711590      -12.8148328267        6.8365441577  CLST         193          1.0000000000
       578       193  TIP3  H1          -12.4273124367      -13.0408098298        7.4157389750  CLST         193          1.0000000000
       579       193  TIP3  H2          -12.4992672793      -12.1374618545        7.3431398130  CLST         193          1.0000000000
       580       194  TIP3  OH2          12.5019820544       12.3597646205      -11.2417423428  CLST         194          1.0000000000
       581       194  TIP3  H1           12.9390009701       13.2378212255      -11.2614784752  CLST         194          1.0000000000
       582       194  TIP3  H2           13.1366587928       12.1781332741      -11.9370140090  CLST         194          1.0000000000
       583       195  TIP3  OH2           4.8781874893        2.6319090108        3.6717449435  CLST         195          1.0000000000
       584       195  TIP3  H1            4.0355833771        2.5614639944        2.9266680388  CLST         195          1.0000000000
       585       195  TIP3  H2            4.5568516597        1.7307202224        3.1151046724  CLST         195          1.0000000000
       586       196  TIP3  OH2           7.2177685339        6.5507648832       11.8544791571  CLST         196          1.0000000000
       587       196  TIP3  H1            8.1320932963        6.3905495790       12.0983621274  CLST         196          1.0000000000
       588       196  TIP3  H2            7.0438542355        6.8951671796       12.7553977512  CLST         196          1.0000000000
       589       197  TIP3  OH2          -4.4725349412       -9.3339405579        3.9477259198  CLST         197          1.0000000000
       590       197  TIP3  H1           -4.7512063772       -8.9543785584        3.0864783380  CLST         197          1.0000000000
       591       197  TIP3  H2           -3.7337357541       -8.7031991763        3.9887820706  CLST         197          1.0000000000
       592       198  TIP3  OH2          -4.2820334139       -8.8826198982       -6.1355904583  CLST         198          1.0000000000
       593       198  TIP3  H1           -3.7232687582       -8.5310868982       -6.8559854100  CLST         198          1.0000000000
       594       198  TIP3  H2           -4.9962195543       -8.8632462310       -6.7781311103  CLST         198          1.0000000000
       595       199  TIP3  OH2          11.4021371725        7.7707195160       -2.4364606916  CLST         199          1.0000000000
       596       199  TIP3  H1           11.2536883968        8.5745092867       -1.9230001584  CLST         199          1.0000000000
       597       199  TIP3  H2           12.0411670519        7.5913821643       -1.7616127273  CLST         199          1.0000000000
       598       200  TIP3  OH2          -4.8827061097       -7.4993638566       -1.1863838934  CLST         200          1.0000000000
       599       200  TIP3  H1           -4.2318057638       -7.8504722722       -1.8299752277  CLST         200          1.0000000000
       600       200  TIP3  H2           -4.7579646509       -6.5788827286       -1.4204903030  CLST         200          1.0000000000
       601       201  TIP3  OH2          13.9315546057      -10.5532169388       11.8086909085  CLST         201          1.0000000000
       602       201  TIP3  H1           14.3605007459      -10.1856977917       11.0636120691  CLST         201          1.0000000000
       603       201  TIP3  H2           13.0437455151      -10.1309031812       11.6292838286  CLST         201          1.0000000000
       604       202  TIP3  OH2          -2.8143636984       -9.6815495097        8.0807158589  CLST         202          1.0000000000
       605       202  TIP3  H1           -2.1826066402      -10.1445180095        8.3129607915  CLST         202          1.0000000000
       606       202  TIP3  H2           -2.6224565091      -10.6797503285        7.5801423858  CLST         202          1.0000000000
       607       203  TIP3  OH2          10.5088191444        4.2091226724       13.8588493548  CLST         203          1.0000000000
       608       203  TIP3  H1            9.6296817608        3.6272967289       13.3896296458  CLST         203          1.0000000000
       609       203  TIP3  H2           10.3928478135        3.1150552051       13.7610243720  CLST         203          1.0000000000
       610       204  TIP3  OH2          -5.1929980466        6.1899112642        5.9632844984  CLST         204          1.0000000000
       611       204  TIP3  H1           -5.9860929195        6.7094681281        5.9580877807  CLST         204          1.0000000000
       612       204  TIP3  H2           -4.8582570566        6.8381534938        6.6252348752  CLST         204          1.0000000000
       613       205  TIP3  OH2          -2.5107128811        1.3978168629       -4.7885610158  CLST         205          1.0000000000
       614       205  TIP3  H1           -1.8802839503        1.6237297997       -5.5413645618  CLST         205          1.0000000000
       615       205  TIP3  H2           -3.0736188745        1.9153779842       -5.3950501277  CLST         205          1.0000000000
       616       206  TIP3  OH2          -8.5900220553       -1.1237069881        4.6230829835  CLST         206          1.0000000000
       617       206  TIP3  H1           -8.9518320897       -1.2002825103        5.5707345823  CLST         206          1.0000000000
       618       206  TIP3  H2           -8.0285269800       -0.3609654786        5.0132010903  CLST         206          1.0000000000
       619       207  TIP3  OH2          -7.6304178967        9.4774162908        0.4442193215  CLST         207          1.0000000000
       620       207  TIP3  H1           -7.1101892592        8.6883499357        0.3333123610  CLST         207          1.0000000000
       621       207  TIP3  H2           -8.0448948615        8.9498202542        1.2040490842  CLST         207          1.0000000000
       622       208  TIP3  OH2           9.1997466895       14.2455341850      -11.5982288008  CLST         208          1.0000000000
       623       208  TIP3  H1            9.5756265732       13.5648639569      -12.1635733015  CLST         208          1.0000000000
       624       208  TIP3  H2            9.5450068270       14.9766559564      -12.0258453529  CLST         208          1.0000000000
       625       209  TIP3  OH2          -6.3303129727       -6.1564096582      -14.2551489736  CLST         209          1.0000000000
       626       209  TIP3  H1           -7.2730532385       -6.0442357232      -14.4595066171  CLST         209          1.0000000000
       627       209  TIP3  H2           -6.6648637130       -6.7635935255      -13.6201991672  CLST         209          1.0000000000
       628       210  TIP3  OH2          -2.2022523239        1.4336519669        8.2422099013  CLST         210          1.0000000000
       629       210  TIP3  H1           -1.5012519340        0.8137845567        8.1392411083  CLST         210          1.0000000000
       630       210  TIP3  H2           -1.9820346373        1.5052609568        9.2215432603  CLST         210          1.0000000000
       631       211  TIP3  OH2          -0.6558442460        0.0760180522       -2.8688969003  CLST         211          1.0000000000
       632       211  TIP3  H1           -1.3327773617       -0.5290378931       -2.5311787560  CLST         211          1.0000000000
       633       211  TIP3  H2           -1.3784370843        0.4894101927       -3.2997997572  CLST         211          1.0000000000
       634       212  TIP3  OH2           6.7186387941        3.1074338977        5.7364494828  CLST         212          1.0000000000
       635       212  TIP3  H1            6.4167154652        2.1461612586        5.8892056489  CLST         212          1.0000000000
       636       212  TIP3  H2            5.9335985383        3.1375164060        5.2106391887  CLST         212          1.0000000000
       637       213  TIP3  OH2           2.0564943999       -4.9371903453       -0.2561216611  CLST         213          1.0000000000
       638       213  TIP3  H1            2.0170981243       -4.2165342003       -0.8450578770  CLST         213          1.0000000000
       639       213  TIP3  H2            1.8369762738       -5.5674331673       -0.9137527352  CLST         213          1.0000000000
       640       214  TIP3  OH2           2.1669700651       -7.1246118825      -11.3920093142  CLST         214          1.0000000000
       641       214  TIP3  H1            2.8092189262       -7.8933153416      -11.5732836211  CLST         214          1.0000000000
       642       214  TIP3  H2            2.8833230492       -6.7830659586      -10.8227777741  CLST         214          1.0000000000
       643       215  TIP3  OH2         -12.7085981664        2.6197770244      -10.9839386673  CLST         215          1.0000000000
       644       215  TIP3  H1          -12.1967355548        1.6574340238      -10.7455909676  CLST         215          1.0000000000
       645       215  TIP3  H2          -12.9405458386        1.5991745347      -11.3968066404  CLST         215          1.0000000000
       646       216  TIP3  OH2          11.5360104585       -6.6939939872       -4.5686684666  CLST         216          1.0000000000
       647       216  TIP3  H1           11.1771150973       -7.5555596039       -4.4963712436  CLST         216          1.0000000000
       648       216  TIP3  H2           10.7292567569       -6.5216994399       -5.1273152577  CLST         216          1.0000000000
       649       217  TIP3  OH2          -6.5089803587        9.4160719932        3.8954980314  CLST         217          1.0000000000
       650       217  TIP3  H1           -5.6030981039        9.1487168907        4.0946593397  CLST         217          1.0000000000
       651       217  TIP3  H2           -6.7896638681        8.5040671825        3.5478043345  CLST         217          1.0000000000
       652       218  TIP3  OH2           5.7401664936       -7.3162664065       -8.2606650063  CLST         218          1.0000000000
       653       218  TIP3  H1            5.9838369492       -8.1470182230       -7.7595098139  CLST         218          1.0000000000
       654       218  TIP3  H2            5.4844187513       -7.0168771066       -7.3453561874  CLST         218          1.0000000000
       655       219  TIP3  OH2           2.8713761995      -13.5018975982        7.2922921423  CLST         219          1.0000000000
       656       219  TIP3  H1            2.9298570754      -13.4374214580        8.4393583769  CLST         219          1.0000000000
       657       219  TIP3  H2            3.6057741421      -13.8413326523        7.7153678423  CLST         219          1.0000000000
       658       220  TIP3  OH2           2.3409070994        1.6686128067      -11.0354571848  CLST         220          1.0000000000
       659       220  TIP3  H1            2.6322926966        1.6581090846      -11.9596429667  CLST         220          1.0000000000
       660       220  TIP3  H2            3.1138723904        1.1167428675      -10.8423965081  CLST         220          1.0000000000
       661       221  TIP3  OH2           1.7656536062       -0.4210339503        3.0532153269  CLST         221          1.0000000000
       662       221  TIP3  H1            0.8005622581       -0.3001720765        2.8955776029  CLST         221          1.0000000000
       663       221  TIP3  H2            1.7085835057        0.2568267959        3.6863859705  CLST         221          1.0000000000
       664       222  TIP3  OH2          12.0442107559        0.5076337906        1.6432495174  CLST         222          1.0000000000
       665       222  TIP3  H1           12.5272392782        0.2729772358        0.8793316370  CLST         222          1.0000000000
       666       222  TIP3  H2           11.2066573099        0.8036353179        1.2109531541  CLST         222          1.0000000000
       667       223  TIP3  OH2           1.3927696341      -10.5420751025      -12.8950313197  CLST         223          1.0000000000
       668       223  TIP3  H1            1.0999518981      -10.5984415653      -11.9632538165  CLST         223          1.0000000000
       669       223  TIP3  H2            0.7941101643       -9.7967584027      -12.9194790615  CLST         223          1.0000000000
       670       224  TIP3  OH2          -9.3263663376        6.7221703331      -12.5104535133  CLST         224          1.0000000000
       671       224  TIP3  H1          -10.2201737961        6.1274964583      -12.1666583805  CLST         224          1.0000000000
       672       224  TIP3  H2           -9.3547112931        5.6938915621      -12.1141677434  CLST         224          1.0000000000
       673       225  TIP3  OH2          13.1267583719        3.7457049098       -7.6070890951  CLST         225          1.0000000000
       674       225  TIP3  H1           12.1298911612        3.7643590330       -7.6725679168  CLST         225          1.0000000000
       675       225  TIP3  H2           12.8755954596        3.1337587888       -6.8463495204  CLST         225          1.0000000000
       676       226  TIP3  OH2           5.2327902849        4.8863381922       10.6620818894  CLST         226          1.0000000000
       677       226  TIP3  H1            5.9077570168        5.4497753694       11.0693347841  CLST         226          1.0000000000
       678       226  TIP3  H2            5.8808928659        4.2302297944       10.9218711047  CLST         226          1.0000000000
       679       227  TIP3  OH2          -6.1154867864        0.8715171486        9.7693086707  CLST         227          1.0000000000
       680       227  TIP3  H1           -6.7043394625        0.6042935300       10.4156652956  CLST         227          1.0000000000
       681       227  TIP3  H2           -5.6347954423        0.0950559276        9.3929695450  CLST         227          1.0000000000
       682       228  TIP3  OH2          -8.6158881776       -5.3776272934       10.3277473867  CLST         228          1.0000000000
       683       228  TIP3  H1           -8.3919817455       -5.1654058435        9.4400513966  CLST         228          1.0000000000
       684       228  TIP3  H2           -7.6870096453       -5.5747309305       10.4027955719  CLST         228          1.0000000000
       685       229  TIP3  OH2          11.2848534350        7.7913197408      -15.0698163604  CLST         229          1.0000000000
       686       229  TIP3  H1           11.5640475940        8.0298844911      -14.1600638088  CLST         229          1.0000000000
       687       229  TIP3  H2           11.8597617006        7.0218937484      -14.8627021652  CLST         229          1.0000000000
       688       230  TIP3  OH2         -10.8742040771       -3.5518582480        8.8063979197  CLST         230          1.0000000000
       689       230  TIP3  H1          -11.2928147154       -4.3900125459        8.7219312645  CLST         230          1.0000000000
       690       230  TIP3  H2          -11.6920595239       -3.2867976751        9.2645090327  CLST         230          1.0000000000
       691       231  TIP3  OH2          -0.3136422200        3.1066983965      -11.8513279678  CLST         231          1.0000000000
       692       231  TIP3  H1            0.4489793757        2.6296194837      -11.5833983212  CLST         231          1.0000000000
       693       231  TIP3  H2            0.0080281307        3.1498027018      -12.7468969592  CLST         231          1.0000000000
       694       232  TIP3  OH2           1.9014836660      -15.0698163604      -11.8583609914  CLST         232          1.0000000000
       695       232  TIP3  H1            1.6402984022      -14.3050247589      -11.3418804805  CLST         232          1.0000000000
       696       232  TIP3  H2            2.1198791612      -14.4277325364      -12.5251316101  CLST         232          1.0000000000
       697       233  TIP3  OH2         -12.2386309990        9.5709608068        2.1960675236  CLST         233          1.0000000000
       698       233  TIP3  H1          -12.7832922785        9.2633736208        2.8743416099  CLST         233          1.0000000000
       699       233  TIP3  H2          -13.0948722019        9.8518696754        1.8346816604  CLST         233          1.0000000000
       700       234  TIP3  OH2          -2.2119660509        4.6385617984       -8.2275442618  CLST         234          1.0000000000
       701       234  TIP3  H1           -2.1999510326        5.5875380432       -8.2679638097  CLST         234          1.0000000000
       702       234  TIP3  H2           -2.2628480456        4.6044391366       -9.2133384410  CLST         234          1.0000000000
       703       235  TIP3  OH2         -10.1950369890        5.0039346882       -5.5376475424  CLST         235          1.0000000000
       704       235  TIP3  H1          -10.6259783993        4.6376270740       -6.3411597115  CLST         235          1.0000000000
       705       235  TIP3  H2           -9.4164491860        4.6318494436       -6.1069660480  CLST         235          1.0000000000
       706       236  TIP3  OH2         -12.2449154777      -10.6609716138       13.6116942194  CLST         236          1.0000000000
       707       236  TIP3  H1          -11.5265490261      -10.7560581282       12.7612844425  CLST         236          1.0000000000
       708       236  TIP3  H2          -12.0929064431       -9.9428664857       12.7736164365  CLST         236          1.0000000000
       709       237  TIP3  OH2          -6.1366739044       -6.3125772943       10.3882987208  CLST         237          1.0000000000
       710       237  TIP3  H1           -5.8501199425       -6.8018412085        9.6251686371  CLST         237          1.0000000000
       711       237  TIP3  H2           -5.2502455826       -6.5366233472       10.6830522468  CLST         237          1.0000000000
       712       238  TIP3  OH2          -1.0061103617        3.6492108423       -2.7910255779  CLST         238          1.0000000000
       713       238  TIP3  H1           -1.9464478134        4.2109982323       -3.1241150558  CLST         238          1.0000000000
       714       238  TIP3  H2           -1.6978642210        3.2413513781       -2.7560608502  CLST         238          1.0000000000
       715       239  TIP3  OH2           8.1364939031        7.4989056334       -0.1911168227  CLST         239          1.0000000000
       716       239  TIP3  H1            8.3761403155        6.7041174137       -0.6473641085  CLST         239          1.0000000000
       717       239  TIP3  H2            9.0943735673        7.5267591804        0.0327614145  CLST         239          1.0000000000
       718       240  TIP3  OH2          -9.7960324634        8.7742670318        2.1983939147  CLST         240          1.0000000000
       719       240  TIP3  H1          -10.5959903763        9.1071350827        1.7790314667  CLST         240          1.0000000000
       720       240  TIP3  H2          -10.2926042758        7.9831068197        2.2706876335  CLST         240          1.0000000000
       721       241  TIP3  OH2          10.6552869712       -4.4327590624       -1.8732691280  CLST         241          1.0000000000
       722       241  TIP3  H1           10.2828849967       -4.1214257967       -2.5476949108  CLST         241          1.0000000000
       723       241  TIP3  H2           10.1182008084       -5.0065101982       -2.1726582778  CLST         241          1.0000000000
       724       242  TIP3  OH2           9.2442263381       -1.7619421376       -4.1119482140  CLST         242          1.0000000000
       725       242  TIP3  H1           10.2231520293       -1.5889206752       -4.1457299658  CLST         242          1.0000000000
       726       242  TIP3  H2            9.2086147284       -2.2071676177       -3.2716237914  CLST         242          1.0000000000
       727       243  TIP3  OH2           5.0916459233        9.5401572673      -12.0532262830  CLST         243          1.0000000000
       728       243  TIP3  H1            4.4169355700       10.1350188177      -11.7354008319  CLST         243          1.0000000000
       729       243  TIP3  H2            4.8474344763        9.0164438066      -11.2925364572  CLST         243          1.0000000000
       730       244  TIP3  OH2          -8.9745323936       -6.5570839944      -14.2923620519  CLST         244          1.0000000000
       731       244  TIP3  H1           -9.3374200162       -6.3474924101      -13.4157414741  CLST         244          1.0000000000
       732       244  TIP3  H2           -9.8257724545       -6.3897456863      -14.6404911819  CLST         244          1.0000000000
       733       245  TIP3  OH2         -13.0133696413        5.9787235361        2.3219886655  CLST         245          1.0000000000
       734       245  TIP3  H1          -12.4131935485        6.5095334644        2.9428012823  CLST         245          1.0000000000
       735       245  TIP3  H2          -12.1784186182        5.8789303014        1.8365234122  CLST         245          1.0000000000
       736       246  TIP3  OH2          -9.2407002290        6.3411673837       -1.5697254377  CLST         246          1.0000000000
       737       246  TIP3  H1          -10.1309140546        6.3190117888       -1.8772991974  CLST         246          1.0000000000
       738       246  TIP3  H2           -9.1858098668        7.2589444294       -1.7330997455  CLST         246          1.0000000000
       739       247  TIP3  OH2          -4.4129761992        8.0680692999        7.8194028726  CLST         247          1.0000000000
       740       247  TIP3  H1           -3.4463475825        7.9837984645        8.0572135054  CLST         247          1.0000000000
       741       247  TIP3  H2           -4.6954508351        8.0731728262        8.7573247232  CLST         247          1.0000000000
       742       248  TIP3  OH2           9.8230918131       -7.7209103890        7.8656935965  CLST         248          1.0000000000
       743       248  TIP3  H1            8.9957718183       -8.0989915341        7.5182281613  CLST         248          1.0000000000
       744       248  TIP3  H2           10.1986138547       -7.6693207456        7.0017388870  CLST         248          1.0000000000
       745       249  TIP3  OH2           9.8457812484        5.9439196450       -1.2613184940  CLST         249          1.0000000000
       746       249  TIP3  H1           10.5620393231        5.3079304220       -1.2409422755  CLST         249          1.0000000000
       747       249  TIP3  H2           10.4785213198        6.3923795255       -1.8478111721  CLST         249          1.0000000000
       748       250  TIP3  OH2           5.9053250909       -4.8670621288        3.3493364874  CLST         250          1.0000000000
       749       250  TIP3  H1            6.0155900135       -5.4549058208        2.6112286051  CLST         250          1.0000000000
       750       250  TIP3  H2            5.4412881514       -5.3725192946        3.9634833848  CLST         250          1.0000000000
       751       251  TIP3  OH2         -14.6946117548      -11.6972138392        2.0484548370  CLST         251          1.0000000000
       752       251  TIP3  H1          -14.2245280386      -12.4112191863        1.6279819841  CLST         251          1.0000000000
       753       251  TIP3  H2          -14.2724548044      -11.9399853958        2.9008686774  CLST         251          1.0000000000
       754       252  TIP3  OH2          -6.8936987198      -14.7049046310      -11.9884760260  CLST         252          1.0000000000
       755       252  TIP3  H1           -7.8189820325      -14.6710961273      -11.7885415873  CLST         252          1.0000000000
       756       252  TIP3  H2           -7.1482167761      -14.2284162848      -12.8148327902  CLST         252          1.0000000000
       757       253  TIP3  OH2           0.5967146356        7.8697296455        7.8075688776  CLST         253          1.0000000000
       758       253  TIP3  H1            0.2983272243        7.6975617225        6.9130275687  CLST         253          1.0000000000
       759       253  TIP3  H2            1.4416171239        7.6016671602        7.5268802893  CLST         253          1.0000000000
       760       254  TIP3  OH2         -11.2685411314        1.1591878484      -14.1382582368  CLST         254          1.0000000000
       761       254  TIP3  H1          -12.0258423132        0.6550713948      -13.7878369607  CLST         254          1.0000000000
       762       254  TIP3  H2          -11.7250794011        1.7877498935      -14.7227029242  CLST         254          1.0000000000
       763       255  TIP3  OH2           4.1675878481        0.0438239000       -0.8305224114  CLST         255          1.0000000000
       764       255  TIP3  H1            4.0375865676       -0.6198256971       -0.1582521802  CLST         255          1.0000000000
       765       255  TIP3  H2            3.2117177663        0.0309945441       -0.9009096599  CLST         255          1.0000000000
       766       256  TIP3  OH2          14.1530327208       -3.3332669257      -12.0095003667  CLST         256          1.0000000000
       767       256  TIP3  H1           14.6817128664       -3.0634522148      -12.7234943660  CLST         256          1.0000000000
       768       256  TIP3  H2           13.6559292474       -3.9386116408      -12.4688790132  CLST         256          1.0000000000
       769       257  TIP3  OH2          -6.4658886154      -13.4889365028       10.1380318023  CLST         257          1.0000000000
       770       257  TIP3  H1           -6.7212041304      -14.3720782498        9.8824239326  CLST         257          1.0000000000
       771       257  TIP3  H2           -5.7545613603      -13.9130962887       10.5928999859  CLST         257          1.0000000000
       772       258  TIP3  OH2         -10.2300007407      -11.8875870303       -6.5340337216  CLST         258          1.0000000000
       773       258  TIP3  H1           -9.8225087152      -11.8082208721       -5.6443627099  CLST         258          1.0000000000
       774       258  TIP3  H2          -10.2061621478      -10.9197683022       -6.5419418687  CLST         258          1.0000000000
       775       259  TIP3  OH2           3.1061131886        1.7672481306       14.1332734863  CLST         259          1.0000000000
       776       259  TIP3  H1            3.0289283552        0.8841739172       13.8059160343  CLST         259          1.0000000000
       777       259  TIP3  H2            3.2587817443        1.4355455027       14.9927763066  CLST         259          1.0000000000
       778       260  TIP3  OH2         -10.5489746525      -10.2056808884       -9.6801547271  CLST         260          1.0000000000
       779       260  TIP3  H1          -11.2747381235      -10.4969991421      -10.2436579572  CLST         260          1.0000000000
       780       260  TIP3  H2          -11.1863989844       -9.5707725931       -9.3074908711  CLST         260          1.0000000000
       781       261  TIP3  OH2           6.9360696719        1.1585770492       -0.1796342242  CLST         261          1.0000000000
       782       261  TIP3  H1            7.0274926851        1.7039989714       -1.0019892301  CLST         261          1.0000000000
       783       261  TIP3  H2            6.0291202164        1.5185977611       -0.1878597005  CLST         261          1.0000000000
       784       262  TIP3  OH2          -1.6887698293       14.3601836017        2.9678346853  CLST         262          1.0000000000
       785       262  TIP3  H1           -2.2093177872       13.8315916646        3.6145469975  CLST         262          1.0000000000
       786       262  TIP3  H2           -1.1046623938       13.6045935433        2.9499625324  CLST         262          1.0000000000
       787       263  TIP3  OH2           6.6117099258        3.8933043381        1.8995609580  CLST         263          1.0000000000
       788       263  TIP3  H1            6.3186299089        3.3250111859        1.2340472390  CLST         263          1.0000000000
       789       263  TIP3  H2            6.0575196133        3.3344249909        2.5194628105  CLST         263          1.0000000000
       790       264  TIP3  OH2          -3.0446736926       10.1470080282       10.0975496200  CLST         264          1.0000000000
       791       264  TIP3  H1           -2.3518128699       10.8117674363       10.3159025578  CLST         264          1.0000000000
       792       264  TIP3  H2           -2.6876237676       10.1480080015        9.2441400526  CLST         264          1.0000000000
       793       265  TIP3  OH2         -12.5144725844       12.6182016372       -0.1375325397  CLST         265          1.0000000000
       794       265  TIP3  H1          -12.9118980213       12.9878543471       -0.9757392466  CLST         265          1.0000000000
       795       265  TIP3  H2          -13.0024311670       11.8284619072       -0.2402209829  CLST         265          1.0000000000
       796       266  TIP3  OH2          -3.9467362256        1.7021406996        3.9721494306  CLST         266          1.0000000000
       797       266  TIP3  H1           -4.0918625764        0.8872155393        3.4647033122  CLST         266          1.0000000000
       798       266  TIP3  H2           -3.9370287205        2.1137704196        3.0695780097  CLST         266          1.0000000000
       799       267  TIP3  OH2          -6.9805594744       11.4008584462       -5.3152256153  CLST         267          1.0000000000
       800       267  TIP3  H1           -7.6931347428       11.3259087238       -6.0442364121  CLST         267          1.0000000000
       801       267  TIP3  H2           -7.7322920083       11.7715219320       -4.8520216450  CLST         267          1.0000000000
       802       268  TIP3  OH2           4.9198797778        3.6987166124      -14.1770451948  CLST         268          1.0000000000
       803       268  TIP3  H1            5.6491257019        3.9808588335      -13.5663932107  CLST         268          1.0000000000
       804       268  TIP3  H2            4.9556797481        4.5466378785      -14.6906060611  CLST         268          1.0000000000
       805       269  TIP3  OH2           9.4399012219       -0.5039976522       11.1793853755  CLST         269          1.0000000000
       806       269  TIP3  H1           10.3522501301       -0.2763392566       11.5125206522  CLST         269          1.0000000000
       807       269  TIP3  H2            9.3320344019       -0.6534984814       12.1740464448  CLST         269          1.0000000000
       808       270  TIP3  OH2          -8.0598102027       -5.9513243056        6.2916456455  CLST         270          1.0000000000
       809       270  TIP3  H1           -8.1277122355       -5.8349317834        5.3382189589  CLST         270          1.0000000000
       810       270  TIP3  H2           -7.4516183933       -5.2556706307        6.2414812020  CLST         270          1.0000000000
       811       271  TIP3  OH2         -11.7387827683       11.8456832010       11.4170686892  CLST         271          1.0000000000
       812       271  TIP3  H1          -11.3575525786       11.9895424534       12.3196614163  CLST         271          1.0000000000
       813       271  TIP3  H2          -11.2656396490       12.5242798740       11.0020008829  CLST         271          1.0000000000
       814       272  TIP3  OH2           6.7911615203      -14.2360753088        3.2271979158  CLST         272          1.0000000000
       815       272  TIP3  H1            7.5661516330      -13.7063752836        3.8293422410  CLST         272          1.0000000000
       816       272  TIP3  H2            6.7305001992      -14.0090246207        4.3256184419  CLST         272          1.0000000000
       817       273  TIP3  OH2          -8.5885130776       11.0326032344       -7.6325172570  CLST         273          1.0000000000
       818       273  TIP3  H1           -9.0975981671       11.4196166669       -8.3415577462  CLST         273          1.0000000000
       819       273  TIP3  H2           -9.3153183080       10.3492629425       -7.6663911633  CLST         273          1.0000000000
       820       274  TIP3  OH2          -6.6755016691        0.6064951722       13.9289294926  CLST         274          1.0000000000
       821       274  TIP3  H1           -7.5493353626        0.9508134363       14.1527590972  CLST         274          1.0000000000
       822       274  TIP3  H2           -7.1420171026        0.3939572046       13.1129414546  CLST         274          1.0000000000
       823       275  TIP3  OH2           3.9638446568      -15.0283631696       -0.8012141702  CLST         275          1.0000000000
       824       275  TIP3  H1            3.0909203562      -14.7749261286       -0.5009791266  CLST         275          1.0000000000
       825       275  TIP3  H2            3.9842275433      -14.2136168383       -1.3643574042  CLST         275          1.0000000000
       826       276  TIP3  OH2           2.5557079841      -10.0402178471        7.0997097940  CLST         276          1.0000000000
       827       276  TIP3  H1            2.4249718494      -10.2862128342        8.0233853950  CLST         276          1.0000000000
       828       276  TIP3  H2            3.4287718031       -9.8766481160        7.3213246044  CLST         276          1.0000000000
       829       277  TIP3  OH2          -7.3578343022        7.0555396816        2.5867058010  CLST         277          1.0000000000
       830       277  TIP3  H1           -8.0452126733        6.6090035499        2.0593048664  CLST         277          1.0000000000
       831       277  TIP3  H2           -6.8689210090        6.3301760427        2.2116482252  CLST         277          1.0000000000
       832       278  TIP3  OH2           4.9378964664      -10.5624300357        9.9481182384  CLST         278          1.0000000000
       833       278  TIP3  H1            5.1328293845       -9.9957143573        9.1819834153  CLST         278          1.0000000000
       834       278  TIP3  H2            4.3122771094       -9.9181184978       10.2214442375  CLST         278          1.0000000000
       835       279  TIP3  OH2          12.0075261185       -5.6449528720        7.4220373918  CLST         279          1.0000000000
       836       279  TIP3  H1           11.5546426632       -6.0303304453        6.6660712156  CLST         279          1.0000000000
       837       279  TIP3  H2           12.4199589207       -5.1163147939        6.7242283408  CLST         279          1.0000000000
       838       280  TIP3  OH2           6.8660860993       -8.8623800023       12.9097911026  CLST         280          1.0000000000
       839       280  TIP3  H1            7.0945159928       -9.7930999630       12.8529553268  CLST         280          1.0000000000
       840       280  TIP3  H2            7.6886349440       -8.3632936388       12.8009848092  CLST         280          1.0000000000
       841       281  TIP3  OH2          -1.5303990702        4.7599287495       10.6487314387  CLST         281          1.0000000000
       842       281  TIP3  H1           -2.2957829975        4.2285273562       10.6551616154  CLST         281          1.0000000000
       843       281  TIP3  H2           -1.5191431698        4.7952756819       11.5686166079  CLST         281          1.0000000000
       844       282  TIP3  OH2          10.7018153153       10.5388748302      -10.7563385238  CLST         282          1.0000000000
       845       282  TIP3  H1           11.2597607051        9.7897999950      -10.9995926692  CLST         282          1.0000000000
       846       282  TIP3  H2           11.2997762690       10.9941578532      -11.3581691642  CLST         282          1.0000000000
       847       283  TIP3  OH2          -2.9740452971       -4.3564497396       -0.0082593949  CLST         283          1.0000000000
       848       283  TIP3  H1           -3.6230615452       -4.6521670958       -0.6483600254  CLST         283          1.0000000000
       849       283  TIP3  H2           -3.0565525713       -5.2268541756        0.4210047373  CLST         283          1.0000000000
       850       284  TIP3  OH2           4.0221610304       10.8198341482        2.2665909354  CLST         284          1.0000000000
       851       284  TIP3  H1            4.1854201062        9.8980131286        2.2760964484  CLST         284          1.0000000000
       852       284  TIP3  H2            3.2276907085       10.6320844253        2.8412131697  CLST         284          1.0000000000
       853       285  TIP3  OH2         -11.5984230714       -6.1231583229        8.3034690414  CLST         285          1.0000000000
       854       285  TIP3  H1          -10.6816328582       -6.3328048539        8.0358759116  CLST         285          1.0000000000
       855       285  TIP3  H2          -11.8809379839       -6.1374205649        7.3528281530  CLST         285          1.0000000000
       856       286  TIP3  OH2          -2.6284985949       -9.7612927417      -10.4159433516  CLST         286          1.0000000000
       857       286  TIP3  H1           -2.4466151655       -9.7495545461      -11.3026177208  CLST         286          1.0000000000
       858       286  TIP3  H2           -3.5785896850       -9.9515392574      -10.3716437082  CLST         286          1.0000000000
       859       287  TIP3  OH2           2.6041948992       -0.8768396424       -7.7676635812  CLST         287          1.0000000000
       860       287  TIP3  H1            2.5729396171        0.1318031768       -7.7739048152  CLST         287          1.0000000000
       861       287  TIP3  H2            3.4967183358       -0.8699775891       -8.1465434042  CLST         287          1.0000000000
       862       288  TIP3  OH2          13.5915718502      -14.3743890635       -8.2383415251  CLST         288          1.0000000000
       863       288  TIP3  H1           13.6578811412      -13.5234128537       -7.8273620088  CLST         288          1.0000000000
       864       288  TIP3  H2           13.6943907960      -14.7206693127       -7.3626996276  CLST         288          1.0000000000
       865       289  TIP3  OH2          14.0669332712        3.6878305124      -10.2848506109  CLST         289          1.0000000000
       866       289  TIP3  H1           13.7676543541        3.8568415549       -9.3649107944  CLST         289          1.0000000000
       867       289  TIP3  H2           14.9149575029        3.4326509014       -9.9297743793  CLST         289          1.0000000000
       868       290  TIP3  OH2          11.6206959039        0.8856544940       12.0637224078  CLST         290          1.0000000000
       869       290  TIP3  H1           11.8703461503        0.9949066788       13.0011441644  CLST         290          1.0000000000
       870       290  TIP3  H2           11.8214805206        1.8231521631       12.0534421889  CLST         290          1.0000000000
       871       291  TIP3  OH2         -11.3461318729       -9.3940803022       -2.5708936066  CLST         291          1.0000000000
       872       291  TIP3  H1          -10.6507243925       -9.8045885986       -2.0668117422  CLST         291          1.0000000000
       873       291  TIP3  H2          -11.3591184769       -8.7840691226       -1.8189117517  CLST         291          1.0000000000
       874       292  TIP3  OH2           9.1700597251       -2.0359409159      -11.7397651769  CLST         292          1.0000000000
       875       292  TIP3  H1            8.4494721589       -2.5892165205      -11.7118061941  CLST         292          1.0000000000
       876       292  TIP3  H2            9.3375924955       -2.1643744834      -10.7841141282  CLST         292          1.0000000000
       877       293  TIP3  OH2           2.5034266730        2.6355923140      -13.4289488139  CLST         293          1.0000000000
       878       293  TIP3  H1            2.2020640206        3.5279312564      -13.3528117075  CLST         293          1.0000000000
       879       293  TIP3  H2            3.3617739961        2.9811403050      -13.7125187378  CLST         293          1.0000000000
       880       294  TIP3  OH2           1.8192117691        7.7702098850        1.0134641715  CLST         294          1.0000000000
       881       294  TIP3  H1            1.5446323010        7.6094545811        1.8377060194  CLST         294          1.0000000000
       882       294  TIP3  H2            2.5670968748        7.6782618598        1.8933993216  CLST         294          1.0000000000
       883       295  TIP3  OH2           3.6700552669       12.7506762222       -4.4020876757  CLST         295          1.0000000000
       884       295  TIP3  H1            2.9197921348       13.2501920745       -3.9875864536  CLST         295          1.0000000000
       885       295  TIP3  H2            3.8313900049       13.5614041507       -4.8868362270  CLST         295          1.0000000000
       886       296  TIP3  OH2           2.7201271187        5.4916113781      -11.1419811495  CLST         296          1.0000000000
       887       296  TIP3  H1            2.2912164166        5.4984244815      -12.0030167301  CLST         296          1.0000000000
       888       296  TIP3  H2            1.8987746961        5.2325224807      -10.7352673077  CLST         296          1.0000000000
       889       297  TIP3  OH2          13.4565042754        0.2522592505        9.1365993560  CLST         297          1.0000000000
       890       297  TIP3  H1           13.8371939433        1.1446629683        9.1679611540  CLST         297          1.0000000000
       891       297  TIP3  H2           14.3648247528       -0.0410669798        9.0430503062  CLST         297          1.0000000000
       892       298  TIP3  OH2          12.1803372511       -5.1368621187      -12.3417599960  CLST         298          1.0000000000
       893       298  TIP3  H1           11.6824315273       -5.7750726381      -12.8484585661  CLST         298          1.0000000000
       894       298  TIP3  H2           12.7678843331       -5.8552230569      -12.0666323354  CLST         298          1.0000000000
       895       299  TIP3  OH2           3.3143734829       -5.8730741267       -7.4912272322  CLST         299          1.0000000000
       896       299  TIP3  H1            2.9162232928       -4.9616990925       -7.7609042767  CLST         299          1.0000000000
       897       299  TIP3  H2            3.4918563472       -5.3971011545       -6.6860167324  CLST         299          1.0000000000
       898       300  TIP3  OH2          10.3148857027       -6.6654186360      -13.6957172155  CLST         300          1.0000000000
       899       300  TIP3  H1           10.3737127073       -6.0767000565      -14.5502583399  CLST         300          1.0000000000
       900       300  TIP3  H2            9.3991921604       -6.6081358954      -13.4704370532  CLST         300          1.0000000000
       901       301  TIP3  OH2          10.9825745911       -6.8917295770        0.2949391028  CLST         301          1.0000000000
       902       301  TIP3  H1           11.0840557045       -6.3244390511       -0.4367244079  CLST         301          1.0000000000
       903       301  TIP3  H2           10.3926805016       -7.4366395997       -0.2612880921  CLST         301          1.0000000000
       904       302  TIP3  OH2          11.5905657334       -7.1498466582       11.8779435356  CLST         302          1.0000000000
       905       302  TIP3  H1           11.9956392533       -6.6491356239       11.1885559333  CLST         302          1.0000000000
       906       302  TIP3  H2           11.6398412694       -8.0418374593       11.4467266528  CLST         302          1.0000000000
       907       303  TIP3  OH2          -8.8883007143       11.7485854037        6.8303090601  CLST         303          1.0000000000
       908       303  TIP3  H1           -9.7180848984       11.9574927786        6.3872659900  CLST         303          1.0000000000
       909       303  TIP3  H2           -8.6070216755       12.5757208817        6.3890378762  CLST         303          1.0000000000
       910       304  TIP3  OH2          -2.0066653696        8.3288669478       -0.7232030670  CLST         304          1.0000000000
       911       304  TIP3  H1           -2.6643823875        7.7798440875       -0.2660799504  CLST         304          1.0000000000
       912       304  TIP3  H2           -2.7664336103        8.8792974779       -0.8825689046  CLST         304          1.0000000000
       913       305  TIP3  OH2          -1.8604715329       -5.8054389567       -9.9032594283  CLST         305          1.0000000000
       914       305  TIP3  H1           -1.6660731157       -4.8443143187      -10.0063824419  CLST         305          1.0000000000
       915       305  TIP3  H2           -1.7344903409       -6.1565826264      -10.8102199203  CLST         305          1.0000000000
       916       306  TIP3  OH2          -8.5805685003      -14.5585796443       -7.0819096854  CLST         306          1.0000000000
       917       306  TIP3  H1           -7.6656936061      -14.8581774461       -6.9417457990  CLST         306          1.0000000000
       918       306  TIP3  H2           -8.4156778097      -14.0596663373       -6.2649175344  CLST         306          1.0000000000
       919       307  TIP3  OH2           0.8010085141       10.0933486115      -14.3336947592  CLST         307          1.0000000000
       920       307  TIP3  H1            1.3520019897       10.4858179124      -13.6495138205  CLST         307          1.0000000000
       921       307  TIP3  H2            1.5402467149        9.5134930334      -14.4339805015  CLST         307          1.0000000000
       922       308  TIP3  OH2          12.3647024154       -3.3685597063       13.2527919772  CLST         308          1.0000000000
       923       308  TIP3  H1           12.5997711086       -3.2099943795       12.3254986582  CLST         308          1.0000000000
       924       308  TIP3  H2           13.1507681963       -3.8882142701       13.3737381486  CLST         308          1.0000000000
       925       309  TIP3  OH2          12.7003921180       12.5249348486       14.8150833052  CLST         309          1.0000000000
       926       309  TIP3  H1           12.2749263718       11.8188698657       14.2315722209  CLST         309          1.0000000000
       927       309  TIP3  H2           12.9464934498       12.4295873047       14.0147398096  CLST         309          1.0000000000
       928       310  TIP3  OH2           4.2663929749       14.4612187153       -6.5304670718  CLST         310          1.0000000000
       929       310  TIP3  H1            4.2278449394       14.8797783066       -7.5615577846  CLST         310          1.0000000000
       930       310  TIP3  H2            3.8248056823       13.9999479791       -7.4516291889  CLST         310          1.0000000000
       931       311  TIP3  OH2          -5.9439792215        5.9110651751       -5.1357590539  CLST         311          1.0000000000
       932       311  TIP3  H1           -6.8192206962        5.4707580913       -5.2911882465  CLST         311          1.0000000000
       933       311  TIP3  H2           -5.9108197002        5.8549505106       -6.0919336631  CLST         311          1.0000000000
       934       312  TIP3  OH2           5.0122310543       -8.8534822105        7.8209220765  CLST         312          1.0000000000
       935       312  TIP3  H1            4.8371439727       -7.9210141546        8.2111039949  CLST         312          1.0000000000
       936       312  TIP3  H2            5.8148426452       -8.4019551752        7.4100955989  CLST         312          1.0000000000
       937       313  TIP3  OH2          -2.0889734965        7.9442285876       11.0210659210  CLST         313          1.0000000000
       938       313  TIP3  H1           -2.7649503216        8.6104927886       10.9514979413  CLST         313          1.0000000000
       939       313  TIP3  H2           -2.7235137439        7.3780564376       10.5593855401  CLST         313          1.0000000000
       940       314  TIP3  OH2           9.5247311430       -2.6235360396       -1.9277751619  CLST         314          1.0000000000
       941       314  TIP3  H1            9.2937589538       -3.3596575061       -1.1683175232  CLST         314          1.0000000000
       942       314  TIP3  H2            8.7469232756       -2.4981701642       -1.0476999338  CLST         314          1.0000000000
       943       315  TIP3  OH2           4.5415188192        9.7916175618       -2.9155386782  CLST         315          1.0000000000
       944       315  TIP3  H1            3.8298506028        9.2470851404       -2.5745337370  CLST         315          1.0000000000
       945       315  TIP3  H2            4.1744240735       10.6019965001       -2.6026556314  CLST         315          1.0000000000
       946       316  TIP3  OH2          13.8278610527       -6.6645366329       -6.0113366302  CLST         316          1.0000000000
       947       316  TIP3  H1           13.0477098875       -6.5964386125       -5.4536213958  CLST         316          1.0000000000
       948       316  TIP3  H2           13.5231111433       -5.8859770523       -6.4698597776  CLST         316          1.0000000000
       949       317  TIP3  OH2          -3.1640852775      -10.0455064228       -2.6859734615  CLST         317          1.0000000000
       950       317  TIP3  H1           -3.4900303576       -9.8794475830       -3.5558607329  CLST         317          1.0000000000
       951       317  TIP3  H2           -2.2957426294       -9.8193657435       -3.1136630670  CLST         317          1.0000000000
       952       318  TIP3  OH2          -1.2393491568        9.8103737204       -5.0949842681  CLST         318          1.0000000000
       953       318  TIP3  H1           -2.1706067477        9.5904298623       -5.3971731845  CLST         318          1.0000000000
       954       318  TIP3  H2           -1.3549881174       10.5964007012       -5.6265392927  CLST         318          1.0000000000
       955       319  TIP3  OH2           6.3132500141       -7.8532409408       -2.1090358270  CLST         319          1.0000000000
       956       319  TIP3  H1            6.8158459262       -8.4096414044       -2.7285106465  CLST         319          1.0000000000
       957       319  TIP3  H2            6.6194019840       -8.5361433803       -1.4907992196  CLST         319          1.0000000000
       958       320  TIP3  OH2           5.8843383967       12.8246836581      -12.3515456208  CLST         320          1.0000000000
       959       320  TIP3  H1            6.1257986056       12.6093211866      -13.2292667757  CLST         320          1.0000000000
       960       320  TIP3  H2            6.5367466503       12.0889981157      -12.1511930362  CLST         320          1.0000000000
       961       321  TIP3  OH2           1.3796757285      -11.3170746856        9.1812789105  CLST         321          1.0000000000
       962       321  TIP3  H1            1.7198256260      -11.8718522928        9.8930031172  CLST         321          1.0000000000
       963       321  TIP3  H2            1.6726097730      -10.6527021330        9.7960532880  CLST         321          1.0000000000
       964       322  TIP3  OH2           0.9652671244        5.7339786174       10.0020055854  CLST         322          1.0000000000
       965       322  TIP3  H1            0.6760967937        6.2166268570        9.2040659527  CLST         322          1.0000000000
       966       322  TIP3  H2            0.0012236915        5.6065405042       10.1424328697  CLST         322          1.0000000000
       967       323  TIP3  OH2           8.1804221588        3.1238672447       12.6709525316  CLST         323          1.0000000000
       968       323  TIP3  H1            7.3166051025        2.7865586756       12.6379234124  CLST         323          1.0000000000
       969       323  TIP3  H2            8.2227432067        2.8916373320       11.7301545653  CLST         323          1.0000000000
       970       324  TIP3  OH2           6.2539843441        3.1356304871       -1.6993484287  CLST         324          1.0000000000
       971       324  TIP3  H1            5.8478896135        3.9759906792       -1.6573712038  CLST         324          1.0000000000
       972       324  TIP3  H2            6.1247222385        2.9411490467       -2.5885945607  CLST         324          1.0000000000
       973       325  TIP3  OH2         -12.2427670471       -8.5777743346       11.7341969807  CLST         325          1.0000000000
       974       325  TIP3  H1          -12.6052606418       -7.5471955423       11.4841641522  CLST         325          1.0000000000
       975       325  TIP3  H2          -11.6069264973       -7.7081809891       11.4462075455  CLST         325          1.0000000000
       976       326  TIP3  OH2         -12.2235999486        9.3800942732       -5.2553985614  CLST         326          1.0000000000
       977       326  TIP3  H1          -12.4281479054       10.3504039938       -5.2063418812  CLST         326          1.0000000000
       978       326  TIP3  H2          -11.5634215073        9.4231449117       -5.8666434217  CLST         326          1.0000000000
       979       327  TIP3  OH2          12.2774444701       -5.4427726197        9.8754628543  CLST         327          1.0000000000
       980       327  TIP3  H1           12.1130175314       -6.0787965319        9.1777723928  CLST         327          1.0000000000
       981       327  TIP3  H2           12.7530295885       -5.0103940666        9.1007965154  CLST         327          1.0000000000
       982       328  TIP3  OH2         -12.5048014442       -8.1653464329      -12.9200712209  CLST         328          1.0000000000
       983       328  TIP3  H1          -11.6422961938       -8.2716983380      -12.4790216547  CLST         328          1.0000000000
       984       328  TIP3  H2          -12.3515752268       -9.0769353724      -13.2094697065  CLST         328          1.0000000000
       985       329  TIP3  OH2           6.8591467244       -4.2567183441       -1.6660558509  CLST         329          1.0000000000
       986       329  TIP3  H1            6.2473169151       -3.8757556244       -1.0613139582  CLST         329          1.0000000000
       987       329  TIP3  H2            6.0443839438       -4.1364195038       -2.2066458681  CLST         329          1.0000000000
       988       330  TIP3  OH2          12.9258838551        5.6987970912      -14.2976077701  CLST         330          1.0000000000
       989       330  TIP3  H1           13.7880515361        5.3599133165      -14.6324059253  CLST         330          1.0000000000
       990       330  TIP3  H2           13.3849254474        5.7832037963      -13.4540810557  CLST         330          1.0000000000
       991       331  TIP3  OH2          -4.5350546660        0.0529566450        6.1456976455  CLST         331          1.0000000000
       992       331  TIP3  H1           -4.3399690950        0.7066951528        5.4750926497  CLST         331          1.0000000000
       993       331  TIP3  H2           -5.5240702741        0.1928322984        6.1397721320  CLST         331          1.0000000000
       994       332  TIP3  OH2          -8.7018179799        9.2122318135       -2.0894537008  CLST         332          1.0000000000
       995       332  TIP3  H1           -9.2734485443        9.9917965643       -2.0096345701  CLST         332          1.0000000000
       996       332  TIP3  H2           -8.2092072587        9.3881825904       -1.2459687560  CLST         332          1.0000000000
       997       333  TIP3  OH2          -6.7360773590       -8.7779189478       -7.0625994834  CLST         333          1.0000000000
       998       333  TIP3  H1           -7.3122899174       -9.2202449444       -7.6823796701  CLST         333          1.0000000000
       999       333  TIP3  H2           -7.2966595364       -8.0051838989       -6.8095697932  CLST         333          1.0000000000
      1000       334  TIP3  OH2         -10.5717655104        7.9341299554       -9.3961260343  CLST         334          1.0000000000
      1001       334  TIP3  H1           -9.9696244125        8.6351044512       -9.6459973194  CLST         334          1.0000000000
      1002       334  TIP3  H2          -10.4420482330        8.2256627308       -8.4787328674  CLST         334          1.0000000000
      1003       335  TIP3  OH2           1.4648190735        0.1186163147       -0.9345764370  CLST         335          1.0000000000
      1004       335  TIP3  H1            1.0888111463       -0.7316407223       -0.6779352246  CLST         335          1.0000000000
      1005       335  TIP3  H2            0.7966200607        0.1572556502       -1.7018133948  CLST         335          1.0000000000
      1006       336  TIP3  OH2          11.5924073927        5.5037710193        1.6061284407  CLST         336          1.0000000000
      1007       336  TIP3  H1           10.8376638428        4.8997281854        1.4136004023  CLST         336          1.0000000000
      1008       336  TIP3  H2           10.8976920445        6.1592342766        1.3389766513  CLST         336          1.0000000000
      1009       337  TIP3  OH2           1.8853365554      -15.0698163604        5.4443746495  CLST         337          1.0000000000
      1010       337  TIP3  H1            2.1533083896      -14.3283672769        5.9502412960  CLST         337          1.0000000000
      1011       337  TIP3  H2            1.6641016040      -14.4837381132        4.7419157190  CLST         337          1.0000000000
      1012       338  TIP3  OH2          -4.6302189694        2.8764550470      -11.8583326644  CLST         338          1.0000000000
      1013       338  TIP3  H1           -5.4458863041        2.6784017201      -12.4201174543  CLST         338          1.0000000000
      1014       338  TIP3  H2           -4.6005681639        1.8299259761      -12.3070631896  CLST         338          1.0000000000
      1015       339  TIP3  OH2           5.0509703168        2.2900342315       -7.6973777413  CLST         339          1.0000000000
      1016       339  TIP3  H1            4.1492632399        2.3964045142       -8.0130951158  CLST         339          1.0000000000
      1017       339  TIP3  H2            5.1284819763        3.0572479995       -8.2967451723  CLST         339          1.0000000000
      1018       340  TIP3  OH2         -10.7127142690       12.0933749671       -8.8583629929  CLST         340          1.0000000000
      1019       340  TIP3  H1          -11.5526695566       12.0270180046       -9.1876818922  CLST         340          1.0000000000
      1020       340  TIP3  H2          -10.9657376499       12.9529784701       -8.4519226680  CLST         340          1.0000000000
      1021       341  TIP3  OH2          -1.6188873054       13.6828189426       -0.4480802473  CLST         341          1.0000000000
      1022       341  TIP3  H1           -1.1010321550       13.2030503931       -1.1396620945  CLST         341          1.0000000000
      1023       341  TIP3  H2           -2.3459953504       13.2529001830       -0.9107276666  CLST         341          1.0000000000
      1024       342  TIP3  OH2         -11.5875391466        3.4642416822        9.6849175324  CLST         342          1.0000000000
      1025       342  TIP3  H1          -12.1594424580        2.8422930999       10.1012007988  CLST         342          1.0000000000
      1026       342  TIP3  H2          -11.1471910953        3.6061316568       10.5167268061  CLST         342          1.0000000000
      1027       343  TIP3  OH2          -0.6421901243       -1.3736703243      -13.8636455667  CLST         343          1.0000000000
      1028       343  TIP3  H1           -0.9776887205       -0.4689582459      -13.8709747084  CLST         343          1.0000000000
      1029       343  TIP3  H2           -0.6397556621       -1.3650921435      -14.8371682576  CLST         343          1.0000000000
      1030       344  TIP3  OH2           8.7616097038        4.1194701386        4.2469814425  CLST         344          1.0000000000
      1031       344  TIP3  H1            8.4157703768        4.9764974117        4.4409086299  CLST         344          1.0000000000
      1032       344  TIP3  H2            8.0265404354        3.7491692105        4.7197686983  CLST         344          1.0000000000
      1033       345  TIP3  OH2           0.2134647745        9.6534400655       -0.1650301890  CLST         345          1.0000000000
      1034       345  TIP3  H1            0.7271141855        8.9349696572        0.2754623429  CLST         345          1.0000000000
      1035       345  TIP3  H2           -0.4815001817        9.0130979542       -0.2199904699  CLST         345          1.0000000000
      1036       346  TIP3  OH2          -4.7217955331      -14.7628874056        6.2639623243  CLST         346          1.0000000000
      1037       346  TIP3  H1           -5.2870926365      -13.9451417700        6.1107852586  CLST         346          1.0000000000
      1038       346  TIP3  H2           -4.4477931282      -13.7113564826        6.6186342133  CLST         346          1.0000000000
      1039       347  TIP3  OH2         -13.8421205982      -11.6304335029       -1.9326536406  CLST         347          1.0000000000
      1040       347  TIP3  H1          -14.1337327591      -10.8280615511       -2.3670169625  CLST         347          1.0000000000
      1041       347  TIP3  H2          -13.2803617249      -11.0483166489       -1.3594840061  CLST         347          1.0000000000
      1042       348  TIP3  OH2           4.3988911021        7.6091662073       -7.5963036261  CLST         348          1.0000000000
      1043       348  TIP3  H1            5.3458006179        7.4028102971       -7.2824841939  CLST         348          1.0000000000
      1044       348  TIP3  H2            4.8830794194        7.4857152218       -6.4597749004  CLST         348          1.0000000000
      1045       349  TIP3  OH2           8.1463444674       10.0295764131        2.6321358034  CLST         349          1.0000000000
      1046       349  TIP3  H1            8.6715982835        9.8253168228        1.6460500460  CLST         349          1.0000000000
      1047       349  TIP3  H2            7.6499259605        9.6033361960        1.9068295417  CLST         349          1.0000000000
      1048       350  TIP3  OH2          -8.4674452925        1.0491735353      -14.6703314790  CLST         350          1.0000000000
      1049       350  TIP3  H1           -8.8075344684        0.1933897494      -14.4302929947  CLST         350          1.0000000000
      1050       350  TIP3  H2           -9.4204345648        1.2245819235      -14.8781329699  CLST         350          1.0000000000
      1051       351  TIP3  OH2          10.0112017743        3.1500969738        6.0344723018  CLST         351          1.0000000000
      1052       351  TIP3  H1           10.2867937106        3.8934174928        5.1796871606  CLST         351          1.0000000000
      1053       351  TIP3  H2            9.9839484167        2.9454972270        4.9709854187  CLST         351          1.0000000000
      1054       352  TIP3  OH2           5.2872954215       -0.7186470913       -8.1734476097  CLST         352          1.0000000000
      1055       352  TIP3  H1            6.0350884749       -0.8204696419       -7.5289786484  CLST         352          1.0000000000
      1056       352  TIP3  H2            5.2757033787        0.2430976107       -8.0526676256  CLST         352          1.0000000000
      1057       353  TIP3  OH2          -1.5566788567        9.7059919995      -12.8761181263  CLST         353          1.0000000000
      1058       353  TIP3  H1           -0.7849719414        9.7642963962      -13.4958203480  CLST         353          1.0000000000
      1059       353  TIP3  H2           -1.5872341554        8.7167753525      -13.0535903593  CLST         353          1.0000000000
      1060       354  TIP3  OH2         -11.7316274750      -10.9362251037      -14.0464265710  CLST         354          1.0000000000
      1061       354  TIP3  H1          -12.0873400300      -10.8572247024      -14.9504272604  CLST         354          1.0000000000
      1062       354  TIP3  H2          -11.0419796794      -11.3526760365      -14.5898056308  CLST         354          1.0000000000
      1063       355  TIP3  OH2           1.8726699046      -13.7153771722       -9.6469254946  CLST         355          1.0000000000
      1064       355  TIP3  H1            1.7883150894      -13.2861763305       -8.7987968043  CLST         355          1.0000000000
      1065       355  TIP3  H2            1.2605028857      -12.9425932306       -9.8564489271  CLST         355          1.0000000000
      1066       356  TIP3  OH2         -12.8971854888       -5.1675143282       -3.1307269249  CLST         356          1.0000000000
      1067       356  TIP3  H1          -13.1315254055       -6.0318673831       -3.5883416006  CLST         356          1.0000000000
      1068       356  TIP3  H2          -13.4374842701       -4.7859434282       -3.8684603496  CLST         356          1.0000000000
      1069       357  TIP3  OH2          -6.6512997195       -9.6437556133        5.0350573032  CLST         357          1.0000000000
      1070       357  TIP3  H1           -5.8377803094      -10.0669479832        4.8594103878  CLST         357          1.0000000000
      1071       357  TIP3  H2           -6.1591271903       -8.8401759066        4.7235115799  CLST         357          1.0000000000
      1072       358  TIP3  OH2          -2.3087938516       -7.6234393524        4.0839523100  CLST         358          1.0000000000
      1073       358  TIP3  H1           -1.3849118373       -7.8088474893        4.0607689136  CLST         358          1.0000000000
      1074       358  TIP3  H2           -2.2962880055       -7.4014377810        5.0244142371  CLST         358          1.0000000000
      1075       359  TIP3  OH2          10.1749787590       10.0496864630       -1.8119040450  CLST         359          1.0000000000
      1076       359  TIP3  H1            9.7854336203       10.6398556195       -1.0917265509  CLST         359          1.0000000000
      1077       359  TIP3  H2           10.8205447237       10.7465256273       -1.9308162782  CLST         359          1.0000000000
      1078       360  TIP3  OH2           7.4353867173       13.2452709287       12.9569878220  CLST         360          1.0000000000
      1079       360  TIP3  H1            8.3718729438       13.3270871553       12.6880409381  CLST         360          1.0000000000
      1080       360  TIP3  H2            6.9973195613       13.1539696204       12.0810489437  CLST         360          1.0000000000
      1081       361  TIP3  OH2          -5.9057508394      -10.5821393765       10.6592954781  CLST         361          1.0000000000
      1082       361  TIP3  H1           -6.3725890265      -12.1027247809        8.9042071468  CLST         361          1.0000000000
      1083       361  TIP3  H2           -6.0707941003      -11.6071343955        9.9818008621  CLST         361          1.0000000000
      1084       362  TIP3  OH2           4.4999766909       -3.5785310973       10.2472779947  CLST         362          1.0000000000
      1085       362  TIP3  H1            4.7499847289       -3.1640058321        9.4127014289  CLST         362          1.0000000000
      1086       362  TIP3  H2            5.3775324361       -3.9124589584       10.4657780565  CLST         362          1.0000000000
      1087       363  TIP3  OH2           5.0061721247       -4.7146032434       14.0678289792  CLST         363          1.0000000000
      1088       363  TIP3  H1            5.7100804960       -5.0292864921       14.6549596391  CLST         363          1.0000000000
      1089       363  TIP3  H2            5.6847213721       -4.0596337003       13.7703049908  CLST         363          1.0000000000
      1090       364  TIP3  OH2          -1.1139409390        4.9003293766       13.3339618007  CLST         364          1.0000000000
      1091       364  TIP3  H1           -0.2510312019        4.6218752572       13.7098810905  CLST         364          1.0000000000
      1092       364  TIP3  H2           -0.7636174731        5.7954577132       13.4568702424  CLST         364          1.0000000000
      1093       365  TIP3  OH2          -7.5656620108        4.6704085954      -11.7476725558  CLST         365          1.0000000000
      1094       365  TIP3  H1           -7.7997702088        5.0587431456      -10.8505986963  CLST         365          1.0000000000
      1095       365  TIP3  H2           -6.8213971135        5.2452496022      -11.5579528755  CLST         365          1.0000000000
      1096       366  TIP3  OH2         -10.1262645613       -2.7305257103        0.5376549301  CLST         366          1.0000000000
      1097       366  TIP3  H1          -11.0777597377       -2.5951814212        0.7483662073  CLST         366          1.0000000000
      1098       366  TIP3  H2          -10.4840924652       -2.7725839083       -0.3493689326  CLST         366          1.0000000000
      1099       367  TIP3  OH2          13.6197877162       10.6121830245       11.7334053396  CLST         367          1.0000000000
      1100       367  TIP3  H1           13.2437087238       11.3623513053       11.2365849124  CLST         367          1.0000000000
      1101       367  TIP3  H2           12.8266226857       10.6859071424       12.2082649548  CLST         367          1.0000000000
      1102       368  TIP3  OH2         -10.0269807149       -1.1842580921       12.8258174428  CLST         368          1.0000000000
      1103       368  TIP3  H1          -10.8703861566       -1.2987082632       12.3593981127  CLST         368          1.0000000000
      1104       368  TIP3  H2           -9.8657498238       -2.1529055441       12.7582528640  CLST         368          1.0000000000
      1105       369  TIP3  OH2           7.6422224341        9.5477132952       -2.2399068103  CLST         369          1.0000000000
      1106       369  TIP3  H1            8.6285652568        9.4734293611       -2.3564410143  CLST         369          1.0000000000
      1107       369  TIP3  H2            7.7169130383        8.7763903450       -1.7083580806  CLST         369          1.0000000000
      1108       370  TIP3  OH2          -6.6759868228      -12.8411219201       -0.8292867133  CLST         370          1.0000000000
      1109       370  TIP3  H1           -5.9398632790      -13.3318635327       -0.6083054222  CLST         370          1.0000000000
      1110       370  TIP3  H2           -7.1134367713      -13.1010679762       -0.0498692586  CLST         370          1.0000000000
      1111       371  TIP3  OH2           8.6191070445       12.2213516998        9.8081222065  CLST         371          1.0000000000
      1112       371  TIP3  H1            8.5126764172       11.5821753859        9.1133007830  CLST         371          1.0000000000
      1113       371  TIP3  H2            7.6812315890       12.3709724737        9.9287881910  CLST         371          1.0000000000
      1114       372  TIP3  OH2          -0.9079286398       11.5424718866       -1.9279802741  CLST         372          1.0000000000
      1115       372  TIP3  H1           -1.6727440030       10.9898464050       -1.8441018169  CLST         372          1.0000000000
      1116       372  TIP3  H2           -0.4751744587       10.9066073936       -1.3773295505  CLST         372          1.0000000000
      1117       373  TIP3  OH2           8.8277453898       -5.6277827901        8.4714051908  CLST         373          1.0000000000
      1118       373  TIP3  H1            8.9265979183       -6.5162638003        8.8668629908  CLST         373          1.0000000000
      1119       373  TIP3  H2            9.5467696138       -5.9552264956        7.9152836678  CLST         373          1.0000000000
      1120       374  TIP3  OH2          11.2405802392       -9.8877446884       -4.5863119926  CLST         374          1.0000000000
      1121       374  TIP3  H1           11.1581295216      -10.1219346597       -3.6842083325  CLST         374          1.0000000000
      1122       374  TIP3  H2           10.8727383443      -10.7239196979       -4.8679239325  CLST         374          1.0000000000
      1123       375  TIP3  OH2           1.4171448874       13.4754099136       -3.0143562378  CLST         375          1.0000000000
      1124       375  TIP3  H1            1.2847173864       13.9642240483       -2.2263244585  CLST         375          1.0000000000
      1125       375  TIP3  H2            0.5667631151       13.8236868304       -3.2979329263  CLST         375          1.0000000000
      1126       376  TIP3  OH2          10.7314202840        4.1548725715       -8.7071771640  CLST         376          1.0000000000
      1127       376  TIP3  H1            9.7776879503        4.3930257071       -8.5290583363  CLST         376          1.0000000000
      1128       376  TIP3  H2           10.9190738093        4.7549595301       -9.4355162646  CLST         376          1.0000000000
      1129       377  TIP3  OH2           8.0435093470       11.1803246936      -12.0755862175  CLST         377          1.0000000000
      1130       377  TIP3  H1            8.7145382823       10.9899498370      -12.7662584990  CLST         377          1.0000000000
      1131       377  TIP3  H2            8.7423262356       10.9099286797      -11.4249498922  CLST         377          1.0000000000
      1132       378  TIP3  OH2           6.2994926901        9.3860040924        7.3748547450  CLST         378          1.0000000000
      1133       378  TIP3  H1            6.7352976588        8.6232436539        7.7573460099  CLST         378          1.0000000000
      1134       378  TIP3  H2            5.6700628823        9.3424881112        8.1304448922  CLST         378          1.0000000000
      1135       379  TIP3  OH2          -6.7791443210      -10.6814326216       -2.2644381384  CLST         379          1.0000000000
      1136       379  TIP3  H1           -6.2279782004      -11.0327827212       -2.9623298203  CLST         379          1.0000000000
      1137       379  TIP3  H2           -6.9211930544      -11.6411747978       -2.1318590486  CLST         379          1.0000000000
      1138       380  TIP3  OH2           7.4725188386       11.5636650500        4.7253172491  CLST         380          1.0000000000
      1139       380  TIP3  H1            6.5882534942       11.7721109617        4.3912703952  CLST         380          1.0000000000
      1140       380  TIP3  H2            7.5636465723       10.9865829359        4.0136847062  CLST         380          1.0000000000
      1141       381  TIP3  OH2          -7.4861683684       -6.8722102054      -10.3284429174  CLST         381          1.0000000000
      1142       381  TIP3  H1           -7.8976427779       -6.3487663308      -10.9566995208  CLST         381          1.0000000000
      1143       381  TIP3  H2           -6.5788239922       -6.6797344644      -10.6597155564  CLST         381          1.0000000000
      1144       382  TIP3  OH2          -3.5011516153        2.4187785589       -2.3308612608  CLST         382          1.0000000000
      1145       382  TIP3  H1           -4.0626723850        2.7914500034       -3.0170502161  CLST         382          1.0000000000
      1146       382  TIP3  H2           -3.7119217067        1.6232362121       -2.7515094139  CLST         382          1.0000000000
      1147       383  TIP3  OH2          -7.4704970948       -9.3702875347        8.6066468959  CLST         383          1.0000000000
      1148       383  TIP3  H1           -6.4554268120       -9.2781568986        8.4922332302  CLST         383          1.0000000000
      1149       383  TIP3  H2           -7.2412487678      -10.1907106979        8.1275532786  CLST         383          1.0000000000
      1150       384  TIP3  OH2         -11.6816993967       -5.3197554828       13.3292054572  CLST         384          1.0000000000
      1151       384  TIP3  H1          -11.7088908619       -6.0137659347       13.9569121796  CLST         384          1.0000000000
      1152       384  TIP3  H2          -12.0941979793       -5.7979944691       12.6637292593  CLST         384          1.0000000000
      1153       385  TIP3  OH2           7.8320184433        0.3555648072        8.9891104508  CLST         385          1.0000000000
      1154       385  TIP3  H1            8.4397383195        1.1884082145        9.4047415951  CLST         385          1.0000000000
      1155       385  TIP3  H2            8.4374722421        0.3390841617        9.9234184239  CLST         385          1.0000000000
      1156       386  TIP3  OH2         -12.4254987781       -8.7049736685        8.3657545801  CLST         386          1.0000000000
      1157       386  TIP3  H1          -12.1659129042       -7.7812606428        8.3281030668  CLST         386          1.0000000000
      1158       386  TIP3  H2          -12.3960235572       -8.6791830270        9.3190606435  CLST         386          1.0000000000
      1159       387  TIP3  OH2          -1.0343694610      -12.7634653127       -0.8781748257  CLST         387          1.0000000000
      1160       387  TIP3  H1           -1.0584341578      -13.2890591519       -0.0302336687  CLST         387          1.0000000000
      1161       387  TIP3  H2           -1.6153798316      -12.1984416776       -0.3207689734  CLST         387          1.0000000000
      1162       388  TIP3  OH2           3.0789332880        7.1484416205        6.9460850082  CLST         388          1.0000000000
      1163       388  TIP3  H1            2.7752858363        6.8813861499        6.1259801898  CLST         388          1.0000000000
      1164       388  TIP3  H2            3.9019791243        7.1749798330        6.4534221728  CLST         388          1.0000000000
      1165       389  TIP3  OH2          -3.6023183968      -11.0876362188       -0.1615122421  CLST         389          1.0000000000
      1166       389  TIP3  H1           -4.5445873116      -10.8832839729       -0.1876409895  CLST         389          1.0000000000
      1167       389  TIP3  H2           -3.5410156941      -10.5641517926       -1.0190854097  CLST         389          1.0000000000
      1168       390  TIP3  OH2          -1.0192748982        4.8645864626        4.3853466621  CLST         390          1.0000000000
      1169       390  TIP3  H1           -0.7433315077        4.1474336917        4.9576456100  CLST         390          1.0000000000
      1170       390  TIP3  H2           -0.4316467462        4.3478527828        3.7562122255  CLST         390          1.0000000000
      1171       391  TIP3  OH2          -6.0731276396       -4.8485555078        1.5846619385  CLST         391          1.0000000000
      1172       391  TIP3  H1           -6.0990050910       -3.9770715519        1.3923928728  CLST         391          1.0000000000
      1173       391  TIP3  H2           -6.9838310361       -4.9983476888        1.8079142996  CLST         391          1.0000000000
      1174       392  TIP3  OH2           4.9544375216        9.0502888241       -5.4291788197  CLST         392          1.0000000000
      1175       392  TIP3  H1            5.7476964048        8.7784104564       -4.9023625283  CLST         392          1.0000000000
      1176       392  TIP3  H2            4.5965319248        9.1919987720       -4.5759006655  CLST         392          1.0000000000
      1177       393  TIP3  OH2          13.2057567963       11.2023773944       -7.9643855317  CLST         393          1.0000000000
      1178       393  TIP3  H1           13.2208016755       10.3247347599       -8.3432907825  CLST         393          1.0000000000
      1179       393  TIP3  H2           12.7584283047       10.8789483820       -7.1346307298  CLST         393          1.0000000000
      1180       394  TIP3  OH2           1.2930495612        6.7234724941        5.2347842781  CLST         394          1.0000000000
      1181       394  TIP3  H1            0.5186910593        6.8323876471        4.6786762264  CLST         394          1.0000000000
      1182       394  TIP3  H2            1.5548664010        5.9754970281        4.7460096402  CLST         394          1.0000000000
      1183       395  TIP3  OH2          -6.2371429925        7.1689047762        0.1340913866  CLST         395          1.0000000000
      1184       395  TIP3  H1           -5.6866518100        6.4947438207        0.5751871463  CLST         395          1.0000000000
      1185       395  TIP3  H2           -5.3421473430        7.5540232871        0.0249022849  CLST         395          1.0000000000
      1186       396  TIP3  OH2          -3.6386847007        9.2850081742       -2.3626162400  CLST         396          1.0000000000
      1187       396  TIP3  H1           -3.7151319688        8.5080277330       -2.9550759226  CLST         396          1.0000000000
      1188       396  TIP3  H2           -4.4170147895        9.5966017276       -2.8722335423  CLST         396          1.0000000000
      1189       397  TIP3  OH2           2.4549122068      -12.7325749312      -13.2316005198  CLST         397          1.0000000000
      1190       397  TIP3  H1            1.6176422928      -12.2873205374      -13.3503703917  CLST         397          1.0000000000
      1191       397  TIP3  H2            2.6128045984      -11.9400112769      -12.7473004912  CLST         397          1.0000000000
      1192       398  TIP3  OH2           9.0194243280       -4.3285700383        0.8397490734  CLST         398          1.0000000000
      1193       398  TIP3  H1            9.1551600373       -5.3663767962        0.3503303161  CLST         398          1.0000000000
      1194       398  TIP3  H2            8.2129320610       -4.9107548225        0.2212400024  CLST         398          1.0000000000
      1195       399  TIP3  OH2         -14.2228078136       -2.9345347670       13.2344736620  CLST         399          1.0000000000
      1196       399  TIP3  H1          -14.8656944467       -3.6397692371       13.4463587284  CLST         399          1.0000000000
      1197       399  TIP3  H2          -13.7009801585       -3.2164355781       13.9452390902  CLST         399          1.0000000000
      1198       400  TIP3  OH2         -13.3498015380        8.6942615853        4.4225830260  CLST         400          1.0000000000
      1199       400  TIP3  H1          -13.5667060617        9.1523096920        5.2545380157  CLST         400          1.0000000000
      1200       400  TIP3  H2          -13.3467086245        7.9282660890        4.9915651593  CLST         400          1.0000000000
      1201       401  TIP3  OH2           1.4134249749        5.1756871532      -13.5699499345  CLST         401          1.0000000000
      1202       401  TIP3  H1            1.4333075545        5.0307821375      -14.5833164763  CLST         401          1.0000000000
      1203       401  TIP3  H2            1.1135891717        6.0557079469      -13.5605747411  CLST         401          1.0000000000
      1204       402  TIP3  OH2          14.4605224567       -5.0091767079       14.1289023620  CLST         402          1.0000000000
      1205       402  TIP3  H1           13.9222057609       -5.8781032302       14.1078327002  CLST         402          1.0000000000
      1206       402  TIP3  H2           14.7658434057       -5.2547471986       15.0067847833  CLST         402          1.0000000000
      1207       403  TIP3  OH2         -13.0051708085       12.1963018274       -2.6751403240  CLST         403          1.0000000000
      1208       403  TIP3  H1          -13.3448311533       11.7644115597       -3.3291609320  CLST         403          1.0000000000
      1209       403  TIP3  H2          -13.0533809237       12.9846648267       -3.9475218388  CLST         403          1.0000000000
      1210       404  TIP3  OH2           5.2660041649       -3.2103276653        0.2345065721  CLST         404          1.0000000000
      1211       404  TIP3  H1            4.4329332822       -2.7766930252        0.4139844147  CLST         404          1.0000000000
      1212       404  TIP3  H2            5.1636546250       -3.5054845979        1.1497971652  CLST         404          1.0000000000
      1213       405  TIP3  OH2           2.3387291705        8.3417928953       -3.1846370264  CLST         405          1.0000000000
      1214       405  TIP3  H1            1.9345079848        9.2455915343       -3.1933431403  CLST         405          1.0000000000
      1215       405  TIP3  H2            1.4046879495        8.0361873891       -3.2115583038  CLST         405          1.0000000000
      1216       406  TIP3  OH2          -8.8803998291       -2.3534701588       -7.6739575902  CLST         406          1.0000000000
      1217       406  TIP3  H1           -8.6464101354       -1.4497204044       -7.3111287628  CLST         406          1.0000000000
      1218       406  TIP3  H2           -9.7233025439       -2.1313445355       -7.2667824862  CLST         406          1.0000000000
      1219       407  TIP3  OH2           5.3557260862        5.7338297891        4.8076228140  CLST         407          1.0000000000
      1220       407  TIP3  H1            6.1965588668        5.8195634428        5.1796700450  CLST         407          1.0000000000
      1221       407  TIP3  H2            5.6480335714        6.1555564958        4.0057437554  CLST         407          1.0000000000
      1222       408  TIP3  OH2         -14.0731267711       -4.4238074658       -5.5000479070  CLST         408          1.0000000000
      1223       408  TIP3  H1          -13.8807531623       -3.4344416515       -5.5873535950  CLST         408          1.0000000000
      1224       408  TIP3  H2          -14.1877459998       -4.6101840370       -6.4913369008  CLST         408          1.0000000000
      1225       409  TIP3  OH2          -2.2432574654      -12.8664137009        1.2782520512  CLST         409          1.0000000000
      1226       409  TIP3  H1           -2.7310818627      -13.2645531685        2.0443249735  CLST         409          1.0000000000
      1227       409  TIP3  H2           -1.8803216846      -12.2238321003        1.9357182581  CLST         409          1.0000000000
      1228       410  TIP3  OH2          12.6730791894       -2.2233661105       10.8280175552  CLST         410          1.0000000000
      1229       410  TIP3  H1           12.5147582566       -1.6883406274       10.0590681351  CLST         410          1.0000000000
      1230       410  TIP3  H2           12.9623964100       -2.9014286812       10.2131810199  CLST         410          1.0000000000
      1231       411  TIP3  OH2           8.7518583505      -13.6049362717       -2.3577920152  CLST         411          1.0000000000
      1232       411  TIP3  H1            8.7703410702      -13.8163777705       -1.4249145606  CLST         411          1.0000000000
      1233       411  TIP3  H2            8.3267971130      -14.4755895402       -2.4917042034  CLST         411          1.0000000000
      1234       412  TIP3  OH2          13.1839763146       -4.6697591096       -7.6910077776  CLST         412          1.0000000000
      1235       412  TIP3  H1           12.5457947855       -4.3667515386       -8.0666016283  CLST         412          1.0000000000
      1236       412  TIP3  H2           12.3029424786       -4.2366824627       -7.0715189342  CLST         412          1.0000000000
      1237       413  TIP3  OH2           7.4093196992        8.3911660506       -5.3321922094  CLST         413          1.0000000000
      1238       413  TIP3  H1            7.5842074312        8.1262772989       -4.4047846892  CLST         413          1.0000000000
      1239       413  TIP3  H2            8.3952085619        8.4654041901       -5.4251795596  CLST         413          1.0000000000
      1240       414  TIP3  OH2          -9.0726894097       -5.3279660747      -11.8518703400  CLST         414          1.0000000000
      1241       414  TIP3  H1           -8.4680875335       -4.4184787107      -12.1407738649  CLST         414          1.0000000000
      1242       414  TIP3  H2           -8.9112284278       -4.3700975558      -11.2526895934  CLST         414          1.0000000000
      1243       415  TIP3  OH2         -14.1801192816        0.9665871536        5.2295729243  CLST         415          1.0000000000
      1244       415  TIP3  H1          -14.4568365422        1.8994706408        5.5038205123  CLST         415          1.0000000000
      1245       415  TIP3  H2          -13.9736153583        0.9309824765        6.1701472705  CLST         415          1.0000000000
      1246       416  TIP3  OH2          11.5347984395       12.3652388655       -2.0256932188  CLST         416          1.0000000000
      1247       416  TIP3  H1           12.2417659902       12.7736781398       -2.8082238292  CLST         416          1.0000000000
      1248       416  TIP3  H2           11.2068998517       12.6768604658       -2.7314949937  CLST         416          1.0000000000
      1249       417  TIP3  OH2          10.5347210784      -12.4836051212       -5.2609625118  CLST         417          1.0000000000
      1250       417  TIP3  H1            9.9588057699      -12.9897598234       -4.6808118453  CLST         417          1.0000000000
      1251       417  TIP3  H2            9.8326245988      -12.3599667623       -5.8595963822  CLST         417          1.0000000000
      1252       418  TIP3  OH2          -1.6603551071        5.1540609585        0.7662388151  CLST         418          1.0000000000
      1253       418  TIP3  H1           -1.9154717242        4.9874910854       -0.2234023976  CLST         418          1.0000000000
      1254       418  TIP3  H2           -2.4167886510        4.7497725855        1.1160001290  CLST         418          1.0000000000
      1255       419  TIP3  OH2          -8.2398982841        9.4310264401        7.9477795741  CLST         419          1.0000000000
      1256       419  TIP3  H1           -8.1879403337       10.5075239240        7.8320834880  CLST         419          1.0000000000
      1257       419  TIP3  H2           -9.0155630802       10.1122171198        7.4076184138  CLST         419          1.0000000000
      1258       420  TIP3  OH2           3.3158221665        9.1347643808      -14.0993854790  CLST         420          1.0000000000
      1259       420  TIP3  H1            3.9919489473        9.1191687284      -13.3812228498  CLST         420          1.0000000000
      1260       420  TIP3  H2            3.6150742962        8.2588459538      -14.4166879985  CLST         420          1.0000000000
      1261       421  TIP3  OH2          -3.8966766357        6.8469375685       -3.6374970318  CLST         421          1.0000000000
      1262       421  TIP3  H1           -4.5733804450        6.2940226849       -4.0614825542  CLST         421          1.0000000000
      1263       421  TIP3  H2           -3.2348813086        6.1561078388       -3.6864955754  CLST         421          1.0000000000
      1264       422  TIP3  OH2           3.1629079850      -10.6184477557       -2.5439644146  CLST         422          1.0000000000
      1265       422  TIP3  H1            2.7812742578      -11.2690981174       -1.9341568256  CLST         422          1.0000000000
      1266       422  TIP3  H2            2.9559886507      -10.0884781633       -1.7627063352  CLST         422          1.0000000000
      1267       423  TIP3  OH2          -5.5437193393        5.2268890458        1.7875530463  CLST         423          1.0000000000
      1268       423  TIP3  H1           -5.0281626933        4.3747372474        1.6552401145  CLST         423          1.0000000000
      1269       423  TIP3  H2           -4.9023764992        5.2270642792        2.5588931187  CLST         423          1.0000000000
      1270       424  TIP3  OH2          -9.6559783295        8.5712129331        4.8359032232  CLST         424          1.0000000000
      1271       424  TIP3  H1           -9.3479693560        8.9618614086        3.9883798528  CLST         424          1.0000000000
      1272       424  TIP3  H2          -10.1719503360        7.9939157311        4.2704062960  CLST         424          1.0000000000
      1273       425  TIP3  OH2          -9.7735092179        2.5543720903       -9.0531455461  CLST         425          1.0000000000
      1274       425  TIP3  H1          -10.2775629350        1.7773894284       -8.8976216247  CLST         425          1.0000000000
      1275       425  TIP3  H2          -10.4522722419        3.0316403899       -8.5431969863  CLST         425          1.0000000000
      1276       426  TIP3  OH2          -1.0442314536       -9.0892984600       -4.2220540037  CLST         426          1.0000000000
      1277       426  TIP3  H1           -0.0722814447       -9.2215127421       -4.2890149333  CLST         426          1.0000000000
      1278       426  TIP3  H2           -0.9918595318       -9.2015553104       -5.2263490074  CLST         426          1.0000000000
      1279       427  TIP3  OH2          -9.7826706978        2.2059389371        5.1598962543  CLST         427          1.0000000000
      1280       427  TIP3  H1           -9.9054127944        3.2051720879        5.0769736246  CLST         427          1.0000000000
      1281       427  TIP3  H2          -10.6187030769        2.0146559126        5.6183276858  CLST         427          1.0000000000
      1282       428  TIP3  OH2          -6.5387070737       13.7085343304        6.7976862951  CLST         428          1.0000000000
      1283       428  TIP3  H1           -6.0929210387       14.3999047872        6.3090154926  CLST         428          1.0000000000
      1284       428  TIP3  H2           -6.3121896868       13.0919809143        6.0978712881  CLST         428          1.0000000000
      1285       429  TIP3  OH2           0.2861948927      -11.5623093449      -10.6438062290  CLST         429          1.0000000000
      1286       429  TIP3  H1           -0.7280359686      -12.0593911144      -10.6421399782  CLST         429          1.0000000000
      1287       429  TIP3  H2           -0.4634458533      -11.5455506015       -9.8431770713  CLST         429          1.0000000000
      1288       430  TIP3  OH2           0.6052379177        9.9539245652        9.9977662362  CLST         430          1.0000000000
      1289       430  TIP3  H1           -0.0606247035       10.4489469426       10.5066252321  CLST         430          1.0000000000
      1290       430  TIP3  H2            1.0941272527        9.7509229490       10.7667419782  CLST         430          1.0000000000
      1291       431  TIP3  OH2          -5.9238505371       -3.4534332640       -4.0813295812  CLST         431          1.0000000000
      1292       431  TIP3  H1           -5.4572879467       -3.4950898844       -4.8937462695  CLST         431          1.0000000000
      1293       431  TIP3  H2           -6.7135388577       -3.6402967271       -4.6096217562  CLST         431          1.0000000000
      1294       432  TIP3  OH2          -5.4109205586        3.7736684901       -3.6571741334  CLST         432          1.0000000000
      1295       432  TIP3  H1           -6.4706999315        4.0487056027       -3.8797317864  CLST         432          1.0000000000
      1296       432  TIP3  H2           -5.9935659053        4.6471754117       -3.2546390780  CLST         432          1.0000000000
      1297       433  TIP3  OH2          -8.7147951662        3.0744837444       10.3680229082  CLST         433          1.0000000000
      1298       433  TIP3  H1           -8.1291437221        3.7696946948        9.9537784825  CLST         433          1.0000000000
      1299       433  TIP3  H2           -8.8573799750        3.6857748601       11.0856917912  CLST         433          1.0000000000
      1300       434  TIP3  OH2           1.0174215185       -4.2153462873        9.7422256956  CLST         434          1.0000000000
      1301       434  TIP3  H1            0.2832922566       -4.0223214739       10.3596413264  CLST         434          1.0000000000
      1302       434  TIP3  H2            1.2642988542       -3.2716450430        9.6717213733  CLST         434          1.0000000000
      1303       435  TIP3  OH2           7.7183278087       -8.5320559186        6.3196837857  CLST         435          1.0000000000
      1304       435  TIP3  H1            8.1612926820       -9.1072549832        5.7179683869  CLST         435          1.0000000000
      1305       435  TIP3  H2            7.3575156242       -8.1760934474        5.4737128392  CLST         435          1.0000000000
      1306       436  TIP3  OH2          -6.6101544440       14.0777733351       -1.9178836679  CLST         436          1.0000000000
      1307       436  TIP3  H1           -6.2669213422       14.9452624605       -1.8991149786  CLST         436          1.0000000000
      1308       436  TIP3  H2           -6.8546762764       14.1022214603       -0.9937162877  CLST         436          1.0000000000
      1309       437  TIP3  OH2          -0.9549837762      -13.3126917886        5.4419669980  CLST         437          1.0000000000
      1310       437  TIP3  H1           -1.2687454036      -12.4854344219        5.8944095068  CLST         437          1.0000000000
      1311       437  TIP3  H2           -0.0719961374      -12.8956622160        5.6527535415  CLST         437          1.0000000000
      1312       438  TIP3  OH2         -12.1244445395       -1.0226062008       -3.1046343644  CLST         438          1.0000000000
      1313       438  TIP3  H1          -12.1019920001       -1.6930550298       -2.4136921678  CLST         438          1.0000000000
      1314       438  TIP3  H2          -12.5677282443       -0.4908056147       -2.4367461768  CLST         438          1.0000000000
      1315       439  TIP3  OH2          -3.9069816394       -3.4824683665        3.4248448133  CLST         439          1.0000000000
      1316       439  TIP3  H1           -4.7008846727       -3.2841278373        3.9710539045  CLST         439          1.0000000000
      1317       439  TIP3  H2           -4.5299281506       -4.2576599778        3.2185564058  CLST         439          1.0000000000
      1318       440  TIP3  OH2          -9.9740375653      -11.2967034079       12.0760406490  CLST         440          1.0000000000
      1319       440  TIP3  H1           -9.8750713369      -11.5421844594       11.1475248471  CLST         440          1.0000000000
      1320       440  TIP3  H2           -9.3358870495      -10.5575214620       11.7329413748  CLST         440          1.0000000000
      1321       441  TIP3  OH2         -14.1415605575        3.6392306811        6.9449865807  CLST         441          1.0000000000
      1322       441  TIP3  H1          -14.3240783205        4.4266246438        7.0539824091  CLST         441          1.0000000000
      1323       441  TIP3  H2          -15.0650812403        4.1078045479        6.4473962826  CLST         441          1.0000000000
      1324       442  TIP3  OH2           9.2663195630        0.5402789139      -12.3549046563  CLST         442          1.0000000000
      1325       442  TIP3  H1            9.6235748766       -0.2894691139      -11.9736193651  CLST         442          1.0000000000
      1326       442  TIP3  H2           10.1664577173        0.7049397536      -12.7440042898  CLST         442          1.0000000000
      1327       443  TIP3  OH2           8.1354168521       -8.4920901515        3.9293585402  CLST         443          1.0000000000
      1328       443  TIP3  H1            8.7537630094       -8.0726426259        3.3366514530  CLST         443          1.0000000000
      1329       443  TIP3  H2            7.6614819114       -7.9325303164        3.0356302251  CLST         443          1.0000000000
      1330       444  TIP3  OH2          12.7535627262        8.1509152634       -0.1949283050  CLST         444          1.0000000000
      1331       444  TIP3  H1           12.8872906874        9.0343693283        0.1159585612  CLST         444          1.0000000000
      1332       444  TIP3  H2           13.6051071933        7.9399481936        0.1388196771  CLST         444          1.0000000000
      1333       445  TIP3  OH2          -8.8550404546       -9.6819972410       14.1983109818  CLST         445          1.0000000000
      1334       445  TIP3  H1           -8.4462894362       -9.3576580673       13.4068537751  CLST         445          1.0000000000
      1335       445  TIP3  H2           -8.7371789408       -8.8416097629       14.5579168233  CLST         445          1.0000000000
      1336       446  TIP3  OH2          12.8295412569       10.8573544147        0.0167542402  CLST         446          1.0000000000
      1337       446  TIP3  H1           12.2176014534       11.4568983481        0.5940559749  CLST         446          1.0000000000
      1338       446  TIP3  H2           12.5038810593       11.4171868406       -0.7052687470  CLST         446          1.0000000000
      1339       447  TIP3  OH2          -3.4868312719       13.5054500542        4.9015964965  CLST         447          1.0000000000
      1340       447  TIP3  H1           -3.8709406644       14.3229886392        5.2188447414  CLST         447          1.0000000000
      1341       447  TIP3  H2           -4.3389411404       13.0624856133        4.7374765081  CLST         447          1.0000000000
      1342       448  TIP3  OH2         -10.5302449109        9.1826230909      -12.8877270078  CLST         448          1.0000000000
      1343       448  TIP3  H1           -9.9641146615        9.1864917789      -12.0946350636  CLST         448          1.0000000000
      1344       448  TIP3  H2          -10.0734128538        8.2935516153      -12.9694098459  CLST         448          1.0000000000
      1345       449  TIP3  OH2           5.0892396367       -7.8460607919       -5.7891488095  CLST         449          1.0000000000
      1346       449  TIP3  H1            5.1386647401       -8.6491872715       -5.1768097074  CLST         449          1.0000000000
      1347       449  TIP3  H2            4.5643791436       -7.5089229083       -5.0729848700  CLST         449          1.0000000000
      1348       450  TIP3  OH2           4.8479066464       10.3396685533       11.5542849567  CLST         450          1.0000000000
      1349       450  TIP3  H1            5.6322032858        9.8474184204       11.7704501588  CLST         450          1.0000000000
      1350       450  TIP3  H2            4.6828878810        9.8582757205       10.6606763717  CLST         450          1.0000000000
      1351       451  TIP3  OH2         -12.5391215576       10.9468043333      -12.4768275209  CLST         451          1.0000000000
      1352       451  TIP3  H1          -12.3507832149       11.3684001960      -13.3096545915  CLST         451          1.0000000000
      1353       451  TIP3  H2          -11.7117660045       10.4786521645      -12.6772971292  CLST         451          1.0000000000
      1354       452  TIP3  OH2          -9.9602517264       14.5644590226        1.7078165015  CLST         452          1.0000000000
      1355       452  TIP3  H1          -10.7303227411       14.1738953786        2.0731351472  CLST         452          1.0000000000
      1356       452  TIP3  H2          -10.3948398753       14.4963244973        0.8751229070  CLST         452          1.0000000000
      1357       453  TIP3  OH2          -3.1690203057       -8.4389828315      -13.6082571828  CLST         453          1.0000000000
      1358       453  TIP3  H1           -4.1240864123       -8.7598269645      -13.5122418363  CLST         453          1.0000000000
      1359       453  TIP3  H2           -3.1222107845       -9.0042300217      -14.4041649070  CLST         453          1.0000000000
      1360       454  TIP3  OH2          13.7048994979      -13.0984483376       11.2040819576  CLST         454          1.0000000000
      1361       454  TIP3  H1           14.5670688665      -13.1144689939       11.7361616448  CLST         454          1.0000000000
      1362       454  TIP3  H2           13.6110884622      -12.3328037006       11.7861723299  CLST         454          1.0000000000
      1363       455  TIP3  OH2         -13.0722973317       -9.5519111832       -4.7014486787  CLST         455          1.0000000000
      1364       455  TIP3  H1          -13.3330572138       -8.6577004569       -4.5392271057  CLST         455          1.0000000000
      1365       455  TIP3  H2          -12.5314087037       -9.4211535950       -3.9287357947  CLST         455          1.0000000000
      1366       456  TIP3  OH2          -7.8889193665        7.0871261276        6.5027951492  CLST         456          1.0000000000
      1367       456  TIP3  H1           -8.0109824422        7.8667173900        7.0897959606  CLST         456          1.0000000000
      1368       456  TIP3  H2           -8.3258587307        7.6458389582        5.8569712689  CLST         456          1.0000000000
      1369       457  TIP3  OH2          -3.9172558970      -12.8861912992        8.1316218301  CLST         457          1.0000000000
      1370       457  TIP3  H1           -3.8628935445      -12.9578501700        9.0652884436  CLST         457          1.0000000000
      1371       457  TIP3  H2           -3.0366663698      -13.2267595852        8.0817918931  CLST         457          1.0000000000
      1372       458  TIP3  OH2          -2.3078956149       12.0803014119      -11.7220966619  CLST         458          1.0000000000
      1373       458  TIP3  H1           -3.2478724030       11.8676447251      -11.7881082407  CLST         458          1.0000000000
      1374       458  TIP3  H2           -2.1439740781       11.2368757687      -12.2075871544  CLST         458          1.0000000000
      1375       459  TIP3  OH2         -13.7149881366        7.1855257255       -3.9403339188  CLST         459          1.0000000000
      1376       459  TIP3  H1          -13.8147045211        7.7911908094       -3.1647324814  CLST         459          1.0000000000
      1377       459  TIP3  H2          -13.2128916233        7.8445266759       -4.4261252640  CLST         459          1.0000000000
      1378       460  TIP3  OH2           7.0631343371        9.6633423298      -13.9909805569  CLST         460          1.0000000000
      1379       460  TIP3  H1            6.5287943072        9.5636989213      -13.2248299655  CLST         460          1.0000000000
      1380       460  TIP3  H2            6.8369812252       10.5718757275      -14.1445279587  CLST         460          1.0000000000
      1381       461  TIP3  OH2           0.3754735858        7.4421983676      -12.7485062915  CLST         461          1.0000000000
      1382       461  TIP3  H1           -0.4715812175        7.2361232984      -12.3536388088  CLST         461          1.0000000000
      1383       461  TIP3  H2            0.4711926911        8.0504642188      -11.9751035807  CLST         461          1.0000000000
      1384       462  TIP3  OH2           4.2632851728        7.5604696657      -10.3343407617  CLST         462          1.0000000000
      1385       462  TIP3  H1            3.5324263051        6.9687172130      -10.4638821083  CLST         462          1.0000000000
      1386       462  TIP3  H2            4.2132167678        7.4129782607       -9.3886140492  CLST         462          1.0000000000
      1387       463  TIP3  OH2          -1.2205519586      -11.3766861311       -8.2451664544  CLST         463          1.0000000000
      1388       463  TIP3  H1           -2.1831884098      -11.6320411377       -8.3052227603  CLST         463          1.0000000000
      1389       463  TIP3  H2           -1.3442566173      -11.5284745070       -7.3001663051  CLST         463          1.0000000000
      1390       464  TIP3  OH2          -2.3101107333        2.6152378079       14.2426703428  CLST         464          1.0000000000
      1391       464  TIP3  H1           -3.1423120683        2.6284164910       13.7767475951  CLST         464          1.0000000000
      1392       464  TIP3  H2           -2.2471345673        3.5419010883       14.0363741039  CLST         464          1.0000000000
      1393       465  TIP3  OH2         -14.8316837838        5.9304668179        7.9913078564  CLST         465          1.0000000000
      1394       465  TIP3  H1          -14.8440348873        5.7724908811        8.9425131658  CLST         465          1.0000000000
      1395       465  TIP3  H2          -14.9398128247        6.8973928207        8.0787418938  CLST         465          1.0000000000
      1396       466  TIP3  OH2          -4.0956421852      -13.4450069651        3.2552320596  CLST         466          1.0000000000
      1397       466  TIP3  H1           -4.7249174913      -14.0612204999        3.5592990540  CLST         466          1.0000000000
      1398       466  TIP3  H2           -4.8362880886      -13.0163020883        2.7624749026  CLST         466          1.0000000000
      1399       467  TIP3  OH2           4.4447284659       14.9216851948        8.2979102031  CLST         467          1.0000000000
      1400       467  TIP3  H1            5.2361187695       14.4285796305        8.6775205545  CLST         467          1.0000000000
      1401       467  TIP3  H2            4.1532360420       15.0515823069        9.1943164101  CLST         467          1.0000000000
      1402       468  TIP3  OH2          -8.4082708631       -0.8789398864        1.8466923535  CLST         468          1.0000000000
      1403       468  TIP3  H1           -8.7279702144       -0.9816216771        2.7528128654  CLST         468          1.0000000000
      1404       468  TIP3  H2           -9.1255926089       -1.4416550321        1.5463027408  CLST         468          1.0000000000
      1405       469  TIP3  OH2           6.8927270649        0.7663867298       14.6086134094  CLST         469          1.0000000000
      1406       469  TIP3  H1            6.1253173443        0.5948763576       14.0168713019  CLST         469          1.0000000000
      1407       469  TIP3  H2            6.8486718419        1.6549491390       14.3089099829  CLST         469          1.0000000000
      1408       470  TIP3  OH2           1.0394269281       11.6190673756       -8.6204344762  CLST         470          1.0000000000
      1409       470  TIP3  H1            1.5475507817       12.4343737207       -8.6840133114  CLST         470          1.0000000000
      1410       470  TIP3  H2            1.8201020724       11.3082538143       -8.1600784658  CLST         470          1.0000000000
      1411       471  TIP3  OH2           5.2955720483        5.5944025618       -2.2259798695  CLST         471          1.0000000000
      1412       471  TIP3  H1            4.6571953245        5.8904776809       -2.8490379855  CLST         471          1.0000000000
      1413       471  TIP3  H2            4.6237524413        5.9590385942       -1.6075376521  CLST         471          1.0000000000
      1414       472  TIP3  OH2           5.2054920649      -12.1425171033       -7.0587526887  CLST         472          1.0000000000
      1415       472  TIP3  H1            4.9119380366      -12.9153000502       -7.5951081308  CLST         472          1.0000000000
      1416       472  TIP3  H2            5.4399331462      -12.8382687195       -6.3973154471  CLST         472          1.0000000000
      1417       473  TIP3  OH2          -4.0848475482        2.9159084377        1.1331310770  CLST         473          1.0000000000
      1418       473  TIP3  H1           -3.3084199618        2.4246369869        0.9261356382  CLST         473          1.0000000000
      1419       473  TIP3  H2           -4.5924237931        2.4507119637        0.4614043058  CLST         473          1.0000000000
      1420       474  TIP3  OH2           8.2999160250        4.6064827228        7.7071130324  CLST         474          1.0000000000
      1421       474  TIP3  H1            7.6908343472        3.9778189930        7.0197271846  CLST         474          1.0000000000
      1422       474  TIP3  H2            8.6453431654        4.0951016701        6.7795061637  CLST         474          1.0000000000
      1423       475  TIP3  OH2           6.1221002432       -4.2738238477       -7.7954881271  CLST         475          1.0000000000
      1424       475  TIP3  H1            5.7178001958       -3.7652620287       -8.4897245873  CLST         475          1.0000000000
      1425       475  TIP3  H2            6.9112516799       -4.0892658080       -8.3115343489  CLST         475          1.0000000000
      1426       476  TIP3  OH2           3.2752647315       10.1539849424       -7.9836246757  CLST         476          1.0000000000
      1427       476  TIP3  H1            3.7873312839        9.3719114881       -7.9277617514  CLST         476          1.0000000000
      1428       476  TIP3  H2            2.9315961304       10.1997036803       -7.0745921213  CLST         476          1.0000000000
      1429       477  TIP3  OH2          -7.2639088209       -3.4185189228       -9.9954130166  CLST         477          1.0000000000
      1430       477  TIP3  H1           -6.6662620465       -3.0000440567      -10.5599058972  CLST         477          1.0000000000
      1431       477  TIP3  H2           -6.6145158113       -3.5959618736       -9.3529063282  CLST         477          1.0000000000
      1432       478  TIP3  OH2           0.9538044014       -4.9599131694      -12.5708759291  CLST         478          1.0000000000
      1433       478  TIP3  H1            1.2486890553       -5.8696968738      -12.4366590163  CLST         478          1.0000000000
      1434       478  TIP3  H2            1.6683515634       -4.7791147126      -11.9088396017  CLST         478          1.0000000000
      1435       479  TIP3  OH2           0.0725531417       -1.5232118682       -7.3043269622  CLST         479          1.0000000000
      1436       479  TIP3  H1            0.4013322665       -1.2809923123       -6.4341758696  CLST         479          1.0000000000
      1437       479  TIP3  H2            0.9468665812       -1.4042128155       -7.7094438368  CLST         479          1.0000000000
      1438       480  TIP3  OH2           5.6580808629       -1.1362838434        9.1456810008  CLST         480          1.0000000000
      1439       480  TIP3  H1            6.2378635664       -1.7685874039        8.7227730472  CLST         480          1.0000000000
      1440       480  TIP3  H2            6.3563032024       -0.5133514032        8.9770798949  CLST         480          1.0000000000
      1441       481  TIP3  OH2          -6.9498394934        2.1117498845       -5.7235320321  CLST         481          1.0000000000
      1442       481  TIP3  H1           -7.2147873629        2.8815719069       -6.2412228873  CLST         481          1.0000000000
      1443       481  TIP3  H2           -6.0805414194        2.4992807428       -5.8376823996  CLST         481          1.0000000000
      1444       482  TIP3  OH2           3.6381453559       -8.0457347209        4.2158769582  CLST         482          1.0000000000
      1445       482  TIP3  H1            4.2421030235       -7.3884488954        4.6608533507  CLST         482          1.0000000000
      1446       482  TIP3  H2            3.0436432361       -7.2627921950        4.1736264567  CLST         482          1.0000000000
      1447       483  TIP3  OH2         -15.0698163604        0.2049401907       -8.1700059108  CLST         483          1.0000000000
      1448       483  TIP3  H1          -14.6156740382       -0.6552845833       -8.1421275575  CLST         483          1.0000000000
      1449       483  TIP3  H2          -14.3340545680        0.5758770404       -7.6772464686  CLST         483          1.0000000000
      1450       484  TIP3  OH2          14.8241927845       -2.4450029715       -8.9139408587  CLST         484          1.0000000000
      1451       484  TIP3  H1           14.3657466089       -3.2090579345       -8.5125031347  CLST         484          1.0000000000
      1452       484  TIP3  H2           14.0795844556       -1.9406019827       -9.2241522002  CLST         484          1.0000000000
      1453       485  TIP3  OH2          -3.5905274970        5.3257582816        3.7621817629  CLST         485          1.0000000000
      1454       485  TIP3  H1           -2.8272995675        4.8335166841        4.1158231919  CLST         485          1.0000000000
      1455       485  TIP3  H2           -3.8580296214        5.5391466864        4.6773030610  CLST         485          1.0000000000
      1456       486  TIP3  OH2          11.2253347590       12.6983580062       -9.1953692446  CLST         486          1.0000000000
      1457       486  TIP3  H1           12.0624682401       12.5215193625       -8.7411492261  CLST         486          1.0000000000
      1458       486  TIP3  H2           11.4176219436       11.9935704994       -9.8309192310  CLST         486          1.0000000000
      1459       487  TIP3  OH2           2.2568986035       -5.7631237710        3.5937167343  CLST         487          1.0000000000
      1460       487  TIP3  H1            2.6246390949       -4.9155231357        3.9532693601  CLST         487          1.0000000000
      1461       487  TIP3  H2            1.8760623282       -5.2184973963        2.8834895227  CLST         487          1.0000000000
      1462       488  TIP3  OH2         -11.7408665192       -0.4879653830       11.0170302995  CLST         488          1.0000000000
      1463       488  TIP3  H1          -11.8557280164        0.3433770032       11.0099425336  CLST         488          1.0000000000
      1464       488  TIP3  H2          -11.1220193667       -0.1044571439       10.5915879737  CLST         488          1.0000000000
      1465       489  TIP3  OH2          -8.6387178470        8.1542310583       -4.7522649885  CLST         489          1.0000000000
      1466       489  TIP3  H1           -8.7824052045        8.4532185692       -3.8335028504  CLST         489          1.0000000000
      1467       489  TIP3  H2           -7.9426775010        7.6181426937       -4.3700436655  CLST         489          1.0000000000
      1468       490  TIP3  OH2         -11.0430761475       11.3963434822        5.2776597740  CLST         490          1.0000000000
      1469       490  TIP3  H1          -11.3010850851       10.4745459096        5.2059622840  CLST         490          1.0000000000
      1470       490  TIP3  H2          -10.5170325822       11.2073757034        4.5128227695  CLST         490          1.0000000000
      1471       491  TIP3  OH2          -1.1047986465      -10.0260821046       10.8564968191  CLST         491          1.0000000000
      1472       491  TIP3  H1           -0.5479357733      -10.1850093622       10.1029909486  CLST         491          1.0000000000
      1473       491  TIP3  H2           -0.4374998312       -9.4972077486       11.2576975454  CLST         491          1.0000000000
      1474       492  TIP3  OH2          -2.0327320396       10.2749524993        2.8736234916  CLST         492          1.0000000000
      1475       492  TIP3  H1           -1.3340898125       10.9021790884        2.6620810777  CLST         492          1.0000000000
      1476       492  TIP3  H2           -2.6173984499       10.7162438307        2.2527343273  CLST         492          1.0000000000
      1477       493  TIP3  OH2          -6.1363241584       10.3121967087       -2.9099786430  CLST         493          1.0000000000
      1478       493  TIP3  H1           -6.5311103101       10.8299090230       -3.6409120062  CLST         493          1.0000000000
      1479       493  TIP3  H2           -7.1020431301       10.0912359631       -2.7118927151  CLST         493          1.0000000000
      1480       494  TIP3  OH2         -14.0307335577       10.8056024456       12.4408054211  CLST         494          1.0000000000
      1481       494  TIP3  H1          -14.8755575710       10.7422734710       12.0413405691  CLST         494          1.0000000000
      1482       494  TIP3  H2          -13.5124945783       11.3568092743       11.8694189969  CLST         494          1.0000000000
      1483       495  TIP3  OH2           3.3286866072      -12.8384492710       13.5312730183  CLST         495          1.0000000000
      1484       495  TIP3  H1            2.8460492712      -12.8427770746       14.3506491246  CLST         495          1.0000000000
      1485       495  TIP3  H2            3.5216642627      -11.8790300023       13.7084164423  CLST         495          1.0000000000
      1486       496  TIP3  OH2         -14.8830580475        6.4456285057        0.4340091292  CLST         496          1.0000000000
      1487       496  TIP3  H1          -14.1547836105        6.5360667692        1.0371065183  CLST         496          1.0000000000
      1488       496  TIP3  H2          -14.8922888817        5.5289201706        0.6716942881  CLST         496          1.0000000000
      1489       497  TIP3  OH2         -13.2906610199       -8.6902900165        3.1943616213  CLST         497          1.0000000000
      1490       497  TIP3  H1          -14.1612004792       -8.8218921094        2.8108361388  CLST         497          1.0000000000
      1491       497  TIP3  H2          -13.7237681928       -8.5769318271        4.0718264568  CLST         497          1.0000000000
      1492       498  TIP3  OH2           4.2756207290       14.2241118603      -10.6211297371  CLST         498          1.0000000000
      1493       498  TIP3  H1            4.6088245006       13.9147208378      -11.6527435187  CLST         498          1.0000000000
      1494       498  TIP3  H2            5.1405643962       13.5277373187      -10.8718720793  CLST         498          1.0000000000
      1495       499  TIP3  OH2           1.4518344437       11.0008188155       -2.9005243522  CLST         499          1.0000000000
      1496       499  TIP3  H1            0.7350701357       11.5923713674       -2.8070348295  CLST         499          1.0000000000
      1497       499  TIP3  H2            2.0210347597       11.6646952202       -2.4521198104  CLST         499          1.0000000000
      1498       500  TIP3  OH2          -6.2928025333       -2.4884016717        4.3748853005  CLST         500          1.0000000000
      1499       500  TIP3  H1           -7.1978560776       -2.3347598148        4.2415479827  CLST         500          1.0000000000
      1500       500  TIP3  H2           -6.1741558959       -1.6409906907        3.8632793342  CLST         500          1.0000000000
      1501       501  TIP3  OH2         -12.4339342760      -13.4876666607       -6.1848743480  CLST         501          1.0000000000
      1502       501  TIP3  H1          -13.0238834367      -12.9125895343       -6.6320722096  CLST         501          1.0000000000
      1503       501  TIP3  H2          -11.6903283338      -12.8598737528       -6.2855520410  CLST         501          1.0000000000
      1504       502  TIP3  OH2          -1.3469315868       -3.8341578895      -11.6155588473  CLST         502          1.0000000000
      1505       502  TIP3  H1           -1.1209416064       -2.9572222564      -11.5718143809  CLST         502          1.0000000000
      1506       502  TIP3  H2           -0.6059975494       -4.0097271170      -12.2158822143  CLST         502          1.0000000000
      1507       503  TIP3  OH2          -0.4031001990       -4.7325427440        0.9442557431  CLST         503          1.0000000000
      1508       503  TIP3  H1            0.3949185646       -5.2074609416        0.5749865139  CLST         503          1.0000000000
      1509       503  TIP3  H2           -1.1284466442       -5.3267225839        0.7085264524  CLST         503          1.0000000000
      1510       504  TIP3  OH2          -4.1260356418       -3.5470437583       12.6433964556  CLST         504          1.0000000000
      1511       504  TIP3  H1           -4.3928451011       -4.3931870415       13.0244653397  CLST         504          1.0000000000
      1512       504  TIP3  H2           -3.7449425108       -3.1788336149       13.4277024329  CLST         504          1.0000000000
      1513       505  TIP3  OH2           5.9654426396       12.0131392857       -9.2652048956  CLST         505          1.0000000000
      1514       505  TIP3  H1            6.0541053547       11.8083758958       -8.3156018356  CLST         505          1.0000000000
      1515       505  TIP3  H2            6.8597305550       12.4113401694       -9.2704045991  CLST         505          1.0000000000
      1516       506  TIP3  OH2          -4.0265059433        3.7773440992       10.3883481100  CLST         506          1.0000000000
      1517       506  TIP3  H1           -4.8479451148        3.6483257120        9.8601143707  CLST         506          1.0000000000
      1518       506  TIP3  H2           -3.8158322888        2.8917904848       10.6321179465  CLST         506          1.0000000000
      1519       507  TIP3  OH2          -2.1559100757        7.0029793270      -12.7009471331  CLST         507          1.0000000000
      1520       507  TIP3  H1           -2.4208191526        6.0949202209      -12.6299450901  CLST         507          1.0000000000
      1521       507  TIP3  H2           -3.0656542612        7.2549128065      -12.9545987738  CLST         507          1.0000000000
      1522       508  TIP3  OH2         -11.2171411459        4.9524391534      -11.3850985541  CLST         508          1.0000000000
      1523       508  TIP3  H1          -12.3082863337        4.6910435763      -11.0300675081  CLST         508          1.0000000000
      1524       508  TIP3  H2          -11.6983036123        4.0798370055      -11.6400641439  CLST         508          1.0000000000
      1525       509  TIP3  OH2           4.7571870260        0.3525172310      -10.9100591860  CLST         509          1.0000000000
      1526       509  TIP3  H1            5.4544256360        0.7008295203      -10.4447721465  CLST         509          1.0000000000
      1527       509  TIP3  H2            5.3148116288        0.0842831488      -11.6676010170  CLST         509          1.0000000000
      1528       510  TIP3  OH2          -4.6087305698        0.2536288724       -3.7520632390  CLST         510          1.0000000000
      1529       510  TIP3  H1           -4.8796838462       -0.3748380036       -4.4409873132  CLST         510          1.0000000000
      1530       510  TIP3  H2           -3.9392939229        0.4878387240       -4.3793271466  CLST         510          1.0000000000
      1531       511  TIP3  OH2         -10.5669437246        1.6297753178       -1.0101355487  CLST         511          1.0000000000
      1532       511  TIP3  H1          -11.1538362560        2.1536204407       -0.3918167523  CLST         511          1.0000000000
      1533       511  TIP3  H2          -11.1430880464        0.9288815345       -0.7728790138  CLST         511          1.0000000000
      1534       512  TIP3  OH2          -3.1681745693       -8.0487636379       -8.5302705977  CLST         512          1.0000000000
      1535       512  TIP3  H1           -2.6788401603       -8.6845678804       -9.0889173769  CLST         512          1.0000000000
      1536       512  TIP3  H2           -2.7946592666       -7.3633047769       -9.1157994601  CLST         512          1.0000000000
      1537       513  TIP3  OH2           9.6340219998       13.9311334738       11.4584973717  CLST         513          1.0000000000
      1538       513  TIP3  H1            9.4166092943       14.8094873379       11.1571335712  CLST         513          1.0000000000
      1539       513  TIP3  H2            9.3594420577       13.6322264083       10.5785971661  CLST         513          1.0000000000
      1540       514  TIP3  OH2          -4.7393686525        7.7838301714      -12.9716008624  CLST         514          1.0000000000
      1541       514  TIP3  H1           -5.3648616391        7.8044640385      -13.6792719536  CLST         514          1.0000000000
      1542       514  TIP3  H2           -5.4899967029        8.1697209446      -12.5072094519  CLST         514          1.0000000000
      1543       515  TIP3  OH2           6.1526521153        6.2876591252       -6.0116960124  CLST         515          1.0000000000
      1544       515  TIP3  H1            5.8317983857        5.9674669964       -5.1956246507  CLST         515          1.0000000000
      1545       515  TIP3  H2            6.8692906348        6.6291283922       -5.4681808259  CLST         515          1.0000000000
      1546       516  TIP3  OH2           9.6041454951        0.1344781957       -7.9571969494  CLST         516          1.0000000000
      1547       516  TIP3  H1           10.5194541153        0.2143459955       -7.7101108079  CLST         516          1.0000000000
      1548       516  TIP3  H2            9.3746674163        1.0839678234       -7.9021725446  CLST         516          1.0000000000
      1549       517  TIP3  OH2          13.8109001261       -6.9064454242       -9.0762186275  CLST         517          1.0000000000
      1550       517  TIP3  H1           13.6639136564       -5.9773741793       -8.8337720669  CLST         517          1.0000000000
      1551       517  TIP3  H2           14.4449453030       -6.9045813019       -8.3792767193  CLST         517          1.0000000000
      1552       518  TIP3  OH2          -0.6511014093       12.1793004603       -6.1729878493  CLST         518          1.0000000000
      1553       518  TIP3  H1            0.2234356908       12.0654193009       -5.9831794802  CLST         518          1.0000000000
      1554       518  TIP3  H2           -0.6841190325       12.7879766090       -5.4503123000  CLST         518          1.0000000000
      1555       519  TIP3  OH2           0.9129409187        4.8542048488        0.9999141069  CLST         519          1.0000000000
      1556       519  TIP3  H1            0.4806982959        4.0760205233        0.7102169146  CLST         519          1.0000000000
      1557       519  TIP3  H2            0.1185352118        5.2482458254        0.6098066198  CLST         519          1.0000000000
      1558       520  TIP3  OH2           6.7860751487        6.5661305734      -10.5135958428  CLST         520          1.0000000000
      1559       520  TIP3  H1            5.9007322192        6.8890834658      -10.7210302153  CLST         520          1.0000000000
      1560       520  TIP3  H2            6.8838997279        7.3438490576       -9.9704204901  CLST         520          1.0000000000
      1561       521  TIP3  OH2          -5.7043338472       10.0111903447        9.5838282933  CLST         521          1.0000000000
      1562       521  TIP3  H1           -4.8127314143       10.1798402706        9.9957884737  CLST         521          1.0000000000
      1563       521  TIP3  H2           -5.2230267986       10.0757182676        8.7725847369  CLST         521          1.0000000000
      1564       522  TIP3  OH2           3.1444959691        3.8760241724        2.1315576157  CLST         522          1.0000000000
      1565       522  TIP3  H1            2.2650017469        4.2074503817        1.9998064959  CLST         522          1.0000000000
      1566       522  TIP3  H2            3.0430586574        3.4851522795        1.2811994123  CLST         522          1.0000000000
      1567       523  TIP3  OH2           8.4299855546        0.6877357725       -3.4630214606  CLST         523          1.0000000000
      1568       523  TIP3  H1            7.4759455030        0.6276806155       -3.6961007215  CLST         523          1.0000000000
      1569       523  TIP3  H2            8.6715725372       -0.0299456486       -4.0442576875  CLST         523          1.0000000000
      1570       524  TIP3  OH2          -5.3261044761        5.5322809853      -10.5910152171  CLST         524          1.0000000000
      1571       524  TIP3  H1           -4.9715826769        6.2106907747      -11.1870852537  CLST         524          1.0000000000
      1572       524  TIP3  H2           -4.6000258613        4.9684973299      -10.9158469382  CLST         524          1.0000000000
      1573       525  TIP3  OH2          -5.6877439643        5.6614486963       -7.8300098985  CLST         525          1.0000000000
      1574       525  TIP3  H1           -5.1345469776        6.4342048533       -8.1557659388  CLST         525          1.0000000000
      1575       525  TIP3  H2           -5.5420350137        5.3443557465       -8.7415849006  CLST         525          1.0000000000
      1576       526  TIP3  OH2           9.3425315279      -11.1761703302      -12.9394133039  CLST         526          1.0000000000
      1577       526  TIP3  H1            9.6395451802      -10.4889702216      -13.4967511663  CLST         526          1.0000000000
      1578       526  TIP3  H2            8.4630809306      -11.1165746176      -13.4054586981  CLST         526          1.0000000000
      1579       527  TIP3  OH2         -11.6492326655       -3.2256971387       -1.6125952453  CLST         527          1.0000000000
      1580       527  TIP3  H1          -12.3061607289       -3.9006617691       -1.9503183219  CLST         527          1.0000000000
      1581       527  TIP3  H2          -11.0125714256       -3.7579228025       -2.1554697314  CLST         527          1.0000000000
      1582       528  TIP3  OH2           4.8378104169      -11.9695121613      -10.7926365837  CLST         528          1.0000000000
      1583       528  TIP3  H1            4.3290621767      -11.1731664655      -10.8996566854  CLST         528          1.0000000000
      1584       528  TIP3  H2            5.5381095297      -11.3753947135      -11.1702252682  CLST         528          1.0000000000
      1585       529  TIP3  OH2          -6.0411145585       -7.2807102083       -4.6973287862  CLST         529          1.0000000000
      1586       529  TIP3  H1           -5.3861756397       -7.9192038419       -5.0149119628  CLST         529          1.0000000000
      1587       529  TIP3  H2           -5.9198364188       -6.7644544568       -5.5024064800  CLST         529          1.0000000000
      1588       530  TIP3  OH2           2.9479416677       -5.6787311173        6.6222000044  CLST         530          1.0000000000
      1589       530  TIP3  H1            2.4772834334       -6.1976612148        7.2566680358  CLST         530          1.0000000000
      1590       530  TIP3  H2            2.0884298544       -5.5054284566        6.1284965519  CLST         530          1.0000000000
      1591       531  TIP3  OH2          -3.2000293826       -3.0793953392      -15.0698163604  CLST         531          1.0000000000
      1592       531  TIP3  H1           -4.0001185541       -2.5955136180      -15.0153405413  CLST         531          1.0000000000
      1593       531  TIP3  H2           -2.7380237905       -2.4638296033      -14.4984227225  CLST         531          1.0000000000
      1594       532  TIP3  OH2          -1.3613513411       -3.6468466290       -2.0295023376  CLST         532          1.0000000000
      1595       532  TIP3  H1           -2.0195261361       -2.9234662054       -2.1934515222  CLST         532          1.0000000000
      1596       532  TIP3  H2           -1.7356462117       -3.7136490993       -1.1648327545  CLST         532          1.0000000000
      1597       533  TIP3  OH2          -3.0751919551       13.2276540553        7.9780247318  CLST         533          1.0000000000
      1598       533  TIP3  H1           -3.8288310542       13.6395946248        7.5799603373  CLST         533          1.0000000000
      1599       533  TIP3  H2           -3.6114608684       12.4555179970        8.0939666741  CLST         533          1.0000000000
      1600       534  TIP3  OH2           6.9519797424       -4.3543380111       -5.2658052635  CLST         534          1.0000000000
      1601       534  TIP3  H1            6.1038157882       -4.2346110995       -4.7294672048  CLST         534          1.0000000000
      1602       534  TIP3  H2            6.3822222088       -4.4095309759       -6.0286113139  CLST         534          1.0000000000
      1603       535  TIP3  OH2           7.1761900594       -3.8229232450      -11.5584817777  CLST         535          1.0000000000
      1604       535  TIP3  H1            6.3161980371       -3.6317147958      -11.2020884452  CLST         535          1.0000000000
      1605       535  TIP3  H2            7.4432054697       -4.1502050840      -10.7026571804  CLST         535          1.0000000000
      1606       536  TIP3  OH2          14.5433595321        8.0941378450       10.8558588636  CLST         536          1.0000000000
      1607       536  TIP3  H1           14.1856388480        8.9604166383       11.1174165547  CLST         536          1.0000000000
      1608       536  TIP3  H2           14.9554336266        8.4387567315       10.0107250934  CLST         536          1.0000000000
      1609       537  TIP3  OH2           4.8038446580       -4.4962333385       -3.4882932968  CLST         537          1.0000000000
      1610       537  TIP3  H1            3.8582477800       -4.4543592991       -3.5677828057  CLST         537          1.0000000000
      1611       537  TIP3  H2            4.6721928644       -5.4800024261       -3.5285386446  CLST         537          1.0000000000
      1612       538  TIP3  OH2          -0.2995293024        7.4686054292       13.0161681849  CLST         538          1.0000000000
      1613       538  TIP3  H1           -0.8364116261        7.7441315205       12.2479528967  CLST         538          1.0000000000
      1614       538  TIP3  H2           -0.5424517959        8.3707081464       13.2805562354  CLST         538          1.0000000000
      1615       539  TIP3  OH2           6.2366735231        8.7965705829        1.1157196179  CLST         539          1.0000000000
      1616       539  TIP3  H1            6.7459784422        8.0339995280        0.7489184401  CLST         539          1.0000000000
      1617       539  TIP3  H2            5.7080743066        8.1027258074        1.5308203758  CLST         539          1.0000000000
      1618       540  TIP3  OH2          11.9404519877       -1.3560510253       -3.9530429078  CLST         540          1.0000000000
      1619       540  TIP3  H1           12.6502428487       -0.7662057877       -4.2194505033  CLST         540          1.0000000000
      1620       540  TIP3  H2           12.2698131923       -1.2521100159       -3.0834015395  CLST         540          1.0000000000
      1621       541  TIP3  OH2          10.2029601637        7.4483425751        8.4259930465  CLST         541          1.0000000000
      1622       541  TIP3  H1           10.3449936830        7.7216417880        9.3265064709  CLST         541          1.0000000000
      1623       541  TIP3  H2           10.6910650042        6.6193089148        8.6402029699  CLST         541          1.0000000000
      1624       542  TIP3  OH2          13.1669860780        0.5510097461       -5.2852744295  CLST         542          1.0000000000
      1625       542  TIP3  H1           12.5978356815        1.2031991413       -5.6876789014  CLST         542          1.0000000000
      1626       542  TIP3  H2           13.2422654652        0.2716881958       -6.2127722302  CLST         542          1.0000000000
      1627       543  TIP3  OH2          10.0875031198       -6.4429481356        5.6435129016  CLST         543          1.0000000000
      1628       543  TIP3  H1           10.0515078390       -6.9707155462        4.7984246257  CLST         543          1.0000000000
      1629       543  TIP3  H2            9.7409470376       -5.6349876804        5.1129264550  CLST         543          1.0000000000
      1630       544  TIP3  OH2           6.8653621693        4.4678600781      -12.2755062984  CLST         544          1.0000000000
      1631       544  TIP3  H1            7.2254801117        3.7275628190      -11.7801669697  CLST         544          1.0000000000
      1632       544  TIP3  H2            6.7364299383        4.8884257284      -11.4096569964  CLST         544          1.0000000000
      1633       545  TIP3  OH2         -11.8683800125        2.1916358475        7.1611544254  CLST         545          1.0000000000
      1634       545  TIP3  H1          -12.6889847140        2.7158182008        7.1569621556  CLST         545          1.0000000000
      1635       545  TIP3  H2          -11.7148772395        2.6066054342        8.0396388161  CLST         545          1.0000000000
      1636       546  TIP3  OH2          -1.0382635853       11.9791143287       10.7960240627  CLST         546          1.0000000000
      1637       546  TIP3  H1           -0.8747421846       12.6656189578       10.1897421534  CLST         546          1.0000000000
      1638       546  TIP3  H2           -0.6458233337       12.5123016007       11.4589361141  CLST         546          1.0000000000
      1639       547  TIP3  OH2          -2.1173929920        7.0082308947        5.7019909004  CLST         547          1.0000000000
      1640       547  TIP3  H1           -1.9846315644        6.5816423732        6.5911537016  CLST         547          1.0000000000
      1641       547  TIP3  H2           -1.6448765045        6.3566858146        5.1687212846  CLST         547          1.0000000000
      1642       548  TIP3  OH2           2.9207473196       -7.8803510445       12.3440697816  CLST         548          1.0000000000
      1643       548  TIP3  H1            2.5826414339       -6.9736341195       12.5933041473  CLST         548          1.0000000000
      1644       548  TIP3  H2            3.7415654595       -7.4711436412       11.9189533203  CLST         548          1.0000000000
      1645       549  TIP3  OH2          -6.5453227621       14.6034981886        3.3061749945  CLST         549          1.0000000000
      1646       549  TIP3  H1           -7.4140278669       14.5110590084        3.7211161012  CLST         549          1.0000000000
      1647       549  TIP3  H2           -6.3079711608       13.7425471156        3.6704638485  CLST         549          1.0000000000
      1648       550  TIP3  OH2          -8.0033572906        4.3237955692       -4.6629927787  CLST         550          1.0000000000
      1649       550  TIP3  H1           -8.4968302571        3.5763528316       -4.2508366026  CLST         550          1.0000000000
      1650       550  TIP3  H2           -8.6575086496        4.9549256536       -4.4447565660  CLST         550          1.0000000000
      1651       551  TIP3  OH2          -2.1837146483      -13.7593940241       -3.0948163140  CLST         551          1.0000000000
      1652       551  TIP3  H1           -1.6764670409      -13.4267049170       -2.3692393140  CLST         551          1.0000000000
      1653       551  TIP3  H2           -3.0050702384      -13.5005107567       -2.6450529400  CLST         551          1.0000000000
      1654       552  TIP3  OH2          -2.3608375023       -7.6655185411       13.5519076282  CLST         552          1.0000000000
      1655       552  TIP3  H1           -2.5766203172       -8.5049628202       13.9436000026  CLST         552          1.0000000000
      1656       552  TIP3  H2           -1.6240105326       -7.9521739406       12.9728716375  CLST         552          1.0000000000
      1657       553  TIP3  OH2           8.2689754729      -13.7824900435        0.2325856134  CLST         553          1.0000000000
      1658       553  TIP3  H1            8.6533361312      -13.0646312709        0.6818260209  CLST         553          1.0000000000
      1659       553  TIP3  H2            8.3516346055      -14.3919589711        0.9041647435  CLST         553          1.0000000000
      1660       554  TIP3  OH2          -9.3725155890      -12.1114759172       -3.9059361719  CLST         554          1.0000000000
      1661       554  TIP3  H1           -9.3416874725      -11.5194906437       -3.1095441070  CLST         554          1.0000000000
      1662       554  TIP3  H2          -10.2133915167      -12.4379584232       -3.4260814796  CLST         554          1.0000000000
      1663       555  TIP3  OH2         -10.9561621527       -5.4616411601       -7.5498928484  CLST         555          1.0000000000
      1664       555  TIP3  H1          -10.8949212070       -4.4928606942       -7.6009100217  CLST         555          1.0000000000
      1665       555  TIP3  H2          -11.1656387227       -5.4742658985       -6.6328877118  CLST         555          1.0000000000
      1666       556  TIP3  OH2         -10.6052848927       11.0889848247       13.6954143933  CLST         556          1.0000000000
      1667       556  TIP3  H1          -11.0989634638       10.2943746211       13.9211457852  CLST         556          1.0000000000
      1668       556  TIP3  H2           -9.7470328980       10.5927682955       13.4921102183  CLST         556          1.0000000000
      1669       557  TIP3  OH2          -2.5123911420       -6.6303794205        1.4208826183  CLST         557          1.0000000000
      1670       557  TIP3  H1           -2.4504033621       -6.7382142803        2.3954827237  CLST         557          1.0000000000
      1671       557  TIP3  H2           -2.1310422714       -7.5085176752        1.3905451682  CLST         557          1.0000000000
      1672       558  TIP3  OH2         -10.6231265943        6.3675112264        2.9631199757  CLST         558          1.0000000000
      1673       558  TIP3  H1          -10.3869267057        5.8303848358        3.7852821011  CLST         558          1.0000000000
      1674       558  TIP3  H2          -10.0492959177        5.7888988793        2.4716831126  CLST         558          1.0000000000
      1675       559  TIP3  OH2           1.0928135309        2.4648565971        0.0946149001  CLST         559          1.0000000000
      1676       559  TIP3  H1            1.6078055775        2.7250254461       -0.6748532854  CLST         559          1.0000000000
      1677       559  TIP3  H2            1.6277494360        1.6235133008       -0.0518431612  CLST         559          1.0000000000
      1678       560  TIP3  OH2          12.5401537485      -11.7124278404        1.2416017435  CLST         560          1.0000000000
      1679       560  TIP3  H1           12.2344192957      -12.3631410479        0.4324216528  CLST         560          1.0000000000
      1680       560  TIP3  H2           12.3609146573      -12.8689665520        1.2798963600  CLST         560          1.0000000000
      1681       561  TIP3  OH2         -12.8881399438        8.7097875560      -10.5667786674  CLST         561          1.0000000000
      1682       561  TIP3  H1          -12.4036105332        8.8047130391      -11.3813867522  CLST         561          1.0000000000
      1683       561  TIP3  H2          -11.9941007011        8.7729891910      -10.1821328157  CLST         561          1.0000000000
      1684       562  TIP3  OH2           9.7474375576        6.7857867915       13.1716886857  CLST         562          1.0000000000
      1685       562  TIP3  H1           10.1789254377        7.0031130896       14.0144795240  CLST         562          1.0000000000
      1686       562  TIP3  H2            9.9610359055        5.8569015843       13.4239480934  CLST         562          1.0000000000
      1687       563  TIP3  OH2           3.1768875899      -10.5508440934       -6.5873703777  CLST         563          1.0000000000
      1688       563  TIP3  H1            4.0811579785      -10.7643716522       -6.5771065002  CLST         563          1.0000000000
      1689       563  TIP3  H2            3.0249979709      -11.4268139205       -7.0084273256  CLST         563          1.0000000000
      1690       564  TIP3  OH2           4.7512973633      -13.3635444578       -2.9531642214  CLST         564          1.0000000000
      1691       564  TIP3  H1            5.2992322260      -13.7752088682       -3.6658390044  CLST         564          1.0000000000
      1692       564  TIP3  H2            4.0677569962      -13.2741502278       -3.5763599930  CLST         564          1.0000000000
      1693       565  TIP3  OH2           1.5271372242       12.1994616019        0.5218731188  CLST         565          1.0000000000
      1694       565  TIP3  H1            1.3108274813       11.2887761921        0.3002363290  CLST         565          1.0000000000
      1695       565  TIP3  H2            2.4234036958       12.1787484828        0.1212118805  CLST         565          1.0000000000
      1696       566  TIP3  OH2          -8.8908543809        5.5790612908        0.9214380469  CLST         566          1.0000000000
      1697       566  TIP3  H1           -8.9038244508        4.8721634346        0.0842724198  CLST         566          1.0000000000
      1698       566  TIP3  H2           -9.1541409658        5.8505776209        0.2081306190  CLST         566          1.0000000000
      1699       567  TIP3  OH2          12.3591437562        0.1855004653       -8.1885680208  CLST         567          1.0000000000
      1700       567  TIP3  H1           13.3652414319        0.3179404645       -8.2598182972  CLST         567          1.0000000000
      1701       567  TIP3  H2           12.4662645997       -0.3498356227       -9.0347267725  CLST         567          1.0000000000
      1702       568  TIP3  OH2           8.8522861912       -7.1382525917       11.6347059050  CLST         568          1.0000000000
      1703       568  TIP3  H1            9.8041806500       -7.0519591007       11.8182591371  CLST         568          1.0000000000
      1704       568  TIP3  H2            8.8291603005       -6.1653402736       11.7166240599  CLST         568          1.0000000000
      1705       569  TIP3  OH2          -8.6973985039       -6.3926376563        3.7298015530  CLST         569          1.0000000000
      1706       569  TIP3  H1           -8.8911786806       -5.9694160579        2.8816158664  CLST         569          1.0000000000
      1707       569  TIP3  H2           -9.4237065857       -6.9969788033        3.4872582591  CLST         569          1.0000000000
      1708       570  TIP3  OH2           6.4008112554       11.8550451373       15.0698163604  CLST         570          1.0000000000
      1709       570  TIP3  H1            5.7941326061       11.9918947540       14.3890115649  CLST         570          1.0000000000
      1710       570  TIP3  H2            7.0209012640       12.1915660393       14.3974034946  CLST         570          1.0000000000
      1711       571  TIP3  OH2           9.6449639519        1.2193641582        4.4265338670  CLST         571          1.0000000000
      1712       571  TIP3  H1            8.8620202991        1.3195814215        4.9403182362  CLST         571          1.0000000000
      1713       571  TIP3  H2            9.2030776309        0.7002904587        3.7189571568  CLST         571          1.0000000000
      1714       572  TIP3  OH2           5.2621359169        0.4105285026        2.2833878587  CLST         572          1.0000000000
      1715       572  TIP3  H1            5.3403227145       -0.5179320001        2.5846165794  CLST         572          1.0000000000
      1716       572  TIP3  H2            6.1079019659        0.4283199295        1.8491682363  CLST         572          1.0000000000
      1717       573  TIP3  OH2          -1.9877026079       -6.4915966722       -6.6108976225  CLST         573          1.0000000000
      1718       573  TIP3  H1           -1.5416991455       -7.3634825771       -6.5541823223  CLST         573          1.0000000000
      1719       573  TIP3  H2           -2.2841187851       -6.8087646928       -7.4344070144  CLST         573          1.0000000000
      1720       574  TIP3  OH2          -9.9045208994        0.9758802890        9.7847024855  CLST         574          1.0000000000
      1721       574  TIP3  H1           -9.8242808320        1.9397716429        9.6549835591  CLST         574          1.0000000000
      1722       574  TIP3  H2           -9.0235946460        0.9364725333        9.3558297332  CLST         574          1.0000000000
      1723       575  TIP3  OH2          -3.8627278170       10.7733108545        0.9181878962  CLST         575          1.0000000000
      1724       575  TIP3  H1           -3.8753295738       11.4838937145        0.2289773372  CLST         575          1.0000000000
      1725       575  TIP3  H2           -4.7096849387       10.9770629324        1.2411026726  CLST         575          1.0000000000
      1726       576  TIP3  OH2          -3.6507304401       -2.3618362546        6.2773293105  CLST         576          1.0000000000
      1727       576  TIP3  H1           -3.6628783021       -1.4458591093        5.9357356082  CLST         576          1.0000000000
      1728       576  TIP3  H2           -3.3798292546       -2.6378193064        5.3773706152  CLST         576          1.0000000000
      1729       577  TIP3  OH2         -12.2454817313       10.9352585654        8.6103985567  CLST         577          1.0000000000
      1730       577  TIP3  H1          -12.3172848040       11.8521137286        8.8232233333  CLST         577          1.0000000000
      1731       577  TIP3  H2          -11.5205567738       10.9836682309        7.9990465802  CLST         577          1.0000000000
      1732       578  TIP3  OH2          -1.7055088271        0.8619151940        5.1367636275  CLST         578          1.0000000000
      1733       578  TIP3  H1           -2.4640138836        1.4024830688        4.8979844677  CLST         578          1.0000000000
      1734       578  TIP3  H2           -1.9724253212        0.9471205050        6.0404670833  CLST         578          1.0000000000
      1735       579  TIP3  OH2          -6.3807883885       11.6469921167        1.4963100789  CLST         579          1.0000000000
      1736       579  TIP3  H1           -6.6910935010       12.4255577282        1.0276989347  CLST         579          1.0000000000
      1737       579  TIP3  H2           -6.9647946364       11.0357281383        1.0843819513  CLST         579          1.0000000000
      1738       580  TIP3  OH2          11.4014861748        3.6204159680       -3.2153004954  CLST         580          1.0000000000
      1739       580  TIP3  H1           11.2029577429        2.8483117263       -2.6638531277  CLST         580          1.0000000000
      1740       580  TIP3  H2           11.9194466860        3.9359661266       -2.4930883322  CLST         580          1.0000000000
      1741       581  TIP3  OH2          13.2900585459      -11.7379069091        3.7062396290  CLST         581          1.0000000000
      1742       581  TIP3  H1           13.5100058514      -11.8540399014        2.7796987437  CLST         581          1.0000000000
      1743       581  TIP3  H2           14.1946745423      -11.8601616926        3.9128776019  CLST         581          1.0000000000
      1744       582  TIP3  OH2           6.4924205837       10.7207222080       -6.9860729109  CLST         582          1.0000000000
      1745       582  TIP3  H1            5.9622771682       10.0372528329       -6.6116471418  CLST         582          1.0000000000
      1746       582  TIP3  H2            6.8427459020       10.9957203741       -6.1078090094  CLST         582          1.0000000000
      1747       583  TIP3  OH2          -2.5398195232        4.2996866855      -10.9843133700  CLST         583          1.0000000000
      1748       583  TIP3  H1           -3.2374722332        3.6777185562      -11.1668109884  CLST         583          1.0000000000
      1749       583  TIP3  H2           -2.0003883530        3.6634044116      -11.4350092226  CLST         583          1.0000000000
      1750       584  TIP3  OH2           2.5527313517       -3.9750918321       -9.6328927010  CLST         584          1.0000000000
      1751       584  TIP3  H1            3.2245676125       -4.5650072145       -9.9995941117  CLST         584          1.0000000000
      1752       584  TIP3  H2            3.1962838562       -3.3296213644       -9.8397186823  CLST         584          1.0000000000
      1753       585  TIP3  OH2         -13.8725609372        1.0079189176       -1.9252491552  CLST         585          1.0000000000
      1754       585  TIP3  H1          -13.9125839102        1.7660576344       -2.5716333850  CLST         585          1.0000000000
      1755       585  TIP3  H2          -14.7545999760        0.6979929870       -2.1777359623  CLST         585          1.0000000000
      1756       586  TIP3  OH2          -7.7115718620        8.3896433162       10.3502746645  CLST         586          1.0000000000
      1757       586  TIP3  H1           -7.6186709404        8.9271892862        9.5443640165  CLST         586          1.0000000000
      1758       586  TIP3  H2           -7.2124034172        7.6999503270        9.9789418988  CLST         586          1.0000000000
      1759       587  TIP3  OH2           4.7061278164        4.4283108803       -9.4514948299  CLST         587          1.0000000000
      1760       587  TIP3  H1            3.8513523435        4.9927680667       -9.9407710317  CLST         587          1.0000000000
      1761       587  TIP3  H2            4.6796547409        4.8312098578      -10.5076767919  CLST         587          1.0000000000
      1762       588  TIP3  OH2           4.9176669346       -9.6783920422      -14.0802545905  CLST         588          1.0000000000
      1763       588  TIP3  H1            4.3840634515       -9.7675880982      -14.8564451036  CLST         588          1.0000000000
      1764       588  TIP3  H2            4.2986951332       -9.5472690061      -13.4095231698  CLST         588          1.0000000000
      1765       589  TIP3  OH2           0.4101114005      -14.2471120242        3.1326687202  CLST         589          1.0000000000
      1766       589  TIP3  H1           -0.2146555308      -14.9058259574        2.8881749284  CLST         589          1.0000000000
      1767       589  TIP3  H2           -0.2804061246      -13.9558450088        3.7610479730  CLST         589          1.0000000000
      1768       590  TIP3  OH2           2.4546508270        1.9015157091       -8.3913041931  CLST         590          1.0000000000
      1769       590  TIP3  H1            1.7661950926        2.5753660413       -8.2342652395  CLST         590          1.0000000000
      1770       590  TIP3  H2            2.3113741773        2.0736935710       -9.3051933910  CLST         590          1.0000000000
      1771       591  TIP3  OH2         -12.8816387432        0.8879940498       -6.7011273481  CLST         591          1.0000000000
      1772       591  TIP3  H1          -11.8929479571        0.9692309874       -6.5421172506  CLST         591          1.0000000000
      1773       591  TIP3  H2          -13.0100366536        1.7433224526       -6.2765508503  CLST         591          1.0000000000
      1774       592  TIP3  OH2          -4.2706955318       -3.8546913408       -6.2222478128  CLST         592          1.0000000000
      1775       592  TIP3  H1           -3.4221117854       -3.8345015490       -6.7380504729  CLST         592          1.0000000000
      1776       592  TIP3  H2           -4.6505201928       -4.4432626530       -6.9392289388  CLST         592          1.0000000000
      1777       593  TIP3  OH2          -1.7585976206        5.4228988067       -4.4855948725  CLST         593          1.0000000000
      1778       593  TIP3  H1           -1.1663807515        6.1144758050       -4.1076184248  CLST         593          1.0000000000
      1779       593  TIP3  H2           -1.1327206083        5.5037890878       -5.2680876210  CLST         593          1.0000000000
      1780       594  TIP3  OH2          11.1480204426       10.5699665352       13.6043420036  CLST         594          1.0000000000
      1781       594  TIP3  H1           10.9834305328        9.9264603573       14.4932873175  CLST         594          1.0000000000
      1782       594  TIP3  H2           10.1476917683       10.2294038227       14.0320848474  CLST         594          1.0000000000
      1783       595  TIP3  OH2          -8.9494943540       13.5050513689        4.6336620971  CLST         595          1.0000000000
      1784       595  TIP3  H1           -9.6339900849       14.0356737484        4.2987768472  CLST         595          1.0000000000
      1785       595  TIP3  H2           -9.1005165375       12.8312353748        3.9352546882  CLST         595          1.0000000000
      1786       596  TIP3  OH2         -14.2427051134       -0.6995832921        8.7618685090  CLST         596          1.0000000000
      1787       596  TIP3  H1          -14.5203874484       -1.5943755621        8.8904062082  CLST         596          1.0000000000
      1788       596  TIP3  H2          -13.5184534153       -0.7692161793        8.0978982228  CLST         596          1.0000000000
      1789       597  TIP3  OH2          -3.0309900128       -5.3540782926       -4.3745114804  CLST         597          1.0000000000
      1790       597  TIP3  H1           -2.8655902548       -5.9268086812       -5.1157824603  CLST         597          1.0000000000
      1791       597  TIP3  H2           -3.2404742434       -4.6197106689       -4.9445913202  CLST         597          1.0000000000
      1792       598  TIP3  OH2          -7.9671084873       -9.4932182010       -9.2861396547  CLST         598          1.0000000000
      1793       598  TIP3  H1           -8.9059788254       -9.6976236668       -9.2047888649  CLST         598          1.0000000000
      1794       598  TIP3  H2           -8.1561791929       -9.0405949092      -10.1362981271  CLST         598          1.0000000000
      1795       599  TIP3  OH2          11.9444908224        0.0454120664      -12.9236091619  CLST         599          1.0000000000
      1796       599  TIP3  H1           12.3294121805        0.8134541063      -13.3034440096  CLST         599          1.0000000000
      1797       599  TIP3  H2           11.8006651170       -0.3929826126      -13.7590832858  CLST         599          1.0000000000
      1798       600  TIP3  OH2          14.0016300286       -9.6063427136        1.8155113628  CLST         600          1.0000000000
      1799       600  TIP3  H1           14.5976586941      -10.3075575738        1.6141566508  CLST         600          1.0000000000
      1800       600  TIP3  H2           13.3972145877      -10.2397275957        1.4163323742  CLST         600          1.0000000000
      1801       601  TIP3  OH2          -2.0004274541       13.0700988809       -8.1048526357  CLST         601          1.0000000000
      1802       601  TIP3  H1           -1.4484123736       13.3341603486       -7.3679422010  CLST         601          1.0000000000
      1803       601  TIP3  H2           -1.4633572991       13.6149959757       -8.6609245993  CLST         601          1.0000000000
      1804       602  TIP3  OH2          13.8194284864       -3.1101616764        8.6230105789  CLST         602          1.0000000000
      1805       602  TIP3  H1           13.0424416509       -2.9526095081        8.1021267937  CLST         602          1.0000000000
      1806       602  TIP3  H2           14.1354389832       -3.5780073526        7.8363752740  CLST         602          1.0000000000
      1807       603  TIP3  OH2          -8.1921115869       -9.5316441162      -11.8885834883  CLST         603          1.0000000000
      1808       603  TIP3  H1           -9.1011286033       -9.2498324176      -11.9473837459  CLST         603          1.0000000000
      1809       603  TIP3  H2           -8.5114197058      -10.4182909373      -11.6131067031  CLST         603          1.0000000000
      1810       604  TIP3  OH2           0.1509405237       -7.9225207032       12.0948918868  CLST         604          1.0000000000
      1811       604  TIP3  H1            0.3334893270       -6.9691660606       11.9618662818  CLST         604          1.0000000000
      1812       604  TIP3  H2            0.9397899682       -8.0914587012       12.5678707525  CLST         604          1.0000000000
      1813       605  TIP3  OH2          10.0362412128        8.2745206020        3.5429868100  CLST         605          1.0000000000
      1814       605  TIP3  H1            9.3087382129        8.9150294018        3.3988539527  CLST         605          1.0000000000
      1815       605  TIP3  H2           10.4405765277        8.8941906774        4.0869496875  CLST         605          1.0000000000
      1816       606  TIP3  OH2           0.7293786000        8.8508804706       -6.4977056632  CLST         606          1.0000000000
      1817       606  TIP3  H1            1.2268886542        9.4404179019       -5.9477933196  CLST         606          1.0000000000
      1818       606  TIP3  H2           -0.0208482154        9.4155091322       -6.3119265868  CLST         606          1.0000000000
      1819       607  TIP3  OH2          -5.1112045154        1.3349377284      -14.0066017382  CLST         607          1.0000000000
      1820       607  TIP3  H1           -6.2174937785        1.2725281508      -14.0406157448  CLST         607          1.0000000000
      1821       607  TIP3  H2           -5.7385887060        1.1711506912      -14.9355095638  CLST         607          1.0000000000
      1822       608  TIP3  OH2          -2.3283875964       -0.4757001285      -11.3771896096  CLST         608          1.0000000000
      1823       608  TIP3  H1           -1.3738590689       -0.3098359436      -11.2784126850  CLST         608          1.0000000000
      1824       608  TIP3  H2           -2.1675646694       -0.0210983502      -12.2158846046  CLST         608          1.0000000000
      1825       609  TIP3  OH2           3.7474385842        8.2528873976        2.9721700651  CLST         609          1.0000000000
      1826       609  TIP3  H1            4.0367380254        8.5806147523        3.7817146060  CLST         609          1.0000000000
      1827       609  TIP3  H2            4.4658641288        7.6247872944        3.0410492105  CLST         609          1.0000000000
      1828       610  TIP3  OH2          -7.8210922966       -9.3816070621       11.4786752321  CLST         610          1.0000000000
      1829       610  TIP3  H1           -7.4442222237      -10.2410274877       11.0821851954  CLST         610          1.0000000000
      1830       610  TIP3  H2           -7.0170319065       -9.0021494300       11.7246585756  CLST         610          1.0000000000
      1831       611  TIP3  OH2          13.7894822446       -4.2172733905        6.1841509285  CLST         611          1.0000000000
      1832       611  TIP3  H1           14.3032999406       -4.8553448475        5.6472665670  CLST         611          1.0000000000
      1833       611  TIP3  H2           13.8829277317       -3.6238526332        5.4497172199  CLST         611          1.0000000000
      1834       612  TIP3  OH2          -8.9222402484      -10.5249643948        6.2420618883  CLST         612          1.0000000000
      1835       612  TIP3  H1           -8.1856470547      -10.0746639694        5.7557901022  CLST         612          1.0000000000
      1836       612  TIP3  H2           -9.5289249371       -9.8769260874        5.9191715462  CLST         612          1.0000000000
      1837       613  TIP3  OH2           2.7598710253       -2.1624174180       14.4056922467  CLST         613          1.0000000000
      1838       613  TIP3  H1            2.4652286042       -3.0437508757       14.1099546945  CLST         613          1.0000000000
      1839       613  TIP3  H2            1.8181680831       -1.8675646632       14.1817553554  CLST         613          1.0000000000
      1840       614  TIP3  OH2           1.3144865607        4.7425046510       -9.1295621339  CLST         614          1.0000000000
      1841       614  TIP3  H1            1.7001258788        4.8542463591       -8.2635426660  CLST         614          1.0000000000
      1842       614  TIP3  H2            0.9225969904        5.6474712075       -8.9310386199  CLST         614          1.0000000000
      1843       615  TIP3  OH2           1.3041548698        4.3792815383        7.0442527156  CLST         615          1.0000000000
      1844       615  TIP3  H1            2.1746488026        4.8874067906        7.2119686675  CLST         615          1.0000000000
      1845       615  TIP3  H2            1.5301107661        4.5493543549        6.1481772157  CLST         615          1.0000000000
      1846       616  TIP3  OH2          -7.8032419559        4.2395214934       -7.2575005370  CLST         616          1.0000000000
      1847       616  TIP3  H1           -8.1548336771        4.1095089838       -8.1323292227  CLST         616          1.0000000000
      1848       616  TIP3  H2           -7.3524647797        4.9678576351       -7.6244115050  CLST         616          1.0000000000
      1849       617  TIP3  OH2          14.9909767162        2.1371386676       11.6985412510  CLST         617          1.0000000000
      1850       617  TIP3  H1           14.8086361770        1.1874582986       11.9246154663  CLST         617          1.0000000000
      1851       617  TIP3  H2           14.1201238588        2.3588375401       12.1543140991  CLST         617          1.0000000000
      1852       618  TIP3  OH2          -7.1850250001        3.2828985656        2.7917250342  CLST         618          1.0000000000
      1853       618  TIP3  H1           -6.8519418737        4.0942712229        2.4444079629  CLST         618          1.0000000000
      1854       618  TIP3  H2           -6.6733693495        3.4704731593        3.5795237506  CLST         618          1.0000000000
      1855       619  TIP3  OH2           1.3565456919        5.5005358492       -2.5762066094  CLST         619          1.0000000000
      1856       619  TIP3  H1            0.6376837781        4.8562283786       -2.7437537441  CLST         619          1.0000000000
      1857       619  TIP3  H2            0.6530830938        6.2043328092       -2.6516715152  CLST         619          1.0000000000
      1858       620  TIP3  OH2          -3.6681491642        8.6007111796       -5.7902920754  CLST         620          1.0000000000
      1859       620  TIP3  H1           -3.7226474681        7.9550660445       -5.0497843752  CLST         620          1.0000000000
      1860       620  TIP3  H2           -4.0541648861        8.1328276384       -6.5681426148  CLST         620          1.0000000000
      1861       621  TIP3  OH2           0.9267707568        7.3868609043       -8.7085851224  CLST         621          1.0000000000
      1862       621  TIP3  H1            1.1107375597        8.0595892781       -8.0364144951  CLST         621          1.0000000000
      1863       621  TIP3  H2            0.8414677925        8.0287810883       -9.4233557239  CLST         621          1.0000000000
      1864       622  TIP3  OH2           1.7161873377       10.3172397933        3.7780022484  CLST         622          1.0000000000
      1865       622  TIP3  H1            2.3026837030       10.0815703940        4.5139793333  CLST         622          1.0000000000
      1866       622  TIP3  H2            1.0859932603        9.7675990466        4.2636004522  CLST         622          1.0000000000
      1867       623  TIP3  OH2          -0.1210633161       12.1794930433        2.7573553889  CLST         623          1.0000000000
      1868       623  TIP3  H1            0.5323286381       12.1674205440        2.0353769984  CLST         623          1.0000000000
      1869       623  TIP3  H2            0.5462207951       11.6258300298        3.1862159341  CLST         623          1.0000000000
      1870       624  TIP3  OH2          -9.0630800402       -1.7119632546       -3.8857812446  CLST         624          1.0000000000
      1871       624  TIP3  H1           -8.7745914656       -1.0241602430       -4.4844972307  CLST         624          1.0000000000
      1872       624  TIP3  H2           -9.8554560586       -1.2065202905       -3.8853060864  CLST         624          1.0000000000
      1873       625  TIP3  OH2          -9.7788132650      -13.0717289877       -8.9542124698  CLST         625          1.0000000000
      1874       625  TIP3  H1           -9.9439438853      -12.3876706448       -8.3230326675  CLST         625          1.0000000000
      1875       625  TIP3  H2           -9.1910770738      -13.4849524907       -8.3365497740  CLST         625          1.0000000000
      1876       626  TIP3  OH2          13.4345685815       -5.6739133104       -2.7547150421  CLST         626          1.0000000000
      1877       626  TIP3  H1           12.6521057889       -6.0687642761       -3.2011109264  CLST         626          1.0000000000
      1878       626  TIP3  H2           13.5785559526       -5.1540867788       -3.4878228985  CLST         626          1.0000000000
      1879       627  TIP3  OH2          -1.0361988625      -11.4570159858        7.8668323712  CLST         627          1.0000000000
      1880       627  TIP3  H1           -0.0597788823      -11.4268433657        8.0685207670  CLST         627          1.0000000000
      1881       627  TIP3  H2           -0.9153373488      -12.3151132636        8.3547519577  CLST         627          1.0000000000
      1882       628  TIP3  OH2           7.0336502979        8.9479840234       -9.0694833945  CLST         628          1.0000000000
      1883       628  TIP3  H1            6.5419832393        9.7763820075       -9.3961193125  CLST         628          1.0000000000
      1884       628  TIP3  H2            6.9885988981        9.4008149631       -8.2240276259  CLST         628          1.0000000000
      1885       629  TIP3  OH2          -9.8105478679       -0.0672565542      -10.0221386130  CLST         629          1.0000000000
      1886       629  TIP3  H1           -9.0370584940        0.5643977166      -10.1650869853  CLST         629          1.0000000000
      1887       629  TIP3  H2           -9.0025665419       -0.6326156589      -10.3458248542  CLST         629          1.0000000000
      1888       630  TIP3  OH2          11.7394847205       12.1526075818       11.5562219653  CLST         630          1.0000000000
      1889       630  TIP3  H1           10.9783167333       12.7145104684       11.3803486396  CLST         630          1.0000000000
      1890       630  TIP3  H2           11.1682441496       11.7693412422       12.2382507641  CLST         630          1.0000000000
      1891       631  TIP3  OH2         -11.9832394738      -11.5137878006      -11.5401540148  CLST         631          1.0000000000
      1892       631  TIP3  H1          -12.2872128991      -11.6133361533      -12.4800481718  CLST         631          1.0000000000
      1893       631  TIP3  H2          -12.2435639319      -12.4309849593      -11.4281913270  CLST         631          1.0000000000
      1894       632  TIP3  OH2          10.8182544714        2.0312411843        9.0573704571  CLST         632          1.0000000000
      1895       632  TIP3  H1           11.8344411124        1.5173838492        9.2069826553  CLST         632          1.0000000000
      1896       632  TIP3  H2           11.1407147869        1.5920496122        8.4598228707  CLST         632          1.0000000000
      1897       633  TIP3  OH2          -4.3668872160        6.5606821046       10.2521563622  CLST         633          1.0000000000
      1898       633  TIP3  H1           -4.0962290565        5.6352842825       10.3076992878  CLST         633          1.0000000000
      1899       633  TIP3  H2           -5.1488801885        6.2864614000        9.7848115554  CLST         633          1.0000000000
      1900       634  TIP3  OH2          -2.4476125807       -7.3136331940        6.8627514445  CLST         634          1.0000000000
      1901       634  TIP3  H1           -2.6757622020       -8.1445328083        7.2498486346  CLST         634          1.0000000000
      1902       634  TIP3  H2           -1.9736866872       -7.0334270410        7.6538270847  CLST         634          1.0000000000
      1903       635  TIP3  OH2           2.6409420468        2.7605186437       -2.1562125099  CLST         635          1.0000000000
      1904       635  TIP3  H1            2.3678561628        3.5413711904       -2.5920029278  CLST         635          1.0000000000
      1905       635  TIP3  H2            2.4764738209        2.3393879904       -3.0251758441  CLST         635          1.0000000000
      1906       636  TIP3  OH2           4.8791076341       -2.5597426094      -10.1876723484  CLST         636          1.0000000000
      1907       636  TIP3  H1            4.4333860157       -2.0611641640      -10.8885331799  CLST         636          1.0000000000
      1908       636  TIP3  H2            5.0902008714       -1.6865100509       -9.7689244883  CLST         636          1.0000000000
      1909       637  TIP3  OH2           3.5517924095       11.1959519215      -10.6035059123  CLST         637          1.0000000000
      1910       637  TIP3  H1            4.2745441987       11.5546038730      -10.0320963089  CLST         637          1.0000000000
      1911       637  TIP3  H2            3.2951692227       10.8314942647       -9.7509932772  CLST         637          1.0000000000
      1912       638  TIP3  OH2           8.7191752254      -11.8931553989       -7.1280767723  CLST         638          1.0000000000
      1913       638  TIP3  H1            8.3084725334      -12.3825491299       -7.8677861860  CLST         638          1.0000000000
      1914       638  TIP3  H2            9.2451150245      -11.4196560872       -7.8115403350  CLST         638          1.0000000000
      1915       639  TIP3  OH2           7.3911742103      -13.2491587819       -9.1829882562  CLST         639          1.0000000000
      1916       639  TIP3  H1            6.5162877605      -13.5338023351       -8.9321203425  CLST         639          1.0000000000
      1917       639  TIP3  H2            7.4635070258      -14.1720151240       -9.5044277355  CLST         639          1.0000000000
      1918       640  TIP3  OH2          -9.6508065649       -2.9970200430      -10.3858125640  CLST         640          1.0000000000
      1919       640  TIP3  H1           -8.8671421539       -2.7247661712       -9.6189215756  CLST         640          1.0000000000
      1920       640  TIP3  H2           -9.8694728081       -2.7109965472       -9.6168959356  CLST         640          1.0000000000
      1921       641  TIP3  OH2         -13.8618862796       -2.7365655195      -13.3127325806  CLST         641          1.0000000000
      1922       641  TIP3  H1          -13.5872284844       -3.4751463976      -13.0131709160  CLST         641          1.0000000000
      1923       641  TIP3  H2          -12.7698254589       -2.9994604537      -13.1941098271  CLST         641          1.0000000000
      1924       642  TIP3  OH2          -1.9724573845        1.8332357681       10.9581884189  CLST         642          1.0000000000
      1925       642  TIP3  H1           -1.2156346611        1.7309949007       11.5539708812  CLST         642          1.0000000000
      1926       642  TIP3  H2           -2.5439563166        1.7497491446       11.7372662563  CLST         642          1.0000000000
      1927       643  TIP3  OH2         -14.0963680174       -2.8924091004        3.6068267916  CLST         643          1.0000000000
      1928       643  TIP3  H1          -13.5254978879       -2.3580403114        4.1752298855  CLST         643          1.0000000000
      1929       643  TIP3  H2          -14.7978232503       -2.5955217362        4.1315034142  CLST         643          1.0000000000
      1930       644  TIP3  OH2          12.7524623820       -2.8119934966        0.8810930035  CLST         644          1.0000000000
      1931       644  TIP3  H1           13.5675284517       -2.4398915035        1.1842481322  CLST         644          1.0000000000
      1932       644  TIP3  H2           13.1579848572       -3.3999199607        0.2538319858  CLST         644          1.0000000000
      1933       645  TIP3  OH2          -6.7085552459        6.2610001204        8.9635788468  CLST         645          1.0000000000
      1934       645  TIP3  H1           -6.9582092889        6.2865570523        8.0179550793  CLST         645          1.0000000000
      1935       645  TIP3  H2           -6.6036689069        5.2882523390        8.8556943616  CLST         645          1.0000000000
      1936       646  TIP3  OH2           6.8320081956      -11.1552609003       11.6913190880  CLST         646          1.0000000000
      1937       646  TIP3  H1            6.0551697875      -11.2756082314       11.1730981659  CLST         646          1.0000000000
      1938       646  TIP3  H2            7.0466004815      -12.0599535320       11.7836084338  CLST         646          1.0000000000
      1939       647  TIP3  OH2         -12.7960190516       -9.2321214613       -7.2654093416  CLST         647          1.0000000000
      1940       647  TIP3  H1          -13.4999149614       -9.5035053617       -6.4434802763  CLST         647          1.0000000000
      1941       647  TIP3  H2          -12.2441217073       -9.2527340789       -6.4755649644  CLST         647          1.0000000000
      1942       648  TIP3  OH2         -13.7145775331        3.4105560496       -6.2323171350  CLST         648          1.0000000000
      1943       648  TIP3  H1          -14.6499920358        3.4584898348       -6.3231951181  CLST         648          1.0000000000
      1944       648  TIP3  H2          -13.8060261799        3.5475127470       -5.2827288799  CLST         648          1.0000000000
      1945       649  TIP3  OH2          -1.7677626321       -3.4692200499       -7.3923923327  CLST         649          1.0000000000
      1946       649  TIP3  H1           -0.9163339108       -3.0365843247       -7.1090113182  CLST         649          1.0000000000
      1947       649  TIP3  H2           -1.2719490978       -4.1196089549       -7.8885181075  CLST         649          1.0000000000
      1948       650  TIP3  OH2          -4.5105150323       -3.2830627455      -11.8451851909  CLST         650          1.0000000000
      1949       650  TIP3  H1           -3.7763503856       -2.9470030890      -11.7569388763  CLST         650          1.0000000000
      1950       650  TIP3  H2           -4.4510510700       -2.2039933800      -11.5322151657  CLST         650          1.0000000000
      1951       651  TIP3  OH2           1.0398484322       -4.1009405516       14.1911252452  CLST         651          1.0000000000
      1952       651  TIP3  H1            0.0912063039       -4.4760632135       14.2378956536  CLST         651          1.0000000000
      1953       651  TIP3  H2            1.2625839485       -4.2829442815       15.0698163604  CLST         651          1.0000000000
      1954       652  TIP3  OH2           2.1836772607       -8.9533793619       10.0435631362  CLST         652          1.0000000000
      1955       652  TIP3  H1            2.1222224830       -8.4262451766       10.8662859251  CLST         652          1.0000000000
      1956       652  TIP3  H2            2.1464822041       -8.0817732757        9.6162095234  CLST         652          1.0000000000
      1957       653  TIP3  OH2          13.6155588829        1.2111553266       -2.5765025019  CLST         653          1.0000000000
      1958       653  TIP3  H1           12.6940075239        1.0145107041       -2.5433600202  CLST         653          1.0000000000
      1959       653  TIP3  H2           13.5395009315        1.1208009107       -3.5546462720  CLST         653          1.0000000000
      1960       654  TIP3  OH2          -5.8045240245        8.8131312002       13.0913574025  CLST         654          1.0000000000
      1961       654  TIP3  H1           -4.9636477540        9.0143755921       13.5193995956  CLST         654          1.0000000000
      1962       654  TIP3  H2           -5.5285280007        8.7411317230       12.2512845589  CLST         654          1.0000000000
      1963       655  TIP3  OH2          -4.1030379466        1.4777282385       12.4846973359  CLST         655          1.0000000000
      1964       655  TIP3  H1           -4.0909578709        0.5594585358       12.1105095805  CLST         655          1.0000000000
      1965       655  TIP3  H2           -4.8872503720        1.1709620409       12.9183235500  CLST         655          1.0000000000
      1966       656  TIP3  OH2         -14.0122101909       -4.4359076300      -10.5604477965  CLST         656          1.0000000000
      1967       656  TIP3  H1          -14.4085922336       -4.8108125950      -11.3076840713  CLST         656          1.0000000000
      1968       656  TIP3  H2          -13.0302497629       -5.6193553231      -11.4359168292  CLST         656          1.0000000000
      1969       657  TIP3  OH2           4.5448281247       -1.0464167843        5.3610172463  CLST         657          1.0000000000
      1970       657  TIP3  H1            5.2895398186       -0.4820332018        5.8230710965  CLST         657          1.0000000000
      1971       657  TIP3  H2            4.0274614089       -0.7119544968        6.1127318920  CLST         657          1.0000000000
      1972       658  TIP3  OH2         -14.0119449125       -7.0007326999       -4.8582401422  CLST         658          1.0000000000
      1973       658  TIP3  H1          -13.9834679395       -6.1472346524       -5.2904732526  CLST         658          1.0000000000
      1974       658  TIP3  H2          -14.8680657855       -7.0404384250       -5.3374914481  CLST         658          1.0000000000
      1975       659  TIP3  OH2           9.4936681693      -13.2047548328        9.6851291349  CLST         659          1.0000000000
      1976       659  TIP3  H1            8.9811144596      -12.5058257942        9.2453115228  CLST         659          1.0000000000
      1977       659  TIP3  H2            8.6205950297      -13.6730414481        9.8201729009  CLST         659          1.0000000000
      1978       660  TIP3  OH2         -14.6240145586       -8.9255540411        6.6643399778  CLST         660          1.0000000000
      1979       660  TIP3  H1          -14.9867794917       -9.7630537188        7.1734226587  CLST         660          1.0000000000
      1980       660  TIP3  H2          -13.9118373875       -8.8437517750        7.3367733959  CLST         660          1.0000000000
      1981       661  TIP3  OH2           2.8369142079        1.1575241647       -4.5598298453  CLST         661          1.0000000000
      1982       661  TIP3  H1            2.1595815998        1.6800408459       -4.9500405074  CLST         661          1.0000000000
      1983       661  TIP3  H2            2.2851023283        0.3001278244       -4.5934128932  CLST         661          1.0000000000
      1984       662  TIP3  OH2          -8.7636607338       -5.0561435498        1.2665140075  CLST         662          1.0000000000
      1985       662  TIP3  H1           -9.2864608487       -5.5192224608        0.5794920888  CLST         662          1.0000000000
      1986       662  TIP3  H2           -9.1875322312       -4.1612306253        1.1353632667  CLST         662          1.0000000000
      1987       663  TIP3  OH2           6.0436044665       -2.0241338831        3.3949487227  CLST         663          1.0000000000
      1988       663  TIP3  H1            5.3856704926       -2.0261620796        4.0750856250  CLST         663          1.0000000000
      1989       663  TIP3  H2            5.9232437407       -2.9577829171        3.3189620646  CLST         663          1.0000000000
      1990       664  TIP3  OH2          10.4338162354      -14.2915590205        2.6532167690  CLST         664          1.0000000000
      1991       664  TIP3  H1           10.2517298547      -13.7381681667        3.4162425353  CLST         664          1.0000000000
      1992       664  TIP3  H2           10.2322722552      -15.0537512994        3.1072710032  CLST         664          1.0000000000
      1993       665  TIP3  OH2           9.3706855058       10.2042168319      -14.2710546290  CLST         665          1.0000000000
      1994       665  TIP3  H1            8.8976573319        9.3769546575      -13.9612477995  CLST         665          1.0000000000
      1995       665  TIP3  H2            8.5885587235       10.2943149326      -14.8405293980  CLST         665          1.0000000000
      1996       666  TIP3  OH2         -11.4193041654       -7.8119942406       -8.9775399765  CLST         666          1.0000000000
      1997       666  TIP3  H1          -11.1668876364       -7.3379966989       -8.1405208903  CLST         666          1.0000000000
      1998       666  TIP3  H2          -12.2283676174       -8.0428497177       -8.4559674534  CLST         666          1.0000000000
      1999       667  TIP3  OH2         -11.1140494051        5.4112463604        7.7188897856  CLST         667          1.0000000000
      2000       667  TIP3  H1          -11.4013698454        4.8875246775        8.4583869977  CLST         667          1.0000000000
      2001       667  TIP3  H2          -10.7052393491        6.0085779010        8.3739824139  CLST         667          1.0000000000
      2002       668  TIP3  OH2         -12.5583613187        0.0095458092        0.1150702075  CLST         668          1.0000000000
      2003       668  TIP3  H1          -13.0171802399        0.3935366763        0.8833307055  CLST         668          1.0000000000
      2004       668  TIP3  H2          -13.2964074845        0.3366977277       -0.3617837794  CLST         668          1.0000000000
      2005       669  TIP3  OH2          -3.7309764746      -11.5893037320        5.3340930294  CLST         669          1.0000000000
      2006       669  TIP3  H1           -3.6311231761      -12.1994057621        4.5926818853  CLST         669          1.0000000000
      2007       669  TIP3  H2           -3.9524112470      -10.9152624184        4.6816866527  CLST         669          1.0000000000
      2008       670  TIP3  OH2          -6.0691129313       -2.1888657263        1.1498485172  CLST         670          1.0000000000
      2009       670  TIP3  H1           -6.9268088115       -1.7330513317        1.0602521253  CLST         670          1.0000000000
      2010       670  TIP3  H2           -5.6398888928       -1.4269998122        0.7600147913  CLST         670          1.0000000000
      2011       671  TIP3  OH2           4.0782432627       -9.3939023033      -10.9009623141  CLST         671          1.0000000000
      2012       671  TIP3  H1            3.7105358007       -9.2330563392      -10.0201823888  CLST         671          1.0000000000
      2013       671  TIP3  H2            4.9914350856       -9.0813260647      -10.8676063479  CLST         671          1.0000000000
      2014       672  TIP3  OH2          12.0450685779      -12.6943617318        9.0098288759  CLST         672          1.0000000000
      2015       672  TIP3  H1           11.2352852942      -12.9769797152        9.4407007314  CLST         672          1.0000000000
      2016       672  TIP3  H2           12.5905423357      -12.9094457086        9.7558766215  CLST         672          1.0000000000
      2017       673  TIP3  OH2           6.8931061584       -4.4056122874        6.9107625739  CLST         673          1.0000000000
      2018       673  TIP3  H1            7.5292320866       -3.6784804186        6.7443931959  CLST         673          1.0000000000
      2019       673  TIP3  H2            7.6752210315       -4.8512109267        7.3624174108  CLST         673          1.0000000000
      2020       674  TIP3  OH2          -4.2056625453       -0.8333271327        2.9881233131  CLST         674          1.0000000000
      2021       674  TIP3  H1           -3.4953913549       -1.7065539046        3.1491620133  CLST         674          1.0000000000
      2022       674  TIP3  H2           -4.1286401005       -1.8057619841        2.3969698379  CLST         674          1.0000000000
      2023       675  TIP3  OH2          -9.4292523464        2.2668612022       -3.4963348409  CLST         675          1.0000000000
      2024       675  TIP3  H1           -8.6525739578        2.0098165961       -3.0184879430  CLST         675          1.0000000000
      2025       675  TIP3  H2           -9.8782357558        2.1349387366       -2.6013163902  CLST         675          1.0000000000
      2026       676  TIP3  OH2         -13.6538620367       -0.0838826061      -13.4592421874  CLST         676          1.0000000000
      2027       676  TIP3  H1          -14.1654249433       -0.8959307312      -13.2458836991  CLST         676          1.0000000000
      2028       676  TIP3  H2          -13.2103283394       -0.3806733760      -12.6651886501  CLST         676          1.0000000000
      2029       677  TIP3  OH2           1.9153505233      -12.2693751766        2.4100417783  CLST         677          1.0000000000
      2030       677  TIP3  H1            2.2359048397      -12.4844410695        1.5415593723  CLST         677          1.0000000000
      2031       677  TIP3  H2            1.6948744893      -13.1996714849        2.4951609705  CLST         677          1.0000000000
      2032       678  TIP3  OH2          11.2985199614       -7.0689522802       -8.3943726577  CLST         678          1.0000000000
      2033       678  TIP3  H1           12.1605856678       -7.4262642595       -8.6133102490  CLST         678          1.0000000000
      2034       678  TIP3  H2           11.4671795386       -6.4147442321       -9.0498702636  CLST         678          1.0000000000
      2035       679  TIP3  OH2           7.5266821015       -9.7476709046      -14.1404024042  CLST         679          1.0000000000
      2036       679  TIP3  H1            7.3932831985       -8.9207502072      -14.6498404412  CLST         679          1.0000000000
      2037       679  TIP3  H2            6.6279297704      -10.0483846161      -14.4373896590  CLST         679          1.0000000000
      2038       680  TIP3  OH2           9.7046477141       -8.1614106907       -1.7493777203  CLST         680          1.0000000000
      2039       680  TIP3  H1            9.7023652696       -9.1644260628       -1.8310507181  CLST         680          1.0000000000
      2040       680  TIP3  H2            9.4909892946       -8.0237496303       -2.6511943178  CLST         680          1.0000000000
      2041       681  TIP3  OH2           7.2998515465        9.1365120189       11.3246622723  CLST         681          1.0000000000
      2042       681  TIP3  H1            7.2184285209        8.1917471347       11.1197153740  CLST         681          1.0000000000
      2043       681  TIP3  H2            8.2023016327        9.0297109513       11.0020647016  CLST         681          1.0000000000
      2044       682  TIP3  OH2           7.9217630311       14.1424293619        1.9362231888  CLST         682          1.0000000000
      2045       682  TIP3  H1            7.2735024558       14.1530773959        1.2366460834  CLST         682          1.0000000000
      2046       682  TIP3  H2            7.3332642994       14.5758579012        2.5053146648  CLST         682          1.0000000000
      2047       683  TIP3  OH2           3.4638231995       11.7260695909      -15.0698163604  CLST         683          1.0000000000
      2048       683  TIP3  H1            3.4606508354       11.8147754604      -14.0961868301  CLST         683          1.0000000000
      2049       683  TIP3  H2            3.4721765698       10.7788310499      -14.8375702006  CLST         683          1.0000000000
      2050       684  TIP3  OH2          12.5051616667        2.7972697382      -12.4583720494  CLST         684          1.0000000000
      2051       684  TIP3  H1           12.1501890017        2.3044151427      -11.6973001331  CLST         684          1.0000000000
      2052       684  TIP3  H2           13.0794588925        3.2264846619      -11.7985703973  CLST         684          1.0000000000
      2053       685  TIP3  OH2           3.9391351249       13.4559820483        2.2994530086  CLST         685          1.0000000000
      2054       685  TIP3  H1            4.3389832929       12.5556672452        2.1665952987  CLST         685          1.0000000000
      2055       685  TIP3  H2            3.3453319091       13.1775922136        1.5741503591  CLST         685          1.0000000000
      2056       686  TIP3  OH2          -1.9126696499      -11.9079226772       -5.5155037906  CLST         686          1.0000000000
      2057       686  TIP3  H1           -1.8071382391      -12.4097731065       -4.6563681763  CLST         686          1.0000000000
      2058       686  TIP3  H2           -2.6010618199      -12.5064900194       -5.7725990126  CLST         686          1.0000000000
      2059       687  TIP3  OH2           2.2556314759       10.7944963606       -5.4427207933  CLST         687          1.0000000000
      2060       687  TIP3  H1            2.1171187942       10.9821775685       -4.5264351113  CLST         687          1.0000000000
      2061       687  TIP3  H2            3.0155973752       11.3526586652       -5.2962435850  CLST         687          1.0000000000
      2062       688  TIP3  OH2          -4.6706629159       -0.8551668890      -10.3746310238  CLST         688          1.0000000000
      2063       688  TIP3  H1           -4.5689773850       -0.4828266921       -9.4658448633  CLST         688          1.0000000000
      2064       688  TIP3  H2           -3.7755716046       -0.5867677155      -10.4304941628  CLST         688          1.0000000000
      2065       689  TIP3  OH2         -11.4528496164       -2.6739811379       -7.4120245172  CLST         689          1.0000000000
      2066       689  TIP3  H1          -12.1076188036       -2.5007193561       -6.7113331666  CLST         689          1.0000000000
      2067       689  TIP3  H2          -12.0657233704       -2.4006524605       -8.0893836529  CLST         689          1.0000000000
      2068       690  TIP3  OH2           9.1746178929      -12.5630667670        4.2091989134  CLST         690          1.0000000000
      2069       690  TIP3  H1            9.6233341569      -12.3894579940        5.0719696117  CLST         690          1.0000000000
      2070       690  TIP3  H2            9.7768581957      -11.9616393249        3.7830966345  CLST         690          1.0000000000
      2071       691  TIP3  OH2          -0.7318484324       10.1275614332       13.6651203230  CLST         691          1.0000000000
      2072       691  TIP3  H1           -0.5283705918       10.9807863393       13.2652903880  CLST         691          1.0000000000
      2073       691  TIP3  H2           -0.1154968692       10.3256132823       14.4335159731  CLST         691          1.0000000000
      2074       692  TIP3  OH2           1.4110802010       -6.7452090354        8.6351090820  CLST         692          1.0000000000
      2075       692  TIP3  H1            0.4381724757       -6.7005869394        8.9090920086  CLST         692          1.0000000000
      2076       692  TIP3  H2            1.4539574420       -5.8472677593        8.9927132566  CLST         692          1.0000000000
      2077       693  TIP3  OH2          -9.4468193724       -4.2394873171       -2.8997542110  CLST         693          1.0000000000
      2078       693  TIP3  H1           -8.5415165420       -4.1911934337       -2.5180963208  CLST         693          1.0000000000
      2079       693  TIP3  H2           -9.1872067495       -3.4918364658       -3.4941412840  CLST         693          1.0000000000
      2080       694  TIP3  OH2          -1.7665911365       11.5759002935        5.8455534176  CLST         694          1.0000000000
      2081       694  TIP3  H1           -2.3567425585       12.2862090936        5.5006156894  CLST         694          1.0000000000
      2082       694  TIP3  H2           -1.0799963667       12.2152037923        5.7894809272  CLST         694          1.0000000000
      2083       695  TIP3  OH2           1.7327803593       10.5992535834        7.8013760985  CLST         695          1.0000000000
      2084       695  TIP3  H1            1.2376058866       10.5029168198        7.0266746762  CLST         695          1.0000000000
      2085       695  TIP3  H2            1.1488857979       10.0153681795        8.2889324944  CLST         695          1.0000000000
      2086       696  TIP3  OH2          -4.3088578363        3.0009936228       -6.0251766295  CLST         696          1.0000000000
      2087       696  TIP3  H1           -4.0353265092        3.8441994651       -6.2721077685  CLST         696          1.0000000000
      2088       696  TIP3  H2           -4.5001436824        3.3763994618       -5.1149510882  CLST         696          1.0000000000
      2089       697  TIP3  OH2           2.8709017552        5.5353642697       11.9131095621  CLST         697          1.0000000000
      2090       697  TIP3  H1            2.2208220435        5.4467859011       11.2260195868  CLST         697          1.0000000000
      2091       697  TIP3  H2            3.6650505099        5.4685109577       11.4008035232  CLST         697          1.0000000000
      2092       698  TIP3  OH2          -3.3713961833        4.9975064575       -1.3674890723  CLST         698          1.0000000000
      2093       698  TIP3  H1           -4.0755473110        4.5570350870       -1.4796169037  CLST         698          1.0000000000
      2094       698  TIP3  H2           -4.2659004252        5.5896890647       -1.7053305490  CLST         698          1.0000000000
      2095       699  TIP3  OH2          -1.2757813266       -4.7009280853        3.6266281553  CLST         699          1.0000000000
      2096       699  TIP3  H1           -1.8148019472       -3.9018344271        3.6293670801  CLST         699          1.0000000000
      2097       699  TIP3  H2           -0.9923105712       -4.5889913233        2.7637148847  CLST         699          1.0000000000
      2098       700  TIP3  OH2          -5.0053707030       -8.2738755463        8.8920525399  CLST         700          1.0000000000
      2099       700  TIP3  H1           -4.9878139757       -7.6383407994        8.1500073517  CLST         700          1.0000000000
      2100       700  TIP3  H2           -4.2273237260       -8.7240884083        8.5695238573  CLST         700          1.0000000000
      2101       701  TIP3  OH2         -13.9022044043       10.3233747534        0.1476181810  CLST         701          1.0000000000
      2102       701  TIP3  H1          -13.6351242744        9.5430894593       -0.3587174131  CLST         701          1.0000000000
      2103       701  TIP3  H2          -14.8172318455       10.2627074394       -0.2037139634  CLST         701          1.0000000000
      2104       702  TIP3  OH2          -5.5513101556       -9.5302369767      -12.7162155102  CLST         702          1.0000000000
      2105       702  TIP3  H1           -5.4501379219       -9.7096416194      -11.7722238573  CLST         702          1.0000000000
      2106       702  TIP3  H2           -6.5184669041       -9.4026949285      -12.6109808761  CLST         702          1.0000000000
      2107       703  TIP3  OH2           3.5898507001        6.4109008130       -4.2326794221  CLST         703          1.0000000000
      2108       703  TIP3  H1            2.6185454875        6.2358298041       -3.6812676569  CLST         703          1.0000000000
      2109       703  TIP3  H2            3.1060955114        7.0358313607       -3.9977084062  CLST         703          1.0000000000
      2110       704  TIP3  OH2          -9.9260984511        5.0158190524       11.6742572507  CLST         704          1.0000000000
      2111       704  TIP3  H1          -10.0581531795        5.7440198934       12.3881543701  CLST         704          1.0000000000
      2112       704  TIP3  H2          -10.0788700470        5.7620736914       11.1149826634  CLST         704          1.0000000000
      2113       705  TIP3  OH2          -0.8495951180       -8.9438216633       -7.0496702561  CLST         705          1.0000000000
      2114       705  TIP3  H1           -0.8832483196       -9.6769695807       -7.7399199664  CLST         705          1.0000000000
      2115       705  TIP3  H2           -0.4279466628       -8.4946046187       -7.7870762015  CLST         705          1.0000000000
      2116       706  TIP3  OH2          -2.1121338487       -1.6845192740        4.4418583380  CLST         706          1.0000000000
      2117       706  TIP3  H1           -1.8894805236       -0.7801066655        4.5937388074  CLST         706          1.0000000000
      2118       706  TIP3  H2           -1.2283348890       -1.9409021565        4.7219275035  CLST         706          1.0000000000
      2119       707  TIP3  OH2           8.5187202429       10.7885166814        7.1423117193  CLST         707          1.0000000000
      2120       707  TIP3  H1            8.3000774041       11.3217084116        6.3415326938  CLST         707          1.0000000000
      2121       707  TIP3  H2            7.6093603156       10.4473772408        6.8477700704  CLST         707          1.0000000000
      2122       708  TIP3  OH2          -0.8851564379       -7.9558406862      -12.6210535452  CLST         708          1.0000000000
      2123       708  TIP3  H1           -1.7845266260       -8.3570496677      -12.4570591982  CLST         708          1.0000000000
      2124       708  TIP3  H2           -1.4226553368       -7.6303099773      -13.3451502404  CLST         708          1.0000000000
      2125       709  TIP3  OH2          -6.2828749229       14.2068621468        0.6555213279  CLST         709          1.0000000000
      2126       709  TIP3  H1           -5.3311413596       14.2167588184        0.8692425336  CLST         709          1.0000000000
      2127       709  TIP3  H2           -6.3691879115       14.6537505237        1.5306979881  CLST         709          1.0000000000
      2128       710  TIP3  OH2          -0.9347787984       14.1253294964      -10.4282713816  CLST         710          1.0000000000
      2129       710  TIP3  H1           -0.2989644822       13.7551948912      -11.0388756068  CLST         710          1.0000000000
      2130       710  TIP3  H2           -1.4832731267       13.4135550503      -10.8357519677  CLST         710          1.0000000000
      2131       711  TIP3  OH2          11.7862702597      -11.5270333154      -10.8504801858  CLST         711          1.0000000000
      2132       711  TIP3  H1           12.0832085368      -12.4708169895      -10.9196865116  CLST         711          1.0000000000
      2133       711  TIP3  H2           11.6620039138      -11.2915352296      -11.7721671693  CLST         711          1.0000000000
      2134       712  TIP3  OH2          -3.5827167392      -10.6839480782       11.6395620939  CLST         712          1.0000000000
      2135       712  TIP3  H1           -4.1655096381      -10.1416482906       11.1692509460  CLST         712          1.0000000000
      2136       712  TIP3  H2           -2.8080409040      -10.2296424511       11.2870382024  CLST         712          1.0000000000
      2137       713  TIP3  OH2           6.8639088600        0.1726027013        6.4169826512  CLST         713          1.0000000000
      2138       713  TIP3  H1            7.4872056335        0.2213857456        7.1513747686  CLST         713          1.0000000000
      2139       713  TIP3  H2            7.3746904731       -0.6234806638        6.2138260627  CLST         713          1.0000000000
      2140       714  TIP3  OH2           4.8422855472       12.2432979920        4.4911306044  CLST         714          1.0000000000
      2141       714  TIP3  H1            4.2531658410       12.8299492621        3.9291898927  CLST         714          1.0000000000
      2142       714  TIP3  H2            4.4274011603       12.8183160321        5.1789920721  CLST         714          1.0000000000
      2143       715  TIP3  OH2          -9.0524589884       -9.6299607407        1.6465930219  CLST         715          1.0000000000
      2144       715  TIP3  H1           -9.4142100731       -8.7765140359        1.8592464004  CLST         715          1.0000000000
      2145       715  TIP3  H2           -9.6362016094      -10.1196460945        2.2931292250  CLST         715          1.0000000000
      2146       716  TIP3  OH2         -13.6749191035      -13.3836507130        0.1663687850  CLST         716          1.0000000000
      2147       716  TIP3  H1          -13.8927538158      -13.9293773512       -0.5590241342  CLST         716          1.0000000000
      2148       716  TIP3  H2          -13.7609480373      -12.6220351174       -0.4453917331  CLST         716          1.0000000000
      2149       717  TIP3  OH2          -6.3610207514      -12.1104631584        2.4933760310  CLST         717          1.0000000000
      2150       717  TIP3  H1           -6.3208588982      -11.3790008176        1.8954493338  CLST         717          1.0000000000
      2151       717  TIP3  H2           -7.1190125657      -12.4090239497        1.9944542097  CLST         717          1.0000000000
      2152       718  TIP3  OH2         -11.0455916257        7.1339984603       13.0011147407  CLST         718          1.0000000000
      2153       718  TIP3  H1          -11.5526226902        7.8111577101       13.6093471018  CLST         718          1.0000000000
      2154       718  TIP3  H2          -10.2918680542        7.7322844455       12.8777672203  CLST         718          1.0000000000
      2155       719  TIP3  OH2          10.3829709255       -7.2714121641        2.9571470281  CLST         719          1.0000000000
      2156       719  TIP3  H1           11.3220692276       -7.0235327898        3.0865241527  CLST         719          1.0000000000
      2157       719  TIP3  H2           10.5252489334       -6.9925714941        2.0312327796  CLST         719          1.0000000000
      2158       720  TIP3  OH2          -4.9001519964       13.0902544655       -8.5023143190  CLST         720          1.0000000000
      2159       720  TIP3  H1           -3.9043953606       13.0264857352       -8.4784576407  CLST         720          1.0000000000
      2160       720  TIP3  H2           -4.8510363804       13.6644945920       -7.7229086925  CLST         720          1.0000000000
      2161       721  TIP3  OH2           4.2109023666       -5.9647633702       -9.8342414678  CLST         721          1.0000000000
      2162       721  TIP3  H1            4.4163243987       -5.7916092674       -8.8858088014  CLST         721          1.0000000000
      2163       721  TIP3  H2            4.8573801708       -6.6552154475       -9.7320805226  CLST         721          1.0000000000
      2164       722  TIP3  OH2          10.3901163891       -2.5125848125        2.1213345924  CLST         722          1.0000000000
      2165       722  TIP3  H1            9.9995521839       -3.0635989953        1.4834622649  CLST         722          1.0000000000
      2166       722  TIP3  H2           11.1896027675       -2.2683044503        1.6726926610  CLST         722          1.0000000000
      2167       723  TIP3  OH2           0.2971016257       13.4359199889        6.0553166871  CLST         723          1.0000000000
      2168       723  TIP3  H1            0.5756358074       14.0173113178        5.5625765940  CLST         723          1.0000000000
      2169       723  TIP3  H2            1.3714427698       13.7392134339        5.9884369364  CLST         723          1.0000000000
      2170       724  TIP3  OH2           8.4468720356       -8.1391530895       -4.0496352985  CLST         724          1.0000000000
      2171       724  TIP3  H1            8.6222700634       -8.7494152534       -4.7510525171  CLST         724          1.0000000000
      2172       724  TIP3  H2            8.6465218322       -7.4834996830       -4.7147746361  CLST         724          1.0000000000
      2173       725  TIP3  OH2          -0.8364094869       -0.4324405653        2.1577242997  CLST         725          1.0000000000
      2174       725  TIP3  H1           -1.7410442901       -0.8970718872        2.1605416847  CLST         725          1.0000000000
      2175       725  TIP3  H2           -1.2768028130        0.2955037563        1.6772786461  CLST         725          1.0000000000
      2176       726  TIP3  OH2         -14.1790266522       10.6525565675        6.1241437798  CLST         726          1.0000000000
      2177       726  TIP3  H1          -15.0433697265       10.7472985646        5.8460094155  CLST         726          1.0000000000
      2178       726  TIP3  H2          -13.8685727599       11.6074777373        5.9123394165  CLST         726          1.0000000000
      2179       727  TIP3  OH2          -4.1531777761      -13.7351866463       -0.4803172454  CLST         727          1.0000000000
      2180       727  TIP3  H1           -3.2489361510      -13.7539268589        0.1761455594  CLST         727          1.0000000000
      2181       727  TIP3  H2           -3.4847186656      -12.8795862471       -0.1972572749  CLST         727          1.0000000000
      2182       728  TIP3  OH2          -8.1794649039        3.3324199180       -0.7034399100  CLST         728          1.0000000000
      2183       728  TIP3  H1           -7.6598862943        2.5677568175       -0.4178452046  CLST         728          1.0000000000
      2184       728  TIP3  H2           -8.9522252023        2.7105034236       -0.8155224861  CLST         728          1.0000000000
      2185       729  TIP3  OH2          10.6045242765      -10.6530154096        2.7721735686  CLST         729          1.0000000000
      2186       729  TIP3  H1           11.2213211402       -9.9973609466        3.0454503371  CLST         729          1.0000000000
      2187       729  TIP3  H2           11.3548069170      -11.2229487714        2.4678902937  CLST         729          1.0000000000
      2188       730  TIP3  OH2          -4.2581981055       11.0970905195       -5.3631091589  CLST         730          1.0000000000
      2189       730  TIP3  H1           -4.0838819637       10.3422668375       -5.9024590185  CLST         730          1.0000000000
      2190       730  TIP3  H2           -5.1877635430       11.0851594773       -5.5901357248  CLST         730          1.0000000000
      2191       731  TIP3  OH2          13.2301542320       12.4839654216       -4.3838694002  CLST         731          1.0000000000
      2192       731  TIP3  H1           13.5811674041       12.9129792295       -5.1236109047  CLST         731          1.0000000000
      2193       731  TIP3  H2           12.7087467284       11.8307800547       -4.9675498788  CLST         731          1.0000000000
      2194       732  TIP3  OH2          -2.8772933099       -1.2710995051       -2.2224283376  CLST         732          1.0000000000
      2195       732  TIP3  H1           -3.7603767780       -0.9921022095       -1.5738364000  CLST         732          1.0000000000
      2196       732  TIP3  H2           -3.8171164181       -0.7341920005       -2.5289401450  CLST         732          1.0000000000
      2197       733  TIP3  OH2           5.6814445132        2.1234018172       13.0329769984  CLST         733          1.0000000000
      2198       733  TIP3  H1            5.4009389090        1.4079717417       12.4890343410  CLST         733          1.0000000000
      2199       733  TIP3  H2            4.8448817186        2.0551063078       13.5056524992  CLST         733          1.0000000000
      2200       734  TIP3  OH2           8.2915234583       -2.1614467660        5.9071903537  CLST         734          1.0000000000
      2201       734  TIP3  H1            8.1839076981       -2.9153357206        5.2300195707  CLST         734          1.0000000000
      2202       734  TIP3  H2            9.2967101694       -2.1967961649        5.7447128146  CLST         734          1.0000000000
      2203       735  TIP3  OH2         -10.6708654785      -12.5103346506        0.6733587620  CLST         735          1.0000000000
      2204       735  TIP3  H1          -10.7894728799      -12.1052864489        1.6090458786  CLST         735          1.0000000000
      2205       735  TIP3  H2          -11.6139517026      -12.7513481757        0.7491656310  CLST         735          1.0000000000
      2206       736  TIP3  OH2          13.3100713738        2.4241005100        2.7416393890  CLST         736          1.0000000000
      2207       736  TIP3  H1           14.0722296982        2.0545282810        2.0047845859  CLST         736          1.0000000000
      2208       736  TIP3  H2           13.1160420044        1.9290526729        1.7576373723  CLST         736          1.0000000000
      2209       737  TIP3  OH2          11.5340931397       -1.9458405264        8.0377830212  CLST         737          1.0000000000
      2210       737  TIP3  H1           11.1845291365       -2.1257789909        7.0872026441  CLST         737          1.0000000000
      2211       737  TIP3  H2           11.4275163512       -1.0077794604        7.7902227172  CLST         737          1.0000000000
      2212       738  TIP3  OH2          10.4249588209        1.1720084912       14.2012590331  CLST         738          1.0000000000
      2213       738  TIP3  H1            9.4844183027        0.8843306121       14.0952953795  CLST         738          1.0000000000
      2214       738  TIP3  H2           10.4994120929        0.2280581213       14.3471325084  CLST         738          1.0000000000
      2215       739  TIP3  OH2         -13.2087700568        1.4207848017       10.1722235801  CLST         739          1.0000000000
      2216       739  TIP3  H1          -13.9902588204        1.4393755272       10.7534415795  CLST         739          1.0000000000
      2217       739  TIP3  H2          -13.6859428069        0.7227761038        9.7203527017  CLST         739          1.0000000000
      2218       740  TIP3  OH2           5.9607941095      -14.1878674624       -5.2954483793  CLST         740          1.0000000000
      2219       740  TIP3  H1            5.4560719715      -14.8729348978       -5.6644425254  CLST         740          1.0000000000
      2220       740  TIP3  H2            6.6810891316      -14.8168358601       -5.4562208452  CLST         740          1.0000000000
      2221       741  TIP3  OH2          11.4921533397        5.0948449644        9.1393166104  CLST         741          1.0000000000
      2222       741  TIP3  H1           12.4317271087        4.7597650608        8.9211132142  CLST         741          1.0000000000
      2223       741  TIP3  H2           11.4179235032        4.1082741993        9.1642097673  CLST         741          1.0000000000
      2224       742  TIP3  OH2           8.3517566122       -9.5029510564       -6.3625123664  CLST         742          1.0000000000
      2225       742  TIP3  H1            8.2261157516      -10.4420913658       -6.2626343495  CLST         742          1.0000000000
      2226       742  TIP3  H2            7.6854859696       -9.5652582927       -7.0078264918  CLST         742          1.0000000000
      2227       743  TIP3  OH2          -7.4035389051       -0.1306276992      -10.8466921625  CLST         743          1.0000000000
      2228       743  TIP3  H1           -6.7606905920        0.6277692787      -10.2715670719  CLST         743          1.0000000000
      2229       743  TIP3  H2           -6.3501163410       -0.2283630463      -10.5762504338  CLST         743          1.0000000000
      2230       744  TIP3  OH2          -6.1714330164        3.6747069466        5.2522375683  CLST         744          1.0000000000
      2231       744  TIP3  H1           -5.3163083008        3.3161377302        5.5981052378  CLST         744          1.0000000000
      2232       744  TIP3  H2           -5.9254404312        4.5988464912        5.3431489113  CLST         744          1.0000000000
      2233       745  TIP3  OH2           0.5608820211       -8.2935637369        6.6215893089  CLST         745          1.0000000000
      2234       745  TIP3  H1            1.1248750267       -9.0564660672        6.7092307776  CLST         745          1.0000000000
      2235       745  TIP3  H2            0.9425414777       -8.0689407746        7.5188868000  CLST         745          1.0000000000
      2236       746  TIP3  OH2          -7.9630491858       -4.2742579742       -5.7708878413  CLST         746          1.0000000000
      2237       746  TIP3  H1           -7.9715199528       -5.1522292405       -6.1947971481  CLST         746          1.0000000000
      2238       746  TIP3  H2           -8.3364701037       -3.7360640982       -6.4442028076  CLST         746          1.0000000000
      2239       747  TIP3  OH2          11.2885244315       11.9452967086        2.0900842905  CLST         747          1.0000000000
      2240       747  TIP3  H1           10.7333902208       12.4372961196        2.7174570481  CLST         747          1.0000000000
      2241       747  TIP3  H2           11.4525285661       11.3931841099        2.8577573506  CLST         747          1.0000000000
      2242       748  TIP3  OH2           3.4771056984        4.6483099018        8.5054923401  CLST         748          1.0000000000
      2243       748  TIP3  H1            4.1719271006        4.6443321077        9.1625082672  CLST         748          1.0000000000
      2244       748  TIP3  H2            2.9521293194        5.2543940647        9.0690791271  CLST         748          1.0000000000
      2245       749  TIP3  OH2          10.6929579596        9.3950997728        6.2177524781  CLST         749          1.0000000000
      2246       749  TIP3  H1           10.3873450966        8.8069093133        7.1323850826  CLST         749          1.0000000000
      2247       749  TIP3  H2            9.9919933204        9.7062144152        7.0139404167  CLST         749          1.0000000000
      2248       750  TIP3  OH2         -14.1265674362       12.1273841725       -7.7457629826  CLST         750          1.0000000000
      2249       750  TIP3  H1          -15.0698163604       11.9582001306       -7.8346354897  CLST         750          1.0000000000
      2250       750  TIP3  H2          -13.8971928015       11.7520408053       -8.5812697283  CLST         750          1.0000000000
      2251       751  TIP3  OH2           8.3296133155        4.2533967434       -4.2577737106  CLST         751          1.0000000000
      2252       751  TIP3  H1            7.5473661298        4.0254493714       -4.7383517773  CLST         751          1.0000000000
      2253       751  TIP3  H2            8.2452283694        3.4043605752       -3.7948605662  CLST         751          1.0000000000
      2254       752  TIP3  OH2         -12.2443809975       13.1287267582        2.1519378132  CLST         752          1.0000000000
      2255       752  TIP3  H1          -12.8810340167       13.3875523834        1.4933679389  CLST         752          1.0000000000
      2256       752  TIP3  H2          -12.0648744640       12.3949150949        1.5698711920  CLST         752          1.0000000000
      2257       753  TIP3  OH2           8.8271391092        2.4776687671       -6.8609841274  CLST         753          1.0000000000
      2258       753  TIP3  H1            8.4759605382        3.2331284030       -7.3696220793  CLST         753          1.0000000000
      2259       753  TIP3  H2            7.9833573859        2.3921295571       -6.3521344538  CLST         753          1.0000000000
      2260       754  TIP3  OH2          11.4691301126        2.5830597547       -6.0187008320  CLST         754          1.0000000000
      2261       754  TIP3  H1           11.2975302627        2.8091025695       -5.0963514589  CLST         754          1.0000000000
      2262       754  TIP3  H2           10.5372768326        2.4358595964       -6.1703445014  CLST         754          1.0000000000
      2263       755  TIP3  OH2           7.3855989483       -1.6537652854       -0.3431050303  CLST         755          1.0000000000
      2264       755  TIP3  H1            6.4553989933       -1.8527313143       -0.2727171953  CLST         755          1.0000000000
      2265       755  TIP3  H2            7.2845879701       -0.7295888231       -0.5054479156  CLST         755          1.0000000000
      2266       756  TIP3  OH2         -12.7738647860        6.5333355346        6.0702028910  CLST         756          1.0000000000
      2267       756  TIP3  H1          -12.7204417269        5.5961050318        6.1792069616  CLST         756          1.0000000000
      2268       756  TIP3  H2          -12.2151726144        6.5508995119        6.8928178134  CLST         756          1.0000000000
      2269       757  TIP3  OH2          -4.6690809001       -4.9497424435       -2.1512606294  CLST         757          1.0000000000
      2270       757  TIP3  H1           -4.1210801100       -5.1789097978       -2.9193780421  CLST         757          1.0000000000
      2271       757  TIP3  H2           -4.9535661381       -4.2609571724       -2.7972822555  CLST         757          1.0000000000
      2272       758  TIP3  OH2          12.1294407428        4.6355043584       -0.8274942839  CLST         758          1.0000000000
      2273       758  TIP3  H1           12.3664562786        5.1220629147       -0.0160077731  CLST         758          1.0000000000
      2274       758  TIP3  H2           12.8472893685        4.0820610021       -0.3984004015  CLST         758          1.0000000000
      2275       759  TIP3  OH2          -7.4883085748       11.6964158282      -11.0936871515  CLST         759          1.0000000000
      2276       759  TIP3  H1           -7.0277710412       12.0826699998      -11.8566805854  CLST         759          1.0000000000
      2277       759  TIP3  H2           -6.7507654182       11.9718794702      -10.6045725467  CLST         759          1.0000000000
      2278       760  TIP3  OH2           8.2074248340       14.4083716403       -6.0166744958  CLST         760          1.0000000000
      2279       760  TIP3  H1            8.7668642765       14.9299295398       -6.6036274491  CLST         760          1.0000000000
      2280       760  TIP3  H2            8.0928768404       13.7648943998       -6.7191693191  CLST         760          1.0000000000
      2281       761  TIP3  OH2          -6.9162556790        7.8413573291      -11.5462474795  CLST         761          1.0000000000
      2282       761  TIP3  H1           -7.7745678557        7.5957354261      -11.9094199509  CLST         761          1.0000000000
      2283       761  TIP3  H2           -7.3386528903        7.9860283033      -10.7127101651  CLST         761          1.0000000000
      2284       762  TIP3  OH2           7.9441145374       -6.1581865341      -13.0728044398  CLST         762          1.0000000000
      2285       762  TIP3  H1            7.3632086392       -6.6821952040      -12.5442134211  CLST         762          1.0000000000
      2286       762  TIP3  H2            7.6890026728       -5.3513257325      -12.5580489091  CLST         762          1.0000000000
      2287       763  TIP3  OH2          -1.2535861257       -6.2406617393        9.0848947736  CLST         763          1.0000000000
      2288       763  TIP3  H1           -1.6508825244       -5.3618699065        8.8209408856  CLST         763          1.0000000000
      2289       763  TIP3  H2           -1.9499769587       -6.1683774224        9.7868251939  CLST         763          1.0000000000
      2290       764  TIP3  OH2           8.8456067284      -11.2202694985        0.7536815596  CLST         764          1.0000000000
      2291       764  TIP3  H1            8.2218995511      -10.4988049171        0.8096059027  CLST         764          1.0000000000
      2292       764  TIP3  H2            9.4377897478      -10.8299328502        1.3829298633  CLST         764          1.0000000000
      2293       765  TIP3  OH2         -14.6005704930      -12.2278662171       12.7403857057  CLST         765          1.0000000000
      2294       765  TIP3  H1          -13.9676916026      -11.7878486825       13.2368274286  CLST         765          1.0000000000
      2295       765  TIP3  H2          -15.0263508019      -11.3692882265       12.6819907709  CLST         765          1.0000000000
      2296       766  TIP3  OH2          11.5795203269       -8.3997452792      -11.9365953543  CLST         766          1.0000000000
      2297       766  TIP3  H1           10.9728071173       -8.0270893959      -12.5532738032  CLST         766          1.0000000000
      2298       766  TIP3  H2           10.8561264865       -8.5237092567      -11.3766452466  CLST         766          1.0000000000
      2299       767  TIP3  OH2           2.4120250905       12.4087330597      -12.7265681158  CLST         767          1.0000000000
      2300       767  TIP3  H1            2.6076405704       11.9901281729      -11.9022025564  CLST         767          1.0000000000
      2301       767  TIP3  H2            2.3231776906       13.2095468994      -12.2289967546  CLST         767          1.0000000000
      2302       768  TIP3  OH2           7.5847217917        7.0815614221        8.2552324433  CLST         768          1.0000000000
      2303       768  TIP3  H1            8.5044957475        6.9378527638        8.5765601509  CLST         768          1.0000000000
      2304       768  TIP3  H2            7.6516967481        6.1096915102        8.4393922083  CLST         768          1.0000000000
      2305       769  TIP3  OH2         -11.9047985596        3.2003246148        0.8685096400  CLST         769          1.0000000000
      2306       769  TIP3  H1          -11.3314277811        2.9521144349        1.7818214968  CLST         769          1.0000000000
      2307       769  TIP3  H2          -12.3289478199        3.0562139801        1.8945425057  CLST         769          1.0000000000
      2308       770  TIP3  OH2          10.1128511137       -4.7815332500       11.4311881300  CLST         770          1.0000000000
      2309       770  TIP3  H1            9.8780405354       -3.9642572122       10.9224070664  CLST         770          1.0000000000
      2310       770  TIP3  H2           10.7998158914       -4.8863718826       10.7671596696  CLST         770          1.0000000000
      2311       771  TIP3  OH2         -10.2779724850        1.2371164260       -5.8237778657  CLST         771          1.0000000000
      2312       771  TIP3  H1           -9.3972920351        0.8968812124       -5.6562220753  CLST         771          1.0000000000
      2313       771  TIP3  H2          -10.2410523015        1.6638339685       -4.9593385611  CLST         771          1.0000000000
      2314       772  TIP3  OH2          12.8490917722      -12.4463307930       -6.6939216051  CLST         772          1.0000000000
      2315       772  TIP3  H1           12.7884261873      -11.5171102492       -6.7789667407  CLST         772          1.0000000000
      2316       772  TIP3  H2           12.2156254942      -12.3760221560       -5.9848530612  CLST         772          1.0000000000
      2317       773  TIP3  OH2          12.0101727919       -4.8995699739        3.5076728277  CLST         773          1.0000000000
      2318       773  TIP3  H1           11.6619083393       -4.1881422888        4.0203083766  CLST         773          1.0000000000
      2319       773  TIP3  H2           12.0638085610       -4.6795595475        2.6382429222  CLST         773          1.0000000000
      2320       774  TIP3  OH2          -7.9491658294       -0.2409449992       -5.8873567576  CLST         774          1.0000000000
      2321       774  TIP3  H1           -6.8474245012       -0.4047691553       -6.2561729493  CLST         774          1.0000000000
      2322       774  TIP3  H2           -7.4211805438        0.4008927374       -6.0053370637  CLST         774          1.0000000000
      2323       775  TIP3  OH2           2.3544988819        1.6715293310        5.5330212080  CLST         775          1.0000000000
      2324       775  TIP3  H1            2.4204059400        1.5330691516        6.5081176691  CLST         775          1.0000000000
      2325       775  TIP3  H2            2.7229634206        2.5395790476        5.7952831926  CLST         775          1.0000000000
      2326       776  TIP3  OH2           0.0675439971        9.6421061814        5.6634237117  CLST         776          1.0000000000
      2327       776  TIP3  H1           -0.5113883025       10.4043960922        5.4057220404  CLST         776          1.0000000000
      2328       776  TIP3  H2           -0.8216375096        9.2987932401        5.8552883327  CLST         776          1.0000000000
      2329       777  TIP3  OH2         -12.9052593333      -10.0369435246        0.0578398488  CLST         777          1.0000000000
      2330       777  TIP3  H1          -12.6264458825       -9.1180255734       -0.0656282506  CLST         777          1.0000000000
      2331       777  TIP3  H2          -12.9432981869       -9.7138176508        0.9844548417  CLST         777          1.0000000000
      2332       778  TIP3  OH2         -11.8231550571        5.4949061456       -0.5188264337  CLST         778          1.0000000000
      2333       778  TIP3  H1          -12.0279786288        4.6446333560       -0.1373340996  CLST         778          1.0000000000
      2334       778  TIP3  H2          -11.5144795918        5.0318747107       -1.2759894086  CLST         778          1.0000000000
      2335       779  TIP3  OH2          -6.3037288470        5.2592453993       -1.6226667673  CLST         779          1.0000000000
      2336       779  TIP3  H1           -6.9057900487        4.6283542100       -1.1839826464  CLST         779          1.0000000000
      2337       779  TIP3  H2           -6.8156011223        5.9152264893       -1.0980127847  CLST         779          1.0000000000
      2338       780  TIP3  OH2           2.4010164478       14.0912530344       -8.7272257237  CLST         780          1.0000000000
      2339       780  TIP3  H1            1.9463457280       14.9835817371       -9.3111674358  CLST         780          1.0000000000
      2340       780  TIP3  H2            2.6535043431       14.4280614785       -9.7336557570  CLST         780          1.0000000000
      2341       781  TIP3  OH2           9.1123124534       -8.7742002054       -9.4016721589  CLST         781          1.0000000000
      2342       781  TIP3  H1           10.0342759073       -8.9299490374       -9.0614006698  CLST         781          1.0000000000
      2343       781  TIP3  H2            9.0881924887       -9.7724693464       -9.4588730110  CLST         781          1.0000000000
      2344       782  TIP3  OH2          -0.0046025943        2.6791368923        4.3988984194  CLST         782          1.0000000000
      2345       782  TIP3  H1           -0.3503979076        1.8646639168        4.5487227449  CLST         782          1.0000000000
      2346       782  TIP3  H2            0.8148603512        2.3346287316        4.6678072327  CLST         782          1.0000000000
      2347       783  TIP3  OH2          -7.2874232771      -12.5913664049      -13.5289464027  CLST         783          1.0000000000
      2348       783  TIP3  H1           -7.9831368526      -12.3423380216      -12.8274030780  CLST         783          1.0000000000
      2349       783  TIP3  H2           -8.0002029907      -12.5325253686      -14.1900410716  CLST         783          1.0000000000
      2350       784  TIP3  OH2          14.4462526286        5.3243031960       -4.0897285234  CLST         784          1.0000000000
      2351       784  TIP3  H1           14.9908275058        6.1429445311       -4.0438350441  CLST         784          1.0000000000
      2352       784  TIP3  H2           13.9147917573        5.6559548308       -4.8259089391  CLST         784          1.0000000000
      2353       785  TIP3  OH2          10.4690792046        7.8891644802        1.0481183996  CLST         785          1.0000000000
      2354       785  TIP3  H1           10.7146461395        8.1648057894        1.8968753548  CLST         785          1.0000000000
      2355       785  TIP3  H2           11.3506657775        8.1439406511        0.8096862734  CLST         785          1.0000000000
      2356       786  TIP3  OH2          12.6201017011        3.3512441005       12.5429165262  CLST         786          1.0000000000
      2357       786  TIP3  H1           12.9288825794        4.4114023530       12.5401940082  CLST         786          1.0000000000
      2358       786  TIP3  H2           12.0638952710        4.2094076304       13.0573787497  CLST         786          1.0000000000
      2359       787  TIP3  OH2          -8.1084000304        0.1373893946       11.4954623742  CLST         787          1.0000000000
      2360       787  TIP3  H1           -8.8613910199        0.7201502569       11.3074144720  CLST         787          1.0000000000
      2361       787  TIP3  H2           -8.8359118204       -0.4615233082       11.6405887829  CLST         787          1.0000000000
      2362       788  TIP3  OH2           2.3702384959      -13.1271697271       10.9798992810  CLST         788          1.0000000000
      2363       788  TIP3  H1            2.6673876090      -13.1562248760       11.8942477539  CLST         788          1.0000000000
      2364       788  TIP3  H2            2.7231371713      -13.9849124826       10.8763770737  CLST         788          1.0000000000
      2365       789  TIP3  OH2          -7.1101168825        1.1561254595       -3.2043335791  CLST         789          1.0000000000
      2366       789  TIP3  H1           -6.5546024328        0.3820263299       -3.1433241021  CLST         789          1.0000000000
      2367       789  TIP3  H2           -6.7719736839        1.2509576728       -4.0614687553  CLST         789          1.0000000000
      2368       790  TIP3  OH2         -11.2861748033       -9.2091657588        5.7414867967  CLST         790          1.0000000000
      2369       790  TIP3  H1          -11.4330096222       -9.2141917960        6.6607411157  CLST         790          1.0000000000
      2370       790  TIP3  H2          -11.5260254119       -8.2346016666        5.6581214021  CLST         790          1.0000000000
      2371       791  TIP3  OH2          -4.9038868271       -5.8050947452      -10.7187874334  CLST         791          1.0000000000
      2372       791  TIP3  H1           -3.9631539705       -5.8280981318      -10.7657121521  CLST         791          1.0000000000
      2373       791  TIP3  H2           -4.9250388476       -4.9595594121      -11.2168104633  CLST         791          1.0000000000
      2374       792  TIP3  OH2           6.9902670937       -4.0007001265        9.7026213452  CLST         792          1.0000000000
      2375       792  TIP3  H1            7.4460944030       -4.7444072998        9.3169418341  CLST         792          1.0000000000
      2376       792  TIP3  H2            7.8528135918       -3.6303809278        9.7022814197  CLST         792          1.0000000000
      2377       793  TIP3  OH2          -3.2570179887       12.7648048116       -3.9087002360  CLST         793          1.0000000000
      2378       793  TIP3  H1           -3.5052794075       12.6419362120       -2.9824090220  CLST         793          1.0000000000
      2379       793  TIP3  H2           -3.3366892927       11.8495276900       -4.0976163790  CLST         793          1.0000000000
      2380       794  TIP3  OH2          -1.0077076688        2.7834820047       -6.5665688594  CLST         794          1.0000000000
      2381       794  TIP3  H1           -1.1403313026        2.2358998309       -7.3710863565  CLST         794          1.0000000000
      2382       794  TIP3  H2           -1.0977077405        3.5084298065       -7.2138087350  CLST         794          1.0000000000
      2383       795  TIP3  OH2          -1.9092551476       -9.3838087155        1.2799797703  CLST         795          1.0000000000
      2384       795  TIP3  H1           -2.6750489918       -9.8375470584        0.9349031558  CLST         795          1.0000000000
      2385       795  TIP3  H2           -1.5971107250      -10.0434462628        1.9477587079  CLST         795          1.0000000000
      2386       796  TIP3  OH2           2.7768214071        4.5381248654        4.8777191090  CLST         796          1.0000000000
      2387       796  TIP3  H1            3.3668887218        4.1297398259        4.0343076908  CLST         796          1.0000000000
      2388       796  TIP3  H2            3.7575124588        4.4496014101        5.0839835757  CLST         796          1.0000000000
      2389       797  TIP3  OH2         -11.6498980098        5.5883030343       -3.1593508532  CLST         797          1.0000000000
      2390       797  TIP3  H1          -12.2435594073        6.2594982923       -3.4742679963  CLST         797          1.0000000000
      2391       797  TIP3  H2          -11.2182738655        5.4932445005       -4.0047335942  CLST         797          1.0000000000
      2392       798  TIP3  OH2         -11.2242102501        9.5564467946       10.5645874992  CLST         798          1.0000000000
      2393       798  TIP3  H1          -11.5787593623       10.4157540962       10.1894221335  CLST         798          1.0000000000
      2394       798  TIP3  H2          -11.2604485930       10.0736141709       11.3858988477  CLST         798          1.0000000000
      2395       799  TIP3  OH2           4.0648786926       -1.8036528195      -12.6881635863  CLST         799          1.0000000000
      2396       799  TIP3  H1            4.8930503921       -1.2653408137      -12.8854161021  CLST         799          1.0000000000
      2397       799  TIP3  H2            4.3195720707       -2.4317779661      -13.3472768943  CLST         799          1.0000000000
      2398       800  TIP3  OH2         -10.1735192103        7.1356442742        9.9388604096  CLST         800          1.0000000000
      2399       800  TIP3  H1          -10.7020080907        7.9083809027       10.1841204884  CLST         800          1.0000000000
      2400       800  TIP3  H2           -9.4514061007        7.7575309820        9.8793660398  CLST         800          1.0000000000
      2401       801  TIP3  OH2           8.2218707796      -11.1756444130      -10.4318946551  CLST         801          1.0000000000
      2402       801  TIP3  H1            8.3573318000      -12.0426363013      -10.1495446826  CLST         801          1.0000000000
      2403       801  TIP3  H2            8.8055630626      -11.3117584129      -11.1813011728  CLST         801          1.0000000000
      2404       802  TIP3  OH2           5.4841319994       -0.2503727642       11.6929138181  CLST         802          1.0000000000
      2405       802  TIP3  H1            4.9140944295       -0.1492750500       10.8796818575  CLST         802          1.0000000000
      2406       802  TIP3  H2            6.1553711158       -0.6544094868       11.1606292848  CLST         802          1.0000000000
      2407       803  TIP3  OH2           6.5250675895       -9.5118203225       -0.0357741671  CLST         803          1.0000000000
      2408       803  TIP3  H1            6.2389723364      -10.4284071132       -0.2047084372  CLST         803          1.0000000000
      2409       803  TIP3  H2            5.9028039620       -9.4797084012        0.7110554001  CLST         803          1.0000000000
      2410       804  TIP3  OH2           5.3248383286        6.3928736704        1.9634371737  CLST         804          1.0000000000
      2411       804  TIP3  H1            4.9065734260        5.6969570615        1.1799747563  CLST         804          1.0000000000
      2412       804  TIP3  H2            5.6871214578        5.3742208673        1.7087196799  CLST         804          1.0000000000
      2413       805  TIP3  OH2           7.3357283949       -4.5224916886       14.2647298799  CLST         805          1.0000000000
      2414       805  TIP3  H1            8.2239129789       -4.5273437449       13.9883980054  CLST         805          1.0000000000
      2415       805  TIP3  H2            7.6945607475       -4.9601535893       15.0653208552  CLST         805          1.0000000000
      2416       806  TIP3  OH2           8.4448748831        9.9447915822       13.5435666752  CLST         806          1.0000000000
      2417       806  TIP3  H1            7.9568056958        9.1295612246       13.4876853103  CLST         806          1.0000000000
      2418       806  TIP3  H2            8.1767764541       10.1743920543       12.6690458783  CLST         806          1.0000000000
      2419       807  TIP3  OH2          -3.8665001676        8.0659081641        0.9920429260  CLST         807          1.0000000000
      2420       807  TIP3  H1           -3.7349570699        9.0283691454        1.1442849892  CLST         807          1.0000000000
      2421       807  TIP3  H2           -4.0219218618        7.9317335369        1.9305427045  CLST         807          1.0000000000
      2422       808  TIP3  OH2          -3.6322721286       14.0091395379        1.3374118638  CLST         808          1.0000000000
      2423       808  TIP3  H1           -3.0881295223       14.5006141563        1.9982199886  CLST         808          1.0000000000
      2424       808  TIP3  H2           -2.7859258073       13.7895122538        1.0301921571  CLST         808          1.0000000000
      2425       809  TIP3  OH2           2.0592937641       12.7667358524        9.3736382577  CLST         809          1.0000000000
      2426       809  TIP3  H1            1.7088524776       11.9120324359        9.0574439715  CLST         809          1.0000000000
      2427       809  TIP3  H2            1.1957559046       13.1370805262        9.2661754641  CLST         809          1.0000000000
      2428       810  TIP3  OH2          -1.9159576870        8.6680742803        8.7376149263  CLST         810          1.0000000000
      2429       810  TIP3  H1           -0.8050674451        8.5047432475        8.7531604823  CLST         810          1.0000000000
      2430       810  TIP3  H2           -1.5499290347        8.5894002022        9.4510457314  CLST         810          1.0000000000
      2431       811  TIP3  OH2          -3.8096269611      -12.3450856918       -9.1054136643  CLST         811          1.0000000000
      2432       811  TIP3  H1           -3.8647274691      -12.9433562146       -9.8091762494  CLST         811          1.0000000000
      2433       811  TIP3  H2           -4.3151502146      -11.5556481747       -9.4479518649  CLST         811          1.0000000000
      2434       812  TIP3  OH2          10.7436104671        4.3726025657      -13.6127978582  CLST         812          1.0000000000
      2435       812  TIP3  H1           11.2431196608        3.5719613530      -13.4888879899  CLST         812          1.0000000000
      2436       812  TIP3  H2           11.3995778610        4.7670562105      -14.1576982496  CLST         812          1.0000000000
      2437       813  TIP3  OH2          -2.4125800454        0.6970757738      -14.0249804875  CLST         813          1.0000000000
      2438       813  TIP3  H1           -2.5444902503        1.4488195781      -14.6733595226  CLST         813          1.0000000000
      2439       813  TIP3  H2           -3.4296854452        0.7320708840      -14.0786209776  CLST         813          1.0000000000
      2440       814  TIP3  OH2          -7.3870235479        8.2893693967       -8.9551819000  CLST         814          1.0000000000
      2441       814  TIP3  H1           -7.0438323898        9.1863159833       -8.8812704086  CLST         814          1.0000000000
      2442       814  TIP3  H2           -6.4737876924        7.9842695614       -8.8625393685  CLST         814          1.0000000000
      2443       815  TIP3  OH2          -5.2983094667        1.0466327543       -8.8978385552  CLST         815          1.0000000000
      2444       815  TIP3  H1           -4.9603475222        1.5728040887       -8.1955289174  CLST         815          1.0000000000
      2445       815  TIP3  H2           -5.7198170671        1.8578299036       -9.1985971762  CLST         815          1.0000000000
      2446       816  TIP3  OH2          -8.2997859516      -13.5973987967        1.4865051374  CLST         816          1.0000000000
      2447       816  TIP3  H1           -8.5919026631      -14.5024844516        1.6980057331  CLST         816          1.0000000000
      2448       816  TIP3  H2           -9.2008060391      -13.4647275659        1.3348520766  CLST         816          1.0000000000
      2449       817  TIP3  OH2           3.6906440402       14.4133401631       10.7976180055  CLST         817          1.0000000000
      2450       817  TIP3  H1            2.7362659482       13.7653419368       10.7321599611  CLST         817          1.0000000000
      2451       817  TIP3  H2            3.0834650576       13.8427491975       11.7023956559  CLST         817          1.0000000000
      2452       818  TIP3  OH2          11.5036504696       -3.3567795682       -5.7607622813  CLST         818          1.0000000000
      2453       818  TIP3  H1           11.4496304922       -2.6148350867       -5.1557549842  CLST         818          1.0000000000
      2454       818  TIP3  H2           10.5282851478       -3.1519957273       -5.7933130309  CLST         818          1.0000000000
      2455       819  TIP3  OH2           0.2321953069       -0.0370456676      -10.5244835378  CLST         819          1.0000000000
      2456       819  TIP3  H1            0.7913710812       -0.7643599119      -10.7728235004  CLST         819          1.0000000000
      2457       819  TIP3  H2            1.0391649796        0.4309354298      -10.8473827609  CLST         819          1.0000000000
      2458       820  TIP3  OH2         -11.3619524089       -7.7371591891       14.2678305853  CLST         820          1.0000000000
      2459       820  TIP3  H1          -11.4660060868       -8.4146473454       14.9959825394  CLST         820          1.0000000000
      2460       820  TIP3  H2          -11.8780404074       -8.3215865185       13.7496349470  CLST         820          1.0000000000
      2461       821  TIP3  OH2          11.8173165456       -1.0190635289       14.8601475009  CLST         821          1.0000000000
      2462       821  TIP3  H1           12.6079129249       -0.5472038918       14.5706092599  CLST         821          1.0000000000
      2463       821  TIP3  H2           12.0331961649       -1.8189471793       14.4303176688  CLST         821          1.0000000000
      2464       822  TIP3  OH2          -7.2281237913       14.2955987379        9.3215943152  CLST         822          1.0000000000
      2465       822  TIP3  H1           -7.4735096889       14.2571784158        8.3816897278  CLST         822          1.0000000000
      2466       822  TIP3  H2           -6.9322713276       13.3839399969        9.1513675092  CLST         822          1.0000000000
      2467       823  TIP3  OH2          -9.4165102853       -1.7087131289        7.4297043158  CLST         823          1.0000000000
      2468       823  TIP3  H1           -9.7352997028       -2.5699501473        7.8345558424  CLST         823          1.0000000000
      2469       823  TIP3  H2           -8.5901497792       -1.9347094802        7.8836974996  CLST         823          1.0000000000
      2470       824  TIP3  OH2          10.9258390076        0.7163791557        6.8622026469  CLST         824          1.0000000000
      2471       824  TIP3  H1           11.0723695079        0.6460238416        5.9199022365  CLST         824          1.0000000000
      2472       824  TIP3  H2           10.5111309565        1.5526689276        6.5369193515  CLST         824          1.0000000000
      2473       825  TIP3  OH2          -4.7032133543      -11.7891644972      -14.0579686186  CLST         825          1.0000000000
      2474       825  TIP3  H1           -5.5753116013      -12.2317078321      -14.0802775973  CLST         825          1.0000000000
      2475       825  TIP3  H2           -5.0087175631      -11.1424083185      -13.4203802538  CLST         825          1.0000000000
      2476       826  TIP3  OH2           4.2192708625      -14.0554858699        2.3542248899  CLST         826          1.0000000000
      2477       826  TIP3  H1            4.1226591051      -14.9894040669        2.4746895655  CLST         826          1.0000000000
      2478       826  TIP3  H2            5.1390368053      -14.2184730493        2.5832777743  CLST         826          1.0000000000
      2479       827  TIP3  OH2         -10.0918451737        8.7516246658       -6.6510522663  CLST         827          1.0000000000
      2480       827  TIP3  H1           -9.2078645967        8.7907912385       -6.2182603680  CLST         827          1.0000000000
      2481       827  TIP3  H2          -10.0216454786        7.9888471501       -5.9604050262  CLST         827          1.0000000000
      2482       828  TIP3  OH2          -9.9026449768       -7.6935122551       11.1081410707  CLST         828          1.0000000000
      2483       828  TIP3  H1           -9.0286030771       -7.9291816317       11.4742911432  CLST         828          1.0000000000
      2484       828  TIP3  H2           -9.4501522453       -6.9239620073       10.8032357848  CLST         828          1.0000000000
      2485       829  TIP3  OH2           3.3727962028       12.8456541487        6.6031725342  CLST         829          1.0000000000
      2486       829  TIP3  H1            3.0481893139       12.9810751423        7.4029610125  CLST         829          1.0000000000
      2487       829  TIP3  H2            3.5479287678       13.8552658472        7.0435185979  CLST         829          1.0000000000
      2488       830  TIP3  OH2          13.9350468862        2.9117058067        9.0779894477  CLST         830          1.0000000000
      2489       830  TIP3  H1           14.1288249529        3.4771868597        9.8660667932  CLST         830          1.0000000000
      2490       830  TIP3  H2           14.7634666691        3.3905457761        8.7852497670  CLST         830          1.0000000000
      2491       831  TIP3  OH2           3.1096315852        2.3585737415        7.9513185908  CLST         831          1.0000000000
      2492       831  TIP3  H1            3.7459423248        2.9681257482        8.2099149634  CLST         831          1.0000000000
      2493       831  TIP3  H2            2.5496500948        3.1872575753        7.8865842527  CLST         831          1.0000000000
      2494       832  TIP3  OH2         -12.7830688625       -2.5370181947        1.2766986165  CLST         832          1.0000000000
      2495       832  TIP3  H1          -12.8792051936       -1.5885812414        1.0328311617  CLST         832          1.0000000000
      2496       832  TIP3  H2          -13.1397317421       -2.3585258305        2.1391469043  CLST         832          1.0000000000
      2497       833  TIP3  OH2           1.1958781966      -11.6942971504        5.4775702381  CLST         833          1.0000000000
      2498       833  TIP3  H1            1.6547048485      -11.3282960836        6.2020487482  CLST         833          1.0000000000
      2499       833  TIP3  H2            2.1211959949      -11.7599365786        5.0956613607  CLST         833          1.0000000000
      2500       834  TIP3  OH2           3.3139394933       -3.1389552622        4.2747696179  CLST         834          1.0000000000
      2501       834  TIP3  H1            2.9738258734       -2.2992858755        3.8798101674  CLST         834          1.0000000000
      2502       834  TIP3  H2            3.8221540168       -2.6164324912        4.9268498490  CLST         834          1.0000000000
      2503       835  TIP3  OH2           4.0460499485        2.5661925625        0.1590641603  CLST         835          1.0000000000
      2504       835  TIP3  H1            3.8838584750        2.7620597827       -0.7914759538  CLST         835          1.0000000000
      2505       835  TIP3  H2            4.2200005591        1.7288577224       -0.2376942198  CLST         835          1.0000000000
      2506       836  TIP3  OH2           7.4955751257       -5.4348629996       -9.3716101688  CLST         836          1.0000000000
      2507       836  TIP3  H1            6.8377694303       -6.0418482149       -8.8818779554  CLST         836          1.0000000000
      2508       836  TIP3  H2            7.9827448788       -6.2432056898       -9.3766908554  CLST         836          1.0000000000
      2509       837  TIP3  OH2           3.0894900775        5.9493575841       -0.6145992498  CLST         837          1.0000000000
      2510       837  TIP3  H1            2.2747530215        5.6201962940       -0.9822268231  CLST         837          1.0000000000
      2511       837  TIP3  H2            2.4972627806        6.5750004608       -0.1546518711  CLST         837          1.0000000000
      2512       838  TIP3  OH2          -1.6245892970      -13.5616142827      -10.8337406031  CLST         838          1.0000000000
      2513       838  TIP3  H1           -1.4084478544      -14.4415164557      -10.5550290442  CLST         838          1.0000000000
      2514       838  TIP3  H2           -2.4679742686      -13.8479339554      -11.0972442497  CLST         838          1.0000000000
      2515       839  TIP3  OH2           1.4895713856       -7.2224359566       -1.3351360740  CLST         839          1.0000000000
      2516       839  TIP3  H1            1.0603398358       -7.7095150472       -0.6117389068  CLST         839          1.0000000000
      2517       839  TIP3  H2            0.6607195840       -7.1192800064       -1.8522567001  CLST         839          1.0000000000
      2518       840  TIP3  OH2          -7.5741818616       11.5904108936       10.6650985839  CLST         840          1.0000000000
      2519       840  TIP3  H1           -7.7397410464       11.2305996212       11.5246331464  CLST         840          1.0000000000
      2520       840  TIP3  H2           -6.8493660922       10.9774395649       10.5083122458  CLST         840          1.0000000000
      2521       841  TIP3  OH2          -8.6990062622       -7.6431002734       -4.2565090916  CLST         841          1.0000000000
      2522       841  TIP3  H1           -8.4535254482       -7.8174351877       -3.3664002714  CLST         841          1.0000000000
      2523       841  TIP3  H2           -7.7585441236       -7.5398099631       -4.3926731594  CLST         841          1.0000000000
      2524       842  TIP3  OH2          11.5506633964      -14.0497219707        0.2489163489  CLST         842          1.0000000000
      2525       842  TIP3  H1           10.8085383576      -14.3104110586        0.8930557306  CLST         842          1.0000000000
      2526       842  TIP3  H2           11.3750927000      -14.9807998371        0.0666277876  CLST         842          1.0000000000
      2527       843  TIP3  OH2           9.5196123122       13.1459556514        3.8649486192  CLST         843          1.0000000000
      2528       843  TIP3  H1            8.9553949157       12.5777734962        4.4040405901  CLST         843          1.0000000000
      2529       843  TIP3  H2            8.7878793693       13.2875453157        3.2679008620  CLST         843          1.0000000000
      2530       844  TIP3  OH2           1.6886437767      -12.6921458339       -1.8098180073  CLST         844          1.0000000000
      2531       844  TIP3  H1            1.8646075795      -12.9762477544       -0.8980299726  CLST         844          1.0000000000
      2532       844  TIP3  H2            0.7650511246      -12.8203934934       -1.5384105312  CLST         844          1.0000000000
      2533       845  TIP3  OH2         -14.9248609319        4.5666430555       10.5514199663  CLST         845          1.0000000000
      2534       845  TIP3  H1          -14.7993264642        3.8364867136       11.3558342026  CLST         845          1.0000000000
      2535       845  TIP3  H2          -14.1262857017        4.5642988656       11.3491269449  CLST         845          1.0000000000
      2536       846  TIP3  OH2         -10.8746535749       -7.5304570686        2.5999790778  CLST         846          1.0000000000
      2537       846  TIP3  H1          -11.6884788484       -8.0478647574        2.8091702960  CLST         846          1.0000000000
      2538       846  TIP3  H2          -11.4764806134       -6.7848726792        2.4542421294  CLST         846          1.0000000000
      2539       847  TIP3  OH2           4.7516368283        9.5736545444        5.0603751240  CLST         847          1.0000000000
      2540       847  TIP3  H1            4.8262285667       10.4981843501        4.9828023915  CLST         847          1.0000000000
      2541       847  TIP3  H2            5.4434054832        9.6250653785        5.7749999618  CLST         847          1.0000000000
      2542       848  TIP3  OH2          -9.2174594479        5.5811216983       -9.9069381447  CLST         848          1.0000000000
      2543       848  TIP3  H1          -10.1369111268        5.4204342687      -10.0445171584  CLST         848          1.0000000000
      2544       848  TIP3  H2           -9.4879706859        6.4567713490       -9.7078604736  CLST         848          1.0000000000
      2545       849  TIP3  OH2          -1.5546455190        1.6878310161        0.4104392696  CLST         849          1.0000000000
      2546       849  TIP3  H1           -0.6612647912        2.0844107990        0.3855271468  CLST         849          1.0000000000
      2547       849  TIP3  H2           -1.6328042111        1.9454565968       -0.5112244588  CLST         849          1.0000000000
      2548       850  TIP3  OH2           5.2961263010       -6.2684539924        5.5972951997  CLST         850          1.0000000000
      2549       850  TIP3  H1            4.5949255659       -6.1298297330        6.2121638489  CLST         850          1.0000000000
      2550       850  TIP3  H2            5.9379539802       -5.6587130102        6.0186052482  CLST         850          1.0000000000
      2551       851  TIP3  OH2           7.9554339831        6.2801409640        5.5780196986  CLST         851          1.0000000000
      2552       851  TIP3  H1            7.9004680871        6.4931670753        6.5419091071  CLST         851          1.0000000000
      2553       851  TIP3  H2            8.2929597596        7.1736737694        5.5626419637  CLST         851          1.0000000000
      2554       852  TIP3  OH2           9.1807417463        4.0309096552        1.5558714755  CLST         852          1.0000000000
      2555       852  TIP3  H1            9.0578403243        3.8219011087        2.5275986512  CLST         852          1.0000000000
      2556       852  TIP3  H2            8.2948507180        4.3076941610        1.3361013344  CLST         852          1.0000000000
      2557       853  TIP3  OH2           8.8277540802       -4.8085581185       -3.3544231073  CLST         853          1.0000000000
      2558       853  TIP3  H1            8.0957748981       -4.7191624386       -3.9338107591  CLST         853          1.0000000000
      2559       853  TIP3  H2            8.2528112700       -4.4236378359       -2.7279059541  CLST         853          1.0000000000
      2560       854  TIP3  OH2         -10.5010673161       -9.1643830548       -5.8940375102  CLST         854          1.0000000000
      2561       854  TIP3  H1           -9.6959980036       -8.6108975487       -5.8386634231  CLST         854          1.0000000000
      2562       854  TIP3  H2          -10.5015112170       -8.9538761781       -4.9097444965  CLST         854          1.0000000000
      2563       855  TIP3  OH2           2.6351931633       -3.4570093839       -6.7734120038  CLST         855          1.0000000000
      2564       855  TIP3  H1            2.3505228139       -3.0031529688       -6.0199487426  CLST         855          1.0000000000
      2565       855  TIP3  H2            2.5582167996       -2.6635414016       -7.3764263047  CLST         855          1.0000000000
      2566       856  TIP3  OH2           3.3156645516      -12.9956317707        0.0734018960  CLST         856          1.0000000000
      2567       856  TIP3  H1            4.2001021835      -12.4741147922       -0.0614025776  CLST         856          1.0000000000
      2568       856  TIP3  H2            3.8164623369      -13.5456223424        0.6910469389  CLST         856          1.0000000000
      2569       857  TIP3  OH2          -3.2804990565       -5.6029055105       10.9861247859  CLST         857          1.0000000000
      2570       857  TIP3  H1           -3.7156538655       -5.8064367420       11.8575158552  CLST         857          1.0000000000
      2571       857  TIP3  H2           -3.4792109446       -4.6495474979       11.1918787456  CLST         857          1.0000000000
      2572       858  TIP3  OH2           6.0315542446      -14.2257089425       12.7963074548  CLST         858          1.0000000000
      2573       858  TIP3  H1            6.3769218255      -14.8648587968       13.4287283561  CLST         858          1.0000000000
      2574       858  TIP3  H2            5.3119930799      -13.9500835507       13.3238157269  CLST         858          1.0000000000
      2575       859  TIP3  OH2          -8.5591567306       -1.3470950126      -12.9377210645  CLST         859          1.0000000000
      2576       859  TIP3  H1           -7.7818681714       -1.8631397468      -12.7744505759  CLST         859          1.0000000000
      2577       859  TIP3  H2           -8.2864309879       -0.8327270334      -12.1786420648  CLST         859          1.0000000000
      2578       860  TIP3  OH2          -9.5241962655       -6.3689496192       -0.9833338250  CLST         860          1.0000000000
      2579       860  TIP3  H1           -9.1884544353       -5.6481933541       -1.4647224163  CLST         860          1.0000000000
      2580       860  TIP3  H2           -8.8032761524       -6.9488793612       -1.2544179812  CLST         860          1.0000000000
      2581       861  TIP3  OH2           5.2055467877      -10.1483723871       -4.1920164607  CLST         861          1.0000000000
      2582       861  TIP3  H1            4.8286874891      -10.4494554792       -3.3417462896  CLST         861          1.0000000000
      2583       861  TIP3  H2            5.0436923539      -10.9995219358       -4.5747189884  CLST         861          1.0000000000
      2584       862  TIP3  OH2         -11.0323930156       -2.7487461517      -12.6998201792  CLST         862          1.0000000000
      2585       862  TIP3  H1          -10.2819873908       -2.1488744878      -12.8494500928  CLST         862          1.0000000000
      2586       862  TIP3  H2          -10.5771337237       -2.9831287037      -11.8950034935  CLST         862          1.0000000000
      2587       863  TIP3  OH2          10.5911194978      -10.5647517983       -8.6905685127  CLST         863          1.0000000000
      2588       863  TIP3  H1           11.4315853837      -10.3680699536       -8.2478386747  CLST         863          1.0000000000
      2589       863  TIP3  H2           11.2154799540      -10.9991269053       -9.2745966547  CLST         863          1.0000000000
      2590       864  TIP3  OH2         -13.4335714670        3.4948461719        3.1791293341  CLST         864          1.0000000000
      2591       864  TIP3  H1          -14.2742602187        3.4782931035        3.6257140096  CLST         864          1.0000000000
      2592       864  TIP3  H2          -13.4855646805        4.4639254185        3.2083626732  CLST         864          1.0000000000
      2593       865  TIP3  OH2          12.7480521905        8.8994179446      -11.5417927196  CLST         865          1.0000000000
      2594       865  TIP3  H1           13.4112428034        8.2792804321      -11.7915221333  CLST         865          1.0000000000
      2595       865  TIP3  H2           12.9629639337        8.7103665346      -10.6135322071  CLST         865          1.0000000000
      2596       866  TIP3  OH2           6.6420281747      -10.2917646709       -8.2777441400  CLST         866          1.0000000000
      2597       866  TIP3  H1            6.2777831467      -11.1911248125       -8.1179922801  CLST         866          1.0000000000
      2598       866  TIP3  H2            7.1139351498      -10.7458082340       -9.0232393689  CLST         866          1.0000000000
      2599       867  TIP3  OH2          -8.2273556834       12.2861683879       -3.1653520141  CLST         867          1.0000000000
      2600       867  TIP3  H1           -9.0617338613       12.2579581459       -2.6475727527  CLST         867          1.0000000000
      2601       867  TIP3  H2           -7.8045369417       13.0360835003       -2.7503415979  CLST         867          1.0000000000
      2602       868  TIP3  OH2          -9.8072153525       13.2101118704       10.1234387158  CLST         868          1.0000000000
      2603       868  TIP3  H1           -9.1127816715       12.5627949309       10.3422243484  CLST         868          1.0000000000
      2604       868  TIP3  H2           -9.0188118519       13.6142944666        9.7554204398  CLST         868          1.0000000000
      2605       869  TIP3  OH2           3.2137239438       -1.5904628897        1.0595145886  CLST         869          1.0000000000
      2606       869  TIP3  H1            2.3264873601       -1.8181997248        0.7562204033  CLST         869          1.0000000000
      2607       869  TIP3  H2            2.8353062741       -1.1185004372        1.8652201320  CLST         869          1.0000000000
      2608       870  TIP3  OH2          -7.0438907040       -3.5529345359      -12.9054843735  CLST         870          1.0000000000
      2609       870  TIP3  H1           -6.0704776393       -3.5765115800      -12.6883500224  CLST         870          1.0000000000
      2610       870  TIP3  H2           -6.6900888542       -4.0241933104      -13.7319359332  CLST         870          1.0000000000
      2611       871  TIP3  OH2          -7.2585374097        2.4076006658       -9.8376148369  CLST         871          1.0000000000
      2612       871  TIP3  H1           -7.7402503916        2.8247574943      -10.5456464920  CLST         871          1.0000000000
      2613       871  TIP3  H2           -8.0612692692        2.4319627420       -9.3324827036  CLST         871          1.0000000000
      2614       872  TIP3  OH2         -13.0523531362       11.4729647896      -10.0160775094  CLST         872          1.0000000000
      2615       872  TIP3  H1          -13.0799146472       11.8358333083      -10.8990386028  CLST         872          1.0000000000
      2616       872  TIP3  H2          -13.4086380976       10.5842481390      -10.3735315345  CLST         872          1.0000000000
      2617       873  TIP3  OH2          11.7941567954       -4.3473895121       -9.7161012605  CLST         873          1.0000000000
      2618       873  TIP3  H1           11.3367081232       -3.4881991261       -9.8245548933  CLST         873          1.0000000000
      2619       873  TIP3  H2           11.8064325902       -4.4529329624      -10.7019090082  CLST         873          1.0000000000
      2620       874  TIP3  OH2          12.8100636705        8.5464071202       -8.8125566930  CLST         874          1.0000000000
      2621       874  TIP3  H1           13.1019005190        7.8993994883       -8.1071416739  CLST         874          1.0000000000
      2622       874  TIP3  H2           11.9168789010        8.5383647066       -8.5115259624  CLST         874          1.0000000000
      2623       875  TIP3  OH2           1.4786624328       -1.4733026389      -12.2867347043  CLST         875          1.0000000000
      2624       875  TIP3  H1            2.2748976000       -1.8338368167      -12.7323294465  CLST         875          1.0000000000
      2625       875  TIP3  H2            1.0322158281       -1.4922934434      -13.1067862491  CLST         875          1.0000000000
      2626       876  TIP3  OH2           9.0109243528        7.1008018564      -11.9429585738  CLST         876          1.0000000000
      2627       876  TIP3  H1            8.6952490125        6.8658390764      -12.7979970169  CLST         876          1.0000000000
      2628       876  TIP3  H2            8.2336342264        6.8337596174      -11.5388010123  CLST         876          1.0000000000
      2629       877  TIP3  OH2          -7.3178675323      -13.2662612981       -5.1259565936  CLST         877          1.0000000000
      2630       877  TIP3  H1           -7.9168291090      -12.7654217279       -4.6454952204  CLST         877          1.0000000000
      2631       877  TIP3  H2           -6.6975311802      -12.5140934155       -4.9865218423  CLST         877          1.0000000000
      2632       878  TIP3  OH2           5.7954439596      -11.1373884326        6.8857517744  CLST         878          1.0000000000
      2633       878  TIP3  H1            5.3580810590      -11.2000502386        6.0611620657  CLST         878          1.0000000000
      2634       878  TIP3  H2            5.5842802913      -10.2053176032        6.8296386383  CLST         878          1.0000000000
      2635       879  TIP3  OH2           2.8976692152        5.3854629310       -7.0155977512  CLST         879          1.0000000000
      2636       879  TIP3  H1            3.6085040854        5.8857415896       -7.4249167009  CLST         879          1.0000000000
      2637       879  TIP3  H2            3.3955082120        5.4316536123       -6.2264136703  CLST         879          1.0000000000
      2638       880  TIP3  OH2          -5.3903774425       -1.5899649084       14.8607416932  CLST         880          1.0000000000
      2639       880  TIP3  H1           -6.0745009493       -2.2059596226       14.6865715917  CLST         880          1.0000000000
      2640       880  TIP3  H2           -5.8512968936       -0.8844484624       14.4940559681  CLST         880          1.0000000000
      2641       881  TIP3  OH2          -0.5090619055       13.4852897531        8.6302569173  CLST         881          1.0000000000
      2642       881  TIP3  H1           -0.5306348396       13.1680406608        7.6798092081  CLST         881          1.0000000000
      2643       881  TIP3  H2           -1.4320105570       13.5863310289        8.3880122792  CLST         881          1.0000000000
      2644       882  TIP3  OH2          12.0017109465       -2.0737895362       -1.4998517412  CLST         882          1.0000000000
      2645       882  TIP3  H1           11.4420116740       -2.7100856566       -1.9587209584  CLST         882          1.0000000000
      2646       882  TIP3  H2           11.8680712911       -2.3900853686       -0.6107665963  CLST         882          1.0000000000
      2647       883  TIP3  OH2           1.6102949412       -9.6895971101       -4.5445050483  CLST         883          1.0000000000
      2648       883  TIP3  H1            2.3709698315       -9.6607837502       -3.9760343999  CLST         883          1.0000000000
      2649       883  TIP3  H2            2.2694305190       -9.7512189052       -5.2280468330  CLST         883          1.0000000000
      2650       884  TIP3  OH2         -14.4551609363       -6.1251895412      -13.1927757836  CLST         884          1.0000000000
      2651       884  TIP3  H1          -13.7100577675       -6.7188374254      -13.3496793802  CLST         884          1.0000000000
      2652       884  TIP3  H2          -15.0698163604       -6.7107176404      -12.7163747633  CLST         884          1.0000000000
      2653       885  TIP3  OH2           0.8736106674       14.5212575211       -0.5611802840  CLST         885          1.0000000000
      2654       885  TIP3  H1           -0.0094377348       14.4382387145       -0.1455161051  CLST         885          1.0000000000
      2655       885  TIP3  H2            1.1299535128       13.8581809389        0.0699542205  CLST         885          1.0000000000
      2656       886  TIP3  OH2          11.7487421105       10.3003248689        4.2533553049  CLST         886          1.0000000000
      2657       886  TIP3  H1           11.9824106101        9.6513028074        4.9426232766  CLST         886          1.0000000000
      2658       886  TIP3  H2           11.3312702746       10.6677742126        5.0594612601  CLST         886          1.0000000000
      2659       887  TIP3  OH2          -7.4682545034       -8.0764415805       -1.8654338183  CLST         887          1.0000000000
      2660       887  TIP3  H1           -7.1514739653       -8.9649770011       -1.9049184658  CLST         887          1.0000000000
      2661       887  TIP3  H2           -6.5495815537       -7.8412688586       -1.7557428555  CLST         887          1.0000000000
      2662       888  TIP3  OH2         -12.8373379720       -3.0344402910       10.6505483479  CLST         888          1.0000000000
      2663       888  TIP3  H1          -13.4458819877       -2.8492746697       11.4328993900  CLST         888          1.0000000000
      2664       888  TIP3  H2          -12.5040880027       -2.1417866023       10.9245055006  CLST         888          1.0000000000
      2665       889  TIP3  OH2           4.7620734189      -12.9625314888        8.7070130296  CLST         889          1.0000000000
      2666       889  TIP3  H1            5.1669016981      -12.3761690118        7.9743142625  CLST         889          1.0000000000
      2667       889  TIP3  H2            4.9397264814      -12.1795509799        9.2577594683  CLST         889          1.0000000000
      2668       890  TIP3  OH2         -13.3794973974        6.0557677453       -9.3321011678  CLST         890          1.0000000000
      2669       890  TIP3  H1          -13.0740856924        6.9138763689       -9.7400928229  CLST         890          1.0000000000
      2670       890  TIP3  H2          -14.2083775826        6.4133803909       -9.6476739737  CLST         890          1.0000000000
      2671       891  TIP3  OH2         -12.4408469929       -5.8495151800       10.9395809015  CLST         891          1.0000000000
      2672       891  TIP3  H1          -12.6352851764       -4.8472503963       10.8809453176  CLST         891          1.0000000000
      2673       891  TIP3  H2          -12.3292393496       -5.6599141825        9.9487446308  CLST         891          1.0000000000
      2674       892  TIP3  OH2           2.9116869587       13.5062350803       13.4622259469  CLST         892          1.0000000000
      2675       892  TIP3  H1            2.6186368345       13.7632697858       14.3091218564  CLST         892          1.0000000000
      2676       892  TIP3  H2            3.5308407584       12.8622254741       13.9301781751  CLST         892          1.0000000000
      2677       893  TIP3  OH2          -0.2391166182        7.2368582054        3.0147496689  CLST         893          1.0000000000
      2678       893  TIP3  H1           -0.6339552928        6.4440034621        2.5947024250  CLST         893          1.0000000000
      2679       893  TIP3  H2           -0.9183279487        7.6765220011        2.5513492204  CLST         893          1.0000000000
      2680       894  TIP3  OH2           9.2844914232       11.2609479447        0.5047172797  CLST         894          1.0000000000
      2681       894  TIP3  H1            9.8305351824       11.8050225296        1.0688305246  CLST         894          1.0000000000
      2682       894  TIP3  H2            8.4626079165       11.6820104279        0.3588813975  CLST         894          1.0000000000
      2683       895  TIP3  OH2          -9.7685792111       10.2039892262      -10.5348633316  CLST         895          1.0000000000
      2684       895  TIP3  H1          -10.1421784415       11.0043279380      -10.1247237706  CLST         895          1.0000000000
      2685       895  TIP3  H2           -9.0627674163       10.8798490836      -10.7789567149  CLST         895          1.0000000000
      2686       896  TIP3  OH2           7.9544682206       -6.5411063874       -0.3386786316  CLST         896          1.0000000000
      2687       896  TIP3  H1            7.3114124632       -6.6987208814       -1.2176590824  CLST         896          1.0000000000
      2688       896  TIP3  H2            8.2763893598       -6.9072723636       -1.3597587298  CLST         896          1.0000000000
      2689       897  TIP3  OH2           9.4435626333       -2.4292110085       -9.0732506919  CLST         897          1.0000000000
      2690       897  TIP3  H1            9.3205705821       -2.7687003978       -8.1850095550  CLST         897          1.0000000000
      2691       897  TIP3  H2            9.6022677389       -1.5260644001       -8.7427683781  CLST         897          1.0000000000
      2692       898  TIP3  OH2          13.7751400062        5.9863594539      -11.7421009076  CLST         898          1.0000000000
      2693       898  TIP3  H1           14.0470181956        5.1849389469      -11.3208562806  CLST         898          1.0000000000
      2694       898  TIP3  H2           12.9455716999        5.9179216046      -11.2549870110  CLST         898          1.0000000000
      2695       899  TIP3  OH2          14.0811233993       -6.6053392748        1.6597395924  CLST         899          1.0000000000
      2696       899  TIP3  H1           13.9672694790       -7.5282992772        1.5139140385  CLST         899          1.0000000000
      2697       899  TIP3  H2           13.7001651546       -6.5264767175        2.5452950009  CLST         899          1.0000000000
      2698       900  TIP3  OH2          -9.7488445101      -10.1922909337        9.9446755908  CLST         900          1.0000000000
      2699       900  TIP3  H1           -9.9327225938       -9.2240891003       10.1367132573  CLST         900          1.0000000000
      2700       900  TIP3  H2           -8.9181731708       -9.7929372265        9.5581607959  CLST         900          1.0000000000
      2701       901  TIP3  OH2          10.2074514382        8.7543768380       -8.5890733620  CLST         901          1.0000000000
      2702       901  TIP3  H1           10.3731512780        9.3743864896       -9.3115281441  CLST         901          1.0000000000
      2703       901  TIP3  H2            9.2975656262        8.7095111819       -8.8004205484  CLST         901          1.0000000000
      2704       902  TIP3  OH2           3.7096412620        0.3675398474        9.7458669127  CLST         902          1.0000000000
      2705       902  TIP3  H1            4.1676344186       -0.1140917763        9.0288938712  CLST         902          1.0000000000
      2706       902  TIP3  H2            3.2835242965        0.9746736823        9.1317487797  CLST         902          1.0000000000
      2707       903  TIP3  OH2          -1.1113170841        0.7506641266       -8.3109825868  CLST         903          1.0000000000
      2708       903  TIP3  H1           -0.7601422875        0.7344458799       -9.2429023924  CLST         903          1.0000000000
      2709       903  TIP3  H2           -0.3556969289        0.1210644110       -8.2205056887  CLST         903          1.0000000000
