* Geometry rescue: EQUI at step 3500
*
        2709  EXT
         1         1  TIP3  OH2           5.5732372072        0.6378512305       -3.5337938899  CLST           1          1.0000000000
         2         1  TIP3  H1            5.0929171699        0.5643287779       -2.7097073991  CLST           1          1.0000000000
         3         1  TIP3  H2            4.7849988056        0.7229673352       -4.1405159752  CLST           1          1.0000000000
         4         2  TIP3  OH2          14.9517617159       -2.0447503046       -1.4893103588  CLST           2          1.0000000000
         5         2  TIP3  H1           14.0041534182       -1.8979465457       -1.3369708732  CLST           2          1.0000000000
         6         2  TIP3  H2           14.9042971134       -3.0273171258       -1.5511946959  CLST           2          1.0000000000
         7         3  TIP3  OH2          -8.6490697188       -6.4600013239       -7.7010026743  CLST           3          1.0000000000
         8         3  TIP3  H1           -9.6064033474       -6.2513467519       -7.7042904263  CLST           3          1.0000000000
         9         3  TIP3  H2           -8.4468228209       -6.6303651912       -8.6739188865  CLST           3          1.0000000000
        10         4  TIP3  OH2          -9.4737588049       -4.0069776207       13.1029416017  CLST           4          1.0000000000
        11         4  TIP3  H1          -10.2461190799       -4.5993796896       13.2969839348  CLST           4          1.0000000000
        12         4  TIP3  H2           -9.2901803518       -4.2898301255       12.1663847233  CLST           4          1.0000000000
        13         5  TIP3  OH2          -3.2290031335      -10.2338127852       14.3374184694  CLST           5          1.0000000000
        14         5  TIP3  H1           -3.7289385707      -10.9441612143       14.8606306787  CLST           5          1.0000000000
        15         5  TIP3  H2           -3.4434507924      -10.5565096307       13.4107534102  CLST           5          1.0000000000
        16         6  TIP3  OH2          -3.3986585086        9.5579311086       14.0339391122  CLST           6          1.0000000000
        17         6  TIP3  H1           -2.4728979118        9.8431744682       13.9596041983  CLST           6          1.0000000000
        18         6  TIP3  H2           -3.6929891831        9.7103945249       14.8843149986  CLST           6          1.0000000000
        19         7  TIP3  OH2          -5.0500948589       -1.4649077321        8.8767655414  CLST           7          1.0000000000
        20         7  TIP3  H1           -4.5900531546       -1.1334413058        8.0531262898  CLST           7          1.0000000000
        21         7  TIP3  H2           -5.5451345099       -2.2328266233        8.4837809236  CLST           7          1.0000000000
        22         8  TIP3  OH2          -7.3391914250       -4.3639938225       -1.3791354604  CLST           8          1.0000000000
        23         8  TIP3  H1           -7.4686577560       -5.0345677983       -0.6933553776  CLST           8          1.0000000000
        24         8  TIP3  H2           -6.4691470253       -4.4506386129       -1.7626866750  CLST           8          1.0000000000
        25         9  TIP3  OH2         -13.4501744029       -5.4052276819        0.3933691889  CLST           9          1.0000000000
        26         9  TIP3  H1          -14.3503614120       -5.1483054397        0.0155825001  CLST           9          1.0000000000
        27         9  TIP3  H2          -13.0801590932       -4.4864352092        0.3223956520  CLST           9          1.0000000000
        28        10  TIP3  OH2          -4.3473323808        8.0239450946       -8.7433444833  CLST          10          1.0000000000
        29        10  TIP3  H1           -4.6972673877        8.9189652620       -8.8028507175  CLST          10          1.0000000000
        30        10  TIP3  H2           -3.4037827666        7.9241870191       -8.8917283724  CLST          10          1.0000000000
        31        11  TIP3  OH2           5.7882038553       12.6523928025       10.4065275195  CLST          11          1.0000000000
        32        11  TIP3  H1            4.9712676381       13.0444844134       10.7718181116  CLST          11          1.0000000000
        33        11  TIP3  H2            5.5586253078       11.6999082446       10.6341549209  CLST          11          1.0000000000
        34        12  TIP3  OH2         -11.6835173562      -13.3785178941       -3.2417759646  CLST          12          1.0000000000
        35        12  TIP3  H1          -12.3587007414      -12.7168096941       -2.9416773742  CLST          12          1.0000000000
        36        12  TIP3  H2          -11.9185583556      -13.6261738739       -4.1495847870  CLST          12          1.0000000000
        37        13  TIP3  OH2          -0.6842363639      -10.8162078788        2.7909397371  CLST          13          1.0000000000
        38        13  TIP3  H1            0.2507540642      -11.1477829724        2.9856741546  CLST          13          1.0000000000
        39        13  TIP3  H2           -0.4669150128       -9.9499216965        3.2610775029  CLST          13          1.0000000000
        40        14  TIP3  OH2          -1.8121718661        5.2245751082        8.0408403803  CLST          14          1.0000000000
        41        14  TIP3  H1           -1.9315371340        5.0724556261        8.9917816205  CLST          14          1.0000000000
        42        14  TIP3  H2           -0.8570809456        4.9805218798        7.9930567641  CLST          14          1.0000000000
        43        15  TIP3  OH2           1.0995519178       -1.2941491616       -4.8142633743  CLST          15          1.0000000000
        44        15  TIP3  H1            0.4475965847       -0.8268796992       -4.2008372538  CLST          15          1.0000000000
        45        15  TIP3  H2            1.1622457508       -2.0601831205       -4.2075909573  CLST          15          1.0000000000
        46        16  TIP3  OH2          -4.4013703858       -6.1363133707       13.6590646852  CLST          16          1.0000000000
        47        16  TIP3  H1           -3.8344479576       -6.9109307209       13.6667806203  CLST          16          1.0000000000
        48        16  TIP3  H2           -5.0864343209       -6.1929973559       14.3533176027  CLST          16          1.0000000000
        49        17  TIP3  OH2           8.5271654403       -0.6997856026        3.0069180223  CLST          17          1.0000000000
        50        17  TIP3  H1            7.7534840599       -1.2967468042        3.1394517462  CLST          17          1.0000000000
        51        17  TIP3  H2            9.1080486280       -1.3000246822        2.4702307913  CLST          17          1.0000000000
        52        18  TIP3  OH2           2.5416796549       -8.5396380634       -8.6410553634  CLST          18          1.0000000000
        53        18  TIP3  H1            2.9801615279       -7.6747127575       -8.4393863346  CLST          18          1.0000000000
        54        18  TIP3  H2            2.7880698182       -9.1236550875       -7.8817282766  CLST          18          1.0000000000
        55        19  TIP3  OH2           6.5671480986        7.8314581578       14.2759547690  CLST          19          1.0000000000
        56        19  TIP3  H1            7.2790947917        7.2129306852       14.5382508978  CLST          19          1.0000000000
        57        19  TIP3  H2            6.6841086706        8.5165581471       14.9517617159  CLST          19          1.0000000000
        58        20  TIP3  OH2           4.1614009173        9.4400764898        8.9149830805  CLST          20          1.0000000000
        59        20  TIP3  H1            3.3737471619       10.0258634488        8.7187542098  CLST          20          1.0000000000
        60        20  TIP3  H2            3.7922248513        8.7092864367        8.3791347169  CLST          20          1.0000000000
        61        21  TIP3  OH2           0.5019493098       -8.5265302552        0.8888227365  CLST          21          1.0000000000
        62        21  TIP3  H1            0.4946642157       -8.0621238789        1.7615897635  CLST          21          1.0000000000
        63        21  TIP3  H2           -0.4836112637       -8.5933775059        0.8039582481  CLST          21          1.0000000000
        64        22  TIP3  OH2          11.2986950295       -9.4992000738       10.1245122517  CLST          22          1.0000000000
        65        22  TIP3  H1           10.9735114097       -9.0683896621        9.2796073085  CLST          22          1.0000000000
        66        22  TIP3  H2           10.8804550651      -10.3627412368        9.9841298691  CLST          22          1.0000000000
        67        23  TIP3  OH2          12.1664349928      -14.5030184311      -10.6536105027  CLST          23          1.0000000000
        68        23  TIP3  H1           11.7826872658      -14.9508148953       -9.8376290699  CLST          23          1.0000000000
        69        23  TIP3  H2           13.0192014841      -14.5260285652      -10.2181383262  CLST          23          1.0000000000
        70        24  TIP3  OH2          13.2049783837       -7.8426966554       14.1272545586  CLST          24          1.0000000000
        71        24  TIP3  H1           12.5999043226       -7.5991923892       13.3869408940  CLST          24          1.0000000000
        72        24  TIP3  H2           12.6815174705       -8.0312022354       14.9084801996  CLST          24          1.0000000000
        73        25  TIP3  OH2           0.0567728038       -5.6461712062        5.6179941536  CLST          25          1.0000000000
        74        25  TIP3  H1           -0.5310908880       -5.3194768516        4.8866252007  CLST          25          1.0000000000
        75        25  TIP3  H2           -0.5539032103       -6.2731064305        6.0754847271  CLST          25          1.0000000000
        76        26  TIP3  OH2          -5.2717751579       -5.6721102163       -7.9900025832  CLST          26          1.0000000000
        77        26  TIP3  H1           -6.0095308944       -6.2544854657       -7.7922923396  CLST          26          1.0000000000
        78        26  TIP3  H2           -5.1438566918       -5.8494955937       -8.9654172226  CLST          26          1.0000000000
        79        27  TIP3  OH2           4.2467880073       12.5330404844       -0.8787055624  CLST          27          1.0000000000
        80        27  TIP3  H1            5.1563077852       12.3775347233       -0.6079263712  CLST          27          1.0000000000
        81        27  TIP3  H2            4.1887739915       13.4806062061       -1.0863333949  CLST          27          1.0000000000
        82        28  TIP3  OH2          -5.3010177442       -6.3401106198        6.4628871115  CLST          28          1.0000000000
        83        28  TIP3  H1           -4.3244105536       -6.4973792051        6.5348966447  CLST          28          1.0000000000
        84        28  TIP3  H2           -5.3934067612       -6.7780078001        5.5718033599  CLST          28          1.0000000000
        85        29  TIP3  OH2           3.9396981526      -10.1919176682       13.0956294211  CLST          29          1.0000000000
        86        29  TIP3  H1            4.7025229334       -9.6103478328       13.3256321536  CLST          29          1.0000000000
        87        29  TIP3  H2            3.2419272700       -9.5037505018       13.0140817420  CLST          29          1.0000000000
        88        30  TIP3  OH2          -0.9372894260       -3.4417339612       11.7292957205  CLST          30          1.0000000000
        89        30  TIP3  H1           -1.3671149546       -3.9638860351       12.4565250263  CLST          30          1.0000000000
        90        30  TIP3  H2           -0.6039023313       -2.6764973583       12.2736791036  CLST          30          1.0000000000
        91        31  TIP3  OH2          -5.3148946191      -10.0305995977       -9.7982572681  CLST          31          1.0000000000
        92        31  TIP3  H1           -6.3147955233       -9.9474337289       -9.6116627836  CLST          31          1.0000000000
        93        31  TIP3  H2           -5.0969303082       -9.2720576285       -9.2034653458  CLST          31          1.0000000000
        94        32  TIP3  OH2           4.3026630147        6.5667790627       14.9517617159  CLST          32          1.0000000000
        95        32  TIP3  H1            5.1026954201        6.8674680501       14.4745775771  CLST          32          1.0000000000
        96        32  TIP3  H2            3.6309315958        6.4942432593       14.2237570191  CLST          32          1.0000000000
        97        33  TIP3  OH2           2.1947141024       -5.5355339700       11.7456626734  CLST          33          1.0000000000
        98        33  TIP3  H1            2.0169692795       -4.7190725309       12.2771634939  CLST          33          1.0000000000
        99        33  TIP3  H2            2.1488499308       -5.1209764838       10.8383866154  CLST          33          1.0000000000
       100        34  TIP3  OH2         -12.3667286201       -6.6162987682        5.7519178781  CLST          34          1.0000000000
       101        34  TIP3  H1          -12.3718890917       -6.3944456188        4.8064745156  CLST          34          1.0000000000
       102        34  TIP3  H2          -13.3404657603       -6.7022706187        5.8835456713  CLST          34          1.0000000000
       103        35  TIP3  OH2         -12.7026921070        9.4080466070       14.2017618931  CLST          35          1.0000000000
       104        35  TIP3  H1          -13.3434939801        9.9468851944       13.6521288267  CLST          35          1.0000000000
       105        35  TIP3  H2          -13.2206258287        9.1648387919       14.9516738024  CLST          35          1.0000000000
       106        36  TIP3  OH2           6.3964042527       -8.8624399925      -11.6796926449  CLST          36          1.0000000000
       107        36  TIP3  H1            7.1286340767       -8.8124468808      -11.0109004294  CLST          36          1.0000000000
       108        36  TIP3  H2            6.8671997927       -9.4067742841      -12.3454491345  CLST          36          1.0000000000
       109        37  TIP3  OH2          10.4819470002      -12.1745016988        6.6554098147  CLST          37          1.0000000000
       110        37  TIP3  H1            9.7092041567      -11.7814857985        7.0986154178  CLST          37          1.0000000000
       111        37  TIP3  H2           10.9891606926      -12.3919425216        7.4550443756  CLST          37          1.0000000000
       112        38  TIP3  OH2           5.8673229620      -12.1113090580       -0.6082118594  CLST          38          1.0000000000
       113        38  TIP3  H1            6.6592412965      -12.7086284833       -0.5186917666  CLST          38          1.0000000000
       114        38  TIP3  H2            5.4895836734      -12.4981199157       -1.4412363063  CLST          38          1.0000000000
       115        39  TIP3  OH2          13.3934304052        6.4862944598       -6.7622262223  CLST          39          1.0000000000
       116        39  TIP3  H1           13.4039559453        5.6377663227       -7.2704023057  CLST          39          1.0000000000
       117        39  TIP3  H2           12.4991966887        6.2867138417       -6.3206148382  CLST          39          1.0000000000
       118        40  TIP3  OH2          -4.7796382039       14.3553206149       -5.9088553287  CLST          40          1.0000000000
       119        40  TIP3  H1           -5.5339471057       14.7675479791       -5.4429773654  CLST          40          1.0000000000
       120        40  TIP3  H2           -4.3880111080       13.8933719666       -5.1462920387  CLST          40          1.0000000000
       121        41  TIP3  OH2          11.1155789252        5.6758119035      -11.2404541101  CLST          41          1.0000000000
       122        41  TIP3  H1           10.9913667924        5.2039513169      -12.1248909809  CLST          41          1.0000000000
       123        41  TIP3  H2           10.4592288659        6.4034356365      -11.3467252921  CLST          41          1.0000000000
       124        42  TIP3  OH2          -1.1284202165       -6.8831316420       -2.0478227093  CLST          42          1.0000000000
       125        42  TIP3  H1           -1.5366405458       -6.0524902905       -2.3654602277  CLST          42          1.0000000000
       126        42  TIP3  H2           -1.1739028998       -7.3462275258       -2.9116668762  CLST          42          1.0000000000
       127        43  TIP3  OH2          10.0960658246      -11.0370221002       -2.0018415104  CLST          43          1.0000000000
       128        43  TIP3  H1            9.8217259593      -11.1322001328       -1.0473106129  CLST          43          1.0000000000
       129        43  TIP3  H2            9.6011058195      -11.8596292417       -2.2668308299  CLST          43          1.0000000000
       130        44  TIP3  OH2           0.2911987463       -2.9534113037        6.3272705793  CLST          44          1.0000000000
       131        44  TIP3  H1           -0.5100009882       -2.8438270607        6.8958600838  CLST          44          1.0000000000
       132        44  TIP3  H2            0.2464281967       -3.9203341485        6.1741178318  CLST          44          1.0000000000
       133        45  TIP3  OH2           4.9423958047       -6.2754889675        9.2382796174  CLST          45          1.0000000000
       134        45  TIP3  H1            4.8894538792       -5.3366685352        8.9486772187  CLST          45          1.0000000000
       135        45  TIP3  H2            5.0011174360       -6.1631702802       10.2276213116  CLST          45          1.0000000000
       136        46  TIP3  OH2           7.6805556609        4.8543217480       -8.1165896631  CLST          46          1.0000000000
       137        46  TIP3  H1            6.9395651789        5.3736791636       -7.6973553349  CLST          46          1.0000000000
       138        46  TIP3  H2            7.3091030201        4.8673470421       -9.0154751307  CLST          46          1.0000000000
       139        47  TIP3  OH2         -10.9152136037      -10.8223829835        3.3285289947  CLST          47          1.0000000000
       140        47  TIP3  H1          -11.0622275306      -10.1155758209        4.0348011523  CLST          47          1.0000000000
       141        47  TIP3  H2          -10.7102379655      -11.4880377503        4.0751379940  CLST          47          1.0000000000
       142        48  TIP3  OH2         -14.5950299006        9.4753931517        8.5907402218  CLST          48          1.0000000000
       143        48  TIP3  H1          -14.4606415469        9.8498860589        7.6930945566  CLST          48          1.0000000000
       144        48  TIP3  H2          -13.7707546318        9.8569859784        8.9304175398  CLST          48          1.0000000000
       145        49  TIP3  OH2           8.5048685719       -4.2211965886        4.1324855301  CLST          49          1.0000000000
       146        49  TIP3  H1            7.5272522221       -4.3595211778        4.0617905980  CLST          49          1.0000000000
       147        49  TIP3  H2            8.6925629512       -4.1639665216        3.1626949512  CLST          49          1.0000000000
       148        50  TIP3  OH2          11.0064280572        5.6644765347       -5.4464042896  CLST          50          1.0000000000
       149        50  TIP3  H1           11.3726481739        5.0621693770       -4.7368996629  CLST          50          1.0000000000
       150        50  TIP3  H2           10.0625562338        5.4695943178       -5.1985261909  CLST          50          1.0000000000
       151        51  TIP3  OH2          12.9712980414       -1.4373971606      -10.6906351761  CLST          51          1.0000000000
       152        51  TIP3  H1           13.2348640846       -2.2777813891      -11.1697461942  CLST          51          1.0000000000
       153        51  TIP3  H2           12.6618933973       -0.8822637267      -11.4475005726  CLST          51          1.0000000000
       154        52  TIP3  OH2          -1.5815680853       -1.4147215877       10.0436551007  CLST          52          1.0000000000
       155        52  TIP3  H1           -2.2282646674       -0.9957882045       10.6376317113  CLST          52          1.0000000000
       156        52  TIP3  H2           -1.4893106231       -2.2697384272       10.5349668215  CLST          52          1.0000000000
       157        53  TIP3  OH2         -10.9302841129       14.1153223499       -6.9751463158  CLST          53          1.0000000000
       158        53  TIP3  H1          -11.4145789423       14.9076060651       -6.6042122172  CLST          53          1.0000000000
       159        53  TIP3  H2          -10.0999881233       14.6210862607       -7.1515926000  CLST          53          1.0000000000
       160        54  TIP3  OH2         -14.0281914958       -5.3749743725       -8.0225193550  CLST          54          1.0000000000
       161        54  TIP3  H1          -13.0470051952       -5.3604167146       -8.0639800011  CLST          54          1.0000000000
       162        54  TIP3  H2          -14.1316752830       -4.9487410678       -8.8910379670  CLST          54          1.0000000000
       163        55  TIP3  OH2           0.1851727694        9.3608309648      -10.4843456895  CLST          55          1.0000000000
       164        55  TIP3  H1           -0.7012417998        9.7341041576      -10.6980492915  CLST          55          1.0000000000
       165        55  TIP3  H2            0.5383671047       10.1251434570       -9.9548974415  CLST          55          1.0000000000
       166        56  TIP3  OH2          -1.5947936642       -4.9351957197       14.0078233155  CLST          56          1.0000000000
       167        56  TIP3  H1           -2.2547251550       -4.4502832511       14.5981036655  CLST          56          1.0000000000
       168        56  TIP3  H2           -1.8384356692       -5.8678464880       14.1046316625  CLST          56          1.0000000000
       169        57  TIP3  OH2         -10.4448075726       11.1488768594       -1.4942566616  CLST          57          1.0000000000
       170        57  TIP3  H1          -10.9091010189       11.3520990739       -0.6554635782  CLST          57          1.0000000000
       171        57  TIP3  H2          -11.1611734166       11.2513605437       -2.1291037880  CLST          57          1.0000000000
       172        58  TIP3  OH2           9.8952892390        1.3547664698        0.4776875529  CLST          58          1.0000000000
       173        58  TIP3  H1            8.9553594725        1.0450392337        0.4298640995  CLST          58          1.0000000000
       174        58  TIP3  H2            9.6834221882        2.2182915259        0.9118310818  CLST          58          1.0000000000
       175        59  TIP3  OH2         -12.9412806981       13.1134750833        5.1472791564  CLST          59          1.0000000000
       176        59  TIP3  H1          -13.0552250300       13.3494968754        4.1972507085  CLST          59          1.0000000000
       177        59  TIP3  H2          -12.1034600865       12.6368216849        5.0798534535  CLST          59          1.0000000000
       178        60  TIP3  OH2          -4.1096955921        3.2431711234        7.1443630037  CLST          60          1.0000000000
       179        60  TIP3  H1           -3.5290316088        2.5143663610        7.4549804863  CLST          60          1.0000000000
       180        60  TIP3  H2           -3.4737919227        3.9800503698        7.3625209832  CLST          60          1.0000000000
       181        61  TIP3  OH2           0.6331109068       -2.3579065381        0.6045355986  CLST          61          1.0000000000
       182        61  TIP3  H1           -0.0069730394       -1.8884392038        1.2571907485  CLST          61          1.0000000000
       183        61  TIP3  H2            0.2920395296       -3.2694511286        0.7448125688  CLST          61          1.0000000000
       184        62  TIP3  OH2          -3.7487134176        8.9550796173        4.5011972776  CLST          62          1.0000000000
       185        62  TIP3  H1           -3.2831531725        8.3321132881        5.0670876692  CLST          62          1.0000000000
       186        62  TIP3  H2           -3.0224520967        9.4648795478        4.0337356962  CLST          62          1.0000000000
       187        63  TIP3  OH2          -0.4050775650        7.5528832650       -3.0776382450  CLST          63          1.0000000000
       188        63  TIP3  H1           -0.4608323436        8.3349387224       -3.7228094763  CLST          63          1.0000000000
       189        63  TIP3  H2           -1.0061609467        7.9164274206       -2.4035795885  CLST          63          1.0000000000
       190        64  TIP3  OH2         -13.9401184472        3.4487207438       -3.3486816694  CLST          64          1.0000000000
       191        64  TIP3  H1          -13.3441337754        4.2044510967       -3.0887919719  CLST          64          1.0000000000
       192        64  TIP3  H2          -14.7718368749        3.9756001773       -3.3477528257  CLST          64          1.0000000000
       193        65  TIP3  OH2          -9.3971678782      -12.1998182829      -11.6824144701  CLST          65          1.0000000000
       194        65  TIP3  H1           -9.3307927889      -12.4861195468      -10.7295058818  CLST          65          1.0000000000
       195        65  TIP3  H2          -10.3441577215      -11.9019078932      -11.6058710311  CLST          65          1.0000000000
       196        66  TIP3  OH2          12.9591818222       -8.0901598363        3.7547369234  CLST          66          1.0000000000
       197        66  TIP3  H1           13.2510403779       -8.7640876616        3.0860179194  CLST          66          1.0000000000
       198        66  TIP3  H2           12.8530392896       -8.6793773150        4.5355630563  CLST          66          1.0000000000
       199        67  TIP3  OH2           7.4012011534       -0.8760495459       -6.5032968033  CLST          67          1.0000000000
       200        67  TIP3  H1            7.9486185861       -1.5007040825       -5.9916013762  CLST          67          1.0000000000
       201        67  TIP3  H2            8.0989757738       -0.3818519035       -6.9858061686  CLST          67          1.0000000000
       202        68  TIP3  OH2          -6.9189177030        1.1951755285        0.7761903797  CLST          68          1.0000000000
       203        68  TIP3  H1           -7.6603065092        0.7117740612        1.1977479279  CLST          68          1.0000000000
       204        68  TIP3  H2           -6.6693992301        1.8547876721        1.4556139173  CLST          68          1.0000000000
       205        69  TIP3  OH2         -11.7922382378       -0.7700902877        7.0510960062  CLST          69          1.0000000000
       206        69  TIP3  H1          -10.9455331822       -1.0622684546        7.4767594612  CLST          69          1.0000000000
       207        69  TIP3  H2          -11.7703281580        0.1870411174        7.2630510278  CLST          69          1.0000000000
       208        70  TIP3  OH2          -1.7412045986        7.5131233290       -8.2571432050  CLST          70          1.0000000000
       209        70  TIP3  H1           -0.7742909148        7.2977158306       -8.3330030495  CLST          70          1.0000000000
       210        70  TIP3  H2           -1.6087789151        8.4173933255       -7.8924543171  CLST          70          1.0000000000
       211        71  TIP3  OH2         -13.5035550503       -1.8962008696       -5.4806552322  CLST          71          1.0000000000
       212        71  TIP3  H1          -12.9794004599       -1.6357959000       -4.6638370804  CLST          71          1.0000000000
       213        71  TIP3  H2          -13.8335203677       -0.9918066797       -5.6882173484  CLST          71          1.0000000000
       214        72  TIP3  OH2          10.9755197499       -2.8005590333        4.9378385303  CLST          72          1.0000000000
       215        72  TIP3  H1           10.4856791287       -2.9278707620        4.0787038547  CLST          72          1.0000000000
       216        72  TIP3  H2           11.4395321936       -1.9620480023        4.6714190259  CLST          72          1.0000000000
       217        73  TIP3  OH2          -3.8526912441      -13.3696092629       -6.7052691997  CLST          73          1.0000000000
       218        73  TIP3  H1           -3.9361841027      -13.3033715694       -7.6766550003  CLST          73          1.0000000000
       219        73  TIP3  H2           -3.9413029468      -14.2953351676       -6.4480397652  CLST          73          1.0000000000
       220        74  TIP3  OH2          -4.5056398677       12.2238934975       -1.3659326056  CLST          74          1.0000000000
       221        74  TIP3  H1           -4.9804413876       11.4721672099       -1.7736590826  CLST          74          1.0000000000
       222        74  TIP3  H2           -5.3084205032       12.7797267478       -1.1367176257  CLST          74          1.0000000000
       223        75  TIP3  OH2          -9.4509338191        4.7202953575        5.4446895343  CLST          75          1.0000000000
       224        75  TIP3  H1           -8.6740390312        5.2883902809        5.6270140170  CLST          75          1.0000000000
       225        75  TIP3  H2           -9.9105053809        4.9708158601        6.2180552797  CLST          75          1.0000000000
       226        76  TIP3  OH2           8.3792875663       13.6512541729       -9.0538927284  CLST          76          1.0000000000
       227        76  TIP3  H1            8.5084154573       13.7614325969      -10.0464172596  CLST          76          1.0000000000
       228        76  TIP3  H2            9.3441175295       13.3611553393       -8.9415733871  CLST          76          1.0000000000
       229        77  TIP3  OH2           0.3712799877       -5.1593006031       -5.4666817975  CLST          77          1.0000000000
       230        77  TIP3  H1            0.6094866432       -4.9659800780       -6.3962834137  CLST          77          1.0000000000
       231        77  TIP3  H2           -0.4735645088       -5.6396901351       -5.7128145221  CLST          77          1.0000000000
       232        78  TIP3  OH2          -5.4010530133       -8.0949220432        1.5652654793  CLST          78          1.0000000000
       233        78  TIP3  H1           -5.0932022914       -7.6196489394        0.7537375697  CLST          78          1.0000000000
       234        78  TIP3  H2           -5.8992273741       -8.8538826502        1.1493172064  CLST          78          1.0000000000
       235        79  TIP3  OH2           6.9089421540      -14.3389924032       10.1380317402  CLST          79          1.0000000000
       236        79  TIP3  H1            6.3955572181      -14.3737353901       10.9900795552  CLST          79          1.0000000000
       237        79  TIP3  H2            6.1363590185      -14.1011868547        9.6042562727  CLST          79          1.0000000000
       238        80  TIP3  OH2           6.6133328973       -0.2337388300      -12.9061533256  CLST          80          1.0000000000
       239        80  TIP3  H1            6.6601668655        0.2359915680      -13.7981623833  CLST          80          1.0000000000
       240        80  TIP3  H2            7.5333688315       -0.0600043992      -12.5826253072  CLST          80          1.0000000000
       241        81  TIP3  OH2          -7.4286726660        1.1584936557        6.1004239173  CLST          81          1.0000000000
       242        81  TIP3  H1           -8.3804846460        1.3229480909        5.8979092763  CLST          81          1.0000000000
       243        81  TIP3  H2           -7.0494411523        2.0568672903        6.0255661296  CLST          81          1.0000000000
       244        82  TIP3  OH2           2.2266138686       -1.8229222715       10.6646304846  CLST          82          1.0000000000
       245        82  TIP3  H1            2.4396949165       -1.0138439655       10.1715049272  CLST          82          1.0000000000
       246        82  TIP3  H2            3.1088287300       -2.2827767786       10.6220874381  CLST          82          1.0000000000
       247        83  TIP3  OH2          10.3742497237        8.3516940373       -5.1869751426  CLST          83          1.0000000000
       248        83  TIP3  H1           10.6422710077        7.4882347212       -5.5395640956  CLST          83          1.0000000000
       249        83  TIP3  H2           10.7957321396        8.2191700826       -4.2980318886  CLST          83          1.0000000000
       250        84  TIP3  OH2         -13.4679591321        7.9863085675       -1.4605021554  CLST          84          1.0000000000
       251        84  TIP3  H1          -14.0171008535        7.2769037961       -0.9962511119  CLST          84          1.0000000000
       252        84  TIP3  H2          -12.6276856813        7.5342467234       -1.1948202275  CLST          84          1.0000000000
       253        85  TIP3  OH2           2.5212188632       -1.9196652766        7.7685850613  CLST          85          1.0000000000
       254        85  TIP3  H1            1.8688931464       -2.3978735152        7.2119483064  CLST          85          1.0000000000
       255        85  TIP3  H2            3.2006229808       -2.6481367218        7.9218214810  CLST          85          1.0000000000
       256        86  TIP3  OH2           7.8921012493       -9.1178900299        9.9680340776  CLST          86          1.0000000000
       257        86  TIP3  H1            8.3480627738       -8.3502519182       10.3969593845  CLST          86          1.0000000000
       258        86  TIP3  H2            7.4610688413       -9.5460261396       10.7481243336  CLST          86          1.0000000000
       259        87  TIP3  OH2           0.4416808687       -1.2955729838       12.7467508785  CLST          87          1.0000000000
       260        87  TIP3  H1            1.1672163877       -1.4110707748       12.0785334090  CLST          87          1.0000000000
       261        87  TIP3  H2            0.2700560031       -0.3310409224       12.6758400084  CLST          87          1.0000000000
       262        88  TIP3  OH2          14.4179031834      -11.2838008670        8.2501337356  CLST          88          1.0000000000
       263        88  TIP3  H1           13.5318017059      -11.5000975431        8.6421160689  CLST          88          1.0000000000
       264        88  TIP3  H2           14.8410200445      -11.7786104915        8.9756618608  CLST          88          1.0000000000
       265        89  TIP3  OH2           6.7639986400       11.7837979379       -4.1218084188  CLST          89          1.0000000000
       266        89  TIP3  H1            5.7946359376       11.8726785131       -4.0461548782  CLST          89          1.0000000000
       267        89  TIP3  H2            6.8715140615       10.9964909717       -3.5099982386  CLST          89          1.0000000000
       268        90  TIP3  OH2          14.2160165627       -4.7850569300       -0.3795964681  CLST          90          1.0000000000
       269        90  TIP3  H1           13.7099598395       -5.1759063879       -1.1423931131  CLST          90          1.0000000000
       270        90  TIP3  H2           13.9481811093       -5.3768313357        0.3670593038  CLST          90          1.0000000000
       271        91  TIP3  OH2          11.5614916046       10.7582959932       -5.7437357396  CLST          91          1.0000000000
       272        91  TIP3  H1           11.1536785918        9.8488522846       -5.7962473626  CLST          91          1.0000000000
       273        91  TIP3  H2           10.8476577147       11.0999686448       -5.1712306001  CLST          91          1.0000000000
       274        92  TIP3  OH2          -6.4181742519        3.5030993014        8.7727326735  CLST          92          1.0000000000
       275        92  TIP3  H1           -5.6594215126        3.4102193672        8.1346728813  CLST          92          1.0000000000
       276        92  TIP3  H2           -6.4265690500        2.5144866125        8.9794511288  CLST          92          1.0000000000
       277        93  TIP3  OH2           5.1589732638       -6.5716229652       12.0420137468  CLST          93          1.0000000000
       278        93  TIP3  H1            5.0774879729       -5.8148936925       12.6462895255  CLST          93          1.0000000000
       279        93  TIP3  H2            5.8515860960       -7.1706280779       12.3954554560  CLST          93          1.0000000000
       280        94  TIP3  OH2          -5.9148694199       12.1039385322        4.8354725373  CLST          94          1.0000000000
       281        94  TIP3  H1           -6.0587336962       11.8473424510        3.8587711098  CLST          94          1.0000000000
       282        94  TIP3  H2           -6.1655193264       11.2290971263        5.1742479679  CLST          94          1.0000000000
       283        95  TIP3  OH2           6.6516494867       11.3699363554       -0.3119180793  CLST          95          1.0000000000
       284        95  TIP3  H1            6.8701449185       10.7456249201       -1.0543928933  CLST          95          1.0000000000
       285        95  TIP3  H2            6.2915111812       10.6762419100        0.3067520238  CLST          95          1.0000000000
       286        96  TIP3  OH2          14.7796637746       -1.2303995148       11.3110322263  CLST          96          1.0000000000
       287        96  TIP3  H1           14.9517617159       -1.9526688573       11.9907835177  CLST          96          1.0000000000
       288        96  TIP3  H2           13.8820548257       -1.4464846192       11.0189111745  CLST          96          1.0000000000
       289        97  TIP3  OH2          -8.6292010797        9.7503770501       12.7374871162  CLST          97          1.0000000000
       290        97  TIP3  H1           -8.4976722174        9.3344791419       11.8473333392  CLST          97          1.0000000000
       291        97  TIP3  H2           -7.6706244047        9.5854274815       13.0028680384  CLST          97          1.0000000000
       292        98  TIP3  OH2           1.6595876558        4.1519769113       13.9219126147  CLST          98          1.0000000000
       293        98  TIP3  H1            2.1791102713        4.7124531933       13.3279637151  CLST          98          1.0000000000
       294        98  TIP3  H2            2.1129203727        3.2781329861       13.9460341507  CLST          98          1.0000000000
       295        99  TIP3  OH2         -12.6484223101       12.2580953305       -5.3805001980  CLST          99          1.0000000000
       296        99  TIP3  H1          -13.2163833545       12.2125250904       -6.1992710214  CLST          99          1.0000000000
       297        99  TIP3  H2          -11.9421225764       12.9731237916       -5.7272004540  CLST          99          1.0000000000
       298       100  TIP3  OH2           9.1234196480       -3.7037298500       -6.8511714330  CLST         100          1.0000000000
       299       100  TIP3  H1            8.6275715814       -3.9689919923       -5.9988550572  CLST         100          1.0000000000
       300       100  TIP3  H2            9.4826864587       -4.5839561176       -6.7423670921  CLST         100          1.0000000000
       301       101  TIP3  OH2          11.1539897751        2.1722409822      -10.2607892162  CLST         101          1.0000000000
       302       101  TIP3  H1           11.3544580964        2.6612138826       -9.5018995301  CLST         101          1.0000000000
       303       101  TIP3  H2           11.3970610273        1.3827158623       -9.7456211532  CLST         101          1.0000000000
       304       102  TIP3  OH2          -7.0369414269        2.3239942705      -12.8981022444  CLST         102          1.0000000000
       305       102  TIP3  H1           -7.9237282032        2.0864162002      -13.3248693662  CLST         102          1.0000000000
       306       102  TIP3  H2           -7.5068040724        3.0882701422      -12.6154251279  CLST         102          1.0000000000
       307       103  TIP3  OH2          -4.4094536536      -14.1693379814      -11.3027603086  CLST         103          1.0000000000
       308       103  TIP3  H1           -4.6103988800      -14.0128554092      -12.2346176749  CLST         103          1.0000000000
       309       103  TIP3  H2           -5.2831575421      -14.5331938252      -11.2566305856  CLST         103          1.0000000000
       310       104  TIP3  OH2         -10.8567454185      -11.3645757987        7.7269190400  CLST         104          1.0000000000
       311       104  TIP3  H1           -9.7773004390      -10.9931326395        7.9083537185  CLST         104          1.0000000000
       312       104  TIP3  H2          -10.7347540072      -11.1227766307        8.4886135334  CLST         104          1.0000000000
       313       105  TIP3  OH2           4.5357714408       -0.4185876686       14.1909938452  CLST         105          1.0000000000
       314       105  TIP3  H1            4.0687173470       -1.2631485497       14.4550022441  CLST         105          1.0000000000
       315       105  TIP3  H2            4.7372173485       -0.9527640109       13.3905129659  CLST         105          1.0000000000
       316       106  TIP3  OH2          14.4737107246       -1.4827888890        4.8690412892  CLST         106          1.0000000000
       317       106  TIP3  H1           14.6701859394       -0.6794521569        5.3540000354  CLST         106          1.0000000000
       318       106  TIP3  H2           13.6199871179       -1.0529015393        4.7717105831  CLST         106          1.0000000000
       319       107  TIP3  OH2           1.6955325432      -12.5757704396       -7.1406125855  CLST         107          1.0000000000
       320       107  TIP3  H1            0.9870307559      -12.0386654482       -6.7759962997  CLST         107          1.0000000000
       321       107  TIP3  H2            2.0038066721      -12.5476674208       -6.2174995031  CLST         107          1.0000000000
       322       108  TIP3  OH2          -7.0989166477       -3.7741463574       14.5478713872  CLST         108          1.0000000000
       323       108  TIP3  H1           -7.1662709789       -4.6563656448       14.9314810144  CLST         108          1.0000000000
       324       108  TIP3  H2           -7.9994624862       -3.9331229790       14.1105013369  CLST         108          1.0000000000
       325       109  TIP3  OH2          -4.0497536754       -1.0627985295       11.4015429281  CLST         109          1.0000000000
       326       109  TIP3  H1           -4.2994389233       -1.9132238554       11.7651217681  CLST         109          1.0000000000
       327       109  TIP3  H2           -4.4230783362       -1.1624187271       10.5300883387  CLST         109          1.0000000000
       328       110  TIP3  OH2           1.1538402501       -3.7511690949       -3.2680152657  CLST         110          1.0000000000
       329       110  TIP3  H1            1.0147246133       -4.2850548017       -4.0255544913  CLST         110          1.0000000000
       330       110  TIP3  H2            0.2388712487       -3.8204981725       -2.9240511145  CLST         110          1.0000000000
       331       111  TIP3  OH2          -5.2043771396       -0.8002317773       -6.1451168594  CLST         111          1.0000000000
       332       111  TIP3  H1           -4.8262006937       -0.8046344709       -7.2475932216  CLST         111          1.0000000000
       333       111  TIP3  H2           -4.3792948071       -1.2629699306       -6.4502934662  CLST         111          1.0000000000
       334       112  TIP3  OH2           2.3555743992      -12.1920644293       -4.6063378216  CLST         112          1.0000000000
       335       112  TIP3  H1            2.1919124561      -12.6469295076       -3.7602054048  CLST         112          1.0000000000
       336       112  TIP3  H2            2.1378992744      -11.4372116895       -3.9358670465  CLST         112          1.0000000000
       337       113  TIP3  OH2          13.9308664059        5.7955623062       12.3858373989  CLST         113          1.0000000000
       338       113  TIP3  H1           13.4235516543        6.5528906586       12.1895283474  CLST         113          1.0000000000
       339       113  TIP3  H2           14.4872587203        6.1336989013       11.6476352554  CLST         113          1.0000000000
       340       114  TIP3  OH2          -5.1682703342      -11.5606259608       -5.2016465567  CLST         114          1.0000000000
       341       114  TIP3  H1           -4.8569633553      -10.6826773901       -5.5042627536  CLST         114          1.0000000000
       342       114  TIP3  H2           -4.6464516730      -12.1386060391       -5.7196656026  CLST         114          1.0000000000
       343       115  TIP3  OH2           4.6315996076      -13.8506468519       -8.8942736246  CLST         115          1.0000000000
       344       115  TIP3  H1            4.3097355569      -14.4353823697       -9.5556522132  CLST         115          1.0000000000
       345       115  TIP3  H2            4.0969637545      -13.2140028352       -9.5367560988  CLST         115          1.0000000000
       346       116  TIP3  OH2           8.0390680421        5.7346294942      -14.3869332779  CLST         116          1.0000000000
       347       116  TIP3  H1            8.8365892998        5.2811609768      -14.3539160001  CLST         116          1.0000000000
       348       116  TIP3  H2            7.5525061548        5.0064341381      -13.9753080088  CLST         116          1.0000000000
       349       117  TIP3  OH2          -0.2508272236        1.7274122932       12.9304582732  CLST         117          1.0000000000
       350       117  TIP3  H1           -0.8531285104        1.6907343865       13.6779570225  CLST         117          1.0000000000
       351       117  TIP3  H2            0.1046732205        2.6031332392       13.1429371802  CLST         117          1.0000000000
       352       118  TIP3  OH2          12.8349977296       -9.7565028284       -6.7376048225  CLST         118          1.0000000000
       353       118  TIP3  H1           12.0659360100       -9.3822416033       -6.2389641360  CLST         118          1.0000000000
       354       118  TIP3  H2           13.1939495479       -9.0450638883       -6.1530413851  CLST         118          1.0000000000
       355       119  TIP3  OH2         -11.9698695620       -1.4279480960        4.3910559596  CLST         119          1.0000000000
       356       119  TIP3  H1          -11.1729443894       -1.9269625586        4.3816185499  CLST         119          1.0000000000
       357       119  TIP3  H2          -11.9096576440       -1.1864827249        5.3237504161  CLST         119          1.0000000000
       358       120  TIP3  OH2         -11.7220354893        3.9503418670       -8.0457151699  CLST         120          1.0000000000
       359       120  TIP3  H1          -12.4933442416        4.0232136000       -8.6487440238  CLST         120          1.0000000000
       360       120  TIP3  H2          -12.4201121672        4.0156669780       -7.3572557485  CLST         120          1.0000000000
       361       121  TIP3  OH2          -6.1903110695       -7.2503100825        4.0215890085  CLST         121          1.0000000000
       362       121  TIP3  H1           -5.8022542056       -7.3857387956        3.1747980149  CLST         121          1.0000000000
       363       121  TIP3  H2           -7.0207228515       -6.8883117190        3.7332714350  CLST         121          1.0000000000
       364       122  TIP3  OH2           9.4842159666       -7.3620896233       -6.5906086071  CLST         122          1.0000000000
       365       122  TIP3  H1            9.5268373326       -8.2306065733       -7.1768601859  CLST         122          1.0000000000
       366       122  TIP3  H2            9.9424231787       -7.1862219076       -7.4687774634  CLST         122          1.0000000000
       367       123  TIP3  OH2          -6.8397571663      -10.2714215279        0.5445337078  CLST         123          1.0000000000
       368       123  TIP3  H1           -7.3813396695      -10.5339534622       -0.4320315930  CLST         123          1.0000000000
       369       123  TIP3  H2           -7.8536333220       -9.7977003285        0.1394058762  CLST         123          1.0000000000
       370       124  TIP3  OH2         -12.9640341618       -2.0183511934       -9.7182445146  CLST         124          1.0000000000
       371       124  TIP3  H1          -13.8915388162       -2.3497919077       -9.7263431187  CLST         124          1.0000000000
       372       124  TIP3  H2          -12.7688928147       -2.8576159794      -10.0954917747  CLST         124          1.0000000000
       373       125  TIP3  OH2           6.7119011317        2.8619382521       -5.1829502955  CLST         125          1.0000000000
       374       125  TIP3  H1            6.3596042240        2.1775417298       -4.5812679837  CLST         125          1.0000000000
       375       125  TIP3  H2            6.0035863521        2.6550120117       -5.8053103117  CLST         125          1.0000000000
       376       126  TIP3  OH2          12.5136254368      -10.1860691911        5.4588240285  CLST         126          1.0000000000
       377       126  TIP3  H1           12.1136389514      -11.0567284657        5.2371709671  CLST         126          1.0000000000
       378       126  TIP3  H2           13.0179440001      -10.5630644961        6.1688957518  CLST         126          1.0000000000
       379       127  TIP3  OH2         -10.5225777924       -5.9697832497       -5.1917782047  CLST         127          1.0000000000
       380       127  TIP3  H1          -10.6173039626       -5.3665989445       -4.4442493656  CLST         127          1.0000000000
       381       127  TIP3  H2           -9.6369313753       -6.1214108049       -4.8219756245  CLST         127          1.0000000000
       382       128  TIP3  OH2          -6.3130769106       -3.2355842781        7.1955752784  CLST         128          1.0000000000
       383       128  TIP3  H1           -6.2782015273       -4.2004935342        7.2358557246  CLST         128          1.0000000000
       384       128  TIP3  H2           -6.2730932547       -3.0536850547        6.2694062962  CLST         128          1.0000000000
       385       129  TIP3  OH2         -12.0682796717      -14.1097256304      -10.8858874827  CLST         129          1.0000000000
       386       129  TIP3  H1          -11.1570889076      -14.2870485822      -10.7775580142  CLST         129          1.0000000000
       387       129  TIP3  H2          -12.4526687779      -14.9146687913      -11.0034676264  CLST         129          1.0000000000
       388       130  TIP3  OH2           9.1324223326       -0.7575736790       14.0140063025  CLST         130          1.0000000000
       389       130  TIP3  H1            8.7181564606       -1.4364893257       14.5245464749  CLST         130          1.0000000000
       390       130  TIP3  H2            8.2780216175       -0.2897362052       14.0397766282  CLST         130          1.0000000000
       391       131  TIP3  OH2          -9.7112387174      -11.0356063712       -1.2335109420  CLST         131          1.0000000000
       392       131  TIP3  H1           -9.4045545663      -11.3731336904       -0.4000811433  CLST         131          1.0000000000
       393       131  TIP3  H2          -10.5418952838      -11.5549586603       -1.0200590625  CLST         131          1.0000000000
       394       132  TIP3  OH2           9.2877710494       -2.4407920679        9.4561641047  CLST         132          1.0000000000
       395       132  TIP3  H1            9.9999450516       -2.3528392807        8.7996775662  CLST         132          1.0000000000
       396       132  TIP3  H2            9.5468004371       -1.5816839709        9.7571598014  CLST         132          1.0000000000
       397       133  TIP3  OH2          -9.5714010942       -7.7208431258        7.9028880229  CLST         133          1.0000000000
       398       133  TIP3  H1           -8.5695667348       -7.8785513252        8.0004730261  CLST         133          1.0000000000
       399       133  TIP3  H2           -9.2202414268       -7.3791745931        7.0719841924  CLST         133          1.0000000000
       400       134  TIP3  OH2          -8.9968519137      -12.3301486871       14.6454306337  CLST         134          1.0000000000
       401       134  TIP3  H1           -9.5098821035      -12.2523015034       13.6778570971  CLST         134          1.0000000000
       402       134  TIP3  H2           -8.8218860617      -11.4946505982       13.8795875533  CLST         134          1.0000000000
       403       135  TIP3  OH2          -9.0897350376       10.6718269873        3.4515466295  CLST         135          1.0000000000
       404       135  TIP3  H1           -8.9931536226       10.0408260041        2.7495566027  CLST         135          1.0000000000
       405       135  TIP3  H2           -8.3427414835       10.2805528299        3.8335481235  CLST         135          1.0000000000
       406       136  TIP3  OH2          -5.2083056555       13.1638169637      -11.3602966611  CLST         136          1.0000000000
       407       136  TIP3  H1           -5.2267370526       13.4790955674      -10.4488524032  CLST         136          1.0000000000
       408       136  TIP3  H2           -5.7417801036       13.9116147718      -11.6198512471  CLST         136          1.0000000000
       409       137  TIP3  OH2          -5.8946359521      -10.9328472884        7.5801241791  CLST         137          1.0000000000
       410       137  TIP3  H1           -5.7499095297      -11.5928902462        6.9747327828  CLST         137          1.0000000000
       411       137  TIP3  H2           -4.8847041968      -11.4680881381        7.5177351130  CLST         137          1.0000000000
       412       138  TIP3  OH2           9.6632493460        8.5930195113       10.7464064508  CLST         138          1.0000000000
       413       138  TIP3  H1            9.6180244811        7.8397323762       11.6081690448  CLST         138          1.0000000000
       414       138  TIP3  H2           10.3343767437        8.8804841506       11.2483470663  CLST         138          1.0000000000
       415       139  TIP3  OH2           2.0480084832        9.8731734745       12.3332735140  CLST         139          1.0000000000
       416       139  TIP3  H1            3.0407344919        9.8360417483       12.2694134585  CLST         139          1.0000000000
       417       139  TIP3  H2            2.2047689201        8.9974714599       12.8029292347  CLST         139          1.0000000000
       418       140  TIP3  OH2          -3.1635868463       -1.2388206414       -7.8121087476  CLST         140          1.0000000000
       419       140  TIP3  H1           -2.3034798446       -0.7432995268       -7.9590289686  CLST         140          1.0000000000
       420       140  TIP3  H2           -2.5558158867       -1.9824154726       -7.9916260732  CLST         140          1.0000000000
       421       141  TIP3  OH2         -12.9679568230        5.6122987351       12.6574146450  CLST         141          1.0000000000
       422       141  TIP3  H1          -12.2756161817        6.0481649627       12.1355642119  CLST         141          1.0000000000
       423       141  TIP3  H2          -12.4776622637        5.9564136690       13.3915772846  CLST         141          1.0000000000
       424       142  TIP3  OH2          14.9517617159       -6.8062939834        5.3318544831  CLST         142          1.0000000000
       425       142  TIP3  H1           14.2177703885       -7.0608494759        4.7278877161  CLST         142          1.0000000000
       426       142  TIP3  H2           14.9042246094       -7.6494596577        5.7939477476  CLST         142          1.0000000000
       427       143  TIP3  OH2           6.5116104082       -6.8758999281        1.9233015154  CLST         143          1.0000000000
       428       143  TIP3  H1            6.7709589236       -6.6857798704        1.0601026498  CLST         143          1.0000000000
       429       143  TIP3  H2            5.7149678827       -7.2215420451        1.4504717200  CLST         143          1.0000000000
       430       144  TIP3  OH2          -1.4923501401      -13.8404457036        7.9562165225  CLST         144          1.0000000000
       431       144  TIP3  H1           -1.3472044602      -14.2757906051        7.1350367159  CLST         144          1.0000000000
       432       144  TIP3  H2           -1.2721153180      -14.6839019175        8.3895693957  CLST         144          1.0000000000
       433       145  TIP3  OH2           1.8825431288        7.0898801188       13.5936217092  CLST         145          1.0000000000
       434       145  TIP3  H1            1.0832138451        7.1656804546       14.0720687704  CLST         145          1.0000000000
       435       145  TIP3  H2            1.3816596998        7.0453552664       12.7701266172  CLST         145          1.0000000000
       436       146  TIP3  OH2          -6.0589996425       10.5243954798       -8.6415349240  CLST         146          1.0000000000
       437       146  TIP3  H1           -5.5275555064       11.3651463328       -8.6545742402  CLST         146          1.0000000000
       438       146  TIP3  H2           -6.7886101077       10.9751055965       -8.3045790357  CLST         146          1.0000000000
       439       147  TIP3  OH2           1.0107726102        2.8138849639       -4.1614786144  CLST         147          1.0000000000
       440       147  TIP3  H1           -0.0266159533        3.2426783825       -4.1136547310  CLST         147          1.0000000000
       441       147  TIP3  H2            0.6076893380        3.0347705158       -4.9119575062  CLST         147          1.0000000000
       442       148  TIP3  OH2           7.3433157124        6.6254764995       -3.3187943364  CLST         148          1.0000000000
       443       148  TIP3  H1            7.9451336907        5.8794698404       -3.2855274143  CLST         148          1.0000000000
       444       148  TIP3  H2            6.7534788285        5.9469363113       -3.0832441209  CLST         148          1.0000000000
       445       149  TIP3  OH2          -4.3465532291      -13.1625867267       11.0596425265  CLST         149          1.0000000000
       446       149  TIP3  H1           -4.7105001317      -12.3474699639       11.4201531786  CLST         149          1.0000000000
       447       149  TIP3  H2           -3.5426866873      -12.6587219289       11.0241920528  CLST         149          1.0000000000
       448       150  TIP3  OH2          10.7248941997        1.4271239135       -2.2488363128  CLST         150          1.0000000000
       449       150  TIP3  H1           10.2665162933        1.2741811427       -1.3484124655  CLST         150          1.0000000000
       450       150  TIP3  H2            9.8753316709        1.1007220253       -2.6128665999  CLST         150          1.0000000000
       451       151  TIP3  OH2           3.6973659906      -12.1035436232        4.2528527292  CLST         151          1.0000000000
       452       151  TIP3  H1            4.1803062805      -12.2237725086        3.6198335134  CLST         151          1.0000000000
       453       151  TIP3  H2            3.5692706247      -12.9671635937        3.4256834849  CLST         151          1.0000000000
       454       152  TIP3  OH2           0.4044539406        6.2593870312       -6.2093577435  CLST         152          1.0000000000
       455       152  TIP3  H1            0.7100803628        7.1577804442       -6.2452830125  CLST         152          1.0000000000
       456       152  TIP3  H2            1.2436691933        5.9336844908       -6.5003802453  CLST         152          1.0000000000
       457       153  TIP3  OH2          -1.1966407347       10.3065993219       -7.4539664357  CLST         153          1.0000000000
       458       153  TIP3  H1           -1.6113792422       11.1492363864       -7.1450813655  CLST         153          1.0000000000
       459       153  TIP3  H2           -0.3928504946       10.8551928353       -7.3653390820  CLST         153          1.0000000000
       460       154  TIP3  OH2         -11.7790968097       -7.9154051062       -0.3694009193  CLST         154          1.0000000000
       461       154  TIP3  H1          -12.4471057496       -7.1509685961       -0.0741715122  CLST         154          1.0000000000
       462       154  TIP3  H2          -11.1346244218       -7.1782569300       -0.4813091774  CLST         154          1.0000000000
       463       155  TIP3  OH2          10.1741671227       -5.2153785909       14.2300547085  CLST         155          1.0000000000
       464       155  TIP3  H1           10.6295025535       -4.4996956006       14.1722734069  CLST         155          1.0000000000
       465       155  TIP3  H2           10.3383957482       -4.8869853874       13.1606096766  CLST         155          1.0000000000
       466       156  TIP3  OH2          13.9038561024        1.9285543553        0.0719507031  CLST         156          1.0000000000
       467       156  TIP3  H1           14.7465424487        1.4716875014       -0.1179444202  CLST         156          1.0000000000
       468       156  TIP3  H2           13.8012738037        1.7772848919       -0.8737616109  CLST         156          1.0000000000
       469       157  TIP3  OH2           0.3041043778       -4.9609691160       -8.2376834710  CLST         157          1.0000000000
       470       157  TIP3  H1            1.0176147971       -4.6490459054       -8.8427745495  CLST         157          1.0000000000
       471       157  TIP3  H2            0.2438654642       -5.7976714591       -8.7312504943  CLST         157          1.0000000000
       472       158  TIP3  OH2          -6.5740435685       -1.5251440706       -2.5088637844  CLST         158          1.0000000000
       473       158  TIP3  H1           -7.5011882238       -1.7722772449       -2.5751922921  CLST         158          1.0000000000
       474       158  TIP3  H2           -6.4630737675       -2.2401155355       -3.1405863515  CLST         158          1.0000000000
       475       159  TIP3  OH2           8.1018381241      -11.3378011065        8.0175070022  CLST         159          1.0000000000
       476       159  TIP3  H1            7.2358935482      -11.4685422028        7.6889947164  CLST         159          1.0000000000
       477       159  TIP3  H2            7.9948108462      -10.5085937806        8.5774234315  CLST         159          1.0000000000
       478       160  TIP3  OH2           4.6030701308       -9.2230763693        2.0305722176  CLST         160          1.0000000000
       479       160  TIP3  H1            4.5242646458       -8.8084129654        2.8845409395  CLST         160          1.0000000000
       480       160  TIP3  H2            4.9290686091       -9.9510355052        2.5452364907  CLST         160          1.0000000000
       481       161  TIP3  OH2           3.9207717215       -6.5887809780       -2.5239486783  CLST         161          1.0000000000
       482       161  TIP3  H1            4.6377742594       -7.0313707950       -2.1666857500  CLST         161          1.0000000000
       483       161  TIP3  H2            3.2087387901       -7.0113939610       -2.0010039809  CLST         161          1.0000000000
       484       162  TIP3  OH2           6.6571959506      -10.3769375620        2.8808079934  CLST         162          1.0000000000
       485       162  TIP3  H1            7.5730791405      -10.6131313449        3.1015279318  CLST         162          1.0000000000
       486       162  TIP3  H2            6.8567312558       -9.7984666852        3.5748626848  CLST         162          1.0000000000
       487       163  TIP3  OH2         -13.2852840900        0.2960653230        2.5962915301  CLST         163          1.0000000000
       488       163  TIP3  H1          -13.7534502924        0.6350887526        3.3803559361  CLST         163          1.0000000000
       489       163  TIP3  H2          -12.7061993156       -0.1573357690        3.2808970105  CLST         163          1.0000000000
       490       164  TIP3  OH2           8.2722904182        2.8210313358       10.0851721848  CLST         164          1.0000000000
       491       164  TIP3  H1            8.2397990434        3.7667383043        9.3525719292  CLST         164          1.0000000000
       492       164  TIP3  H2            9.1001459825        3.2300537475        9.5964952896  CLST         164          1.0000000000
       493       165  TIP3  OH2          14.2582826747        4.2614664395        5.1663912184  CLST         165          1.0000000000
       494       165  TIP3  H1           13.3256679767        4.5300412717        5.1209487730  CLST         165          1.0000000000
       495       165  TIP3  H2           13.9079345432        3.6338126218        4.4374993062  CLST         165          1.0000000000
       496       166  TIP3  OH2          -6.2844010838      -12.6994417956        5.1300965005  CLST         166          1.0000000000
       497       166  TIP3  H1           -6.3495940195      -12.4010584113        4.2419439933  CLST         166          1.0000000000
       498       166  TIP3  H2           -7.2298444839      -12.4595947227        5.0147014620  CLST         166          1.0000000000
       499       167  TIP3  OH2           0.0781022822       -7.4382383847       -9.4208945764  CLST         167          1.0000000000
       500       167  TIP3  H1            0.3375817096       -8.0095613260      -10.1865421069  CLST         167          1.0000000000
       501       167  TIP3  H2            0.9671990105       -7.7377992474       -9.1055885536  CLST         167          1.0000000000
       502       168  TIP3  OH2          -2.7689351141       -2.4931771345        1.4760386787  CLST         168          1.0000000000
       503       168  TIP3  H1           -3.0472400801       -3.2627035697        1.9347779228  CLST         168          1.0000000000
       504       168  TIP3  H2           -3.1401426729       -3.0035490435        0.7918194117  CLST         168          1.0000000000
       505       169  TIP3  OH2           0.6171700083       12.2090494687       12.4979014779  CLST         169          1.0000000000
       506       169  TIP3  H1            1.4450456798       11.6197840847       12.6064462529  CLST         169          1.0000000000
       507       169  TIP3  H2            1.2247039636       12.8148980626       12.9258822379  CLST         169          1.0000000000
       508       170  TIP3  OH2         -14.4895141068      -12.2340572921        4.9466183076  CLST         170          1.0000000000
       509       170  TIP3  H1          -13.7152725416      -12.7585299810        5.2218589883  CLST         170          1.0000000000
       510       170  TIP3  H2          -14.4141127710      -11.8212012157        5.8577659020  CLST         170          1.0000000000
       511       171  TIP3  OH2          -9.6597997284        2.8045209118        2.6101022027  CLST         171          1.0000000000
       512       171  TIP3  H1           -8.7068963827        2.8913584249        2.5597647596  CLST         171          1.0000000000
       513       171  TIP3  H2           -9.5000902890        2.4119503547        3.4765133222  CLST         171          1.0000000000
       514       172  TIP3  OH2          14.0460070801       -7.2281846140      -11.7148654338  CLST         172          1.0000000000
       515       172  TIP3  H1           13.8905356701       -7.1797823674      -10.7282069824  CLST         172          1.0000000000
       516       172  TIP3  H2           13.3562167025       -7.8923779777      -11.6534335924  CLST         172          1.0000000000
       517       173  TIP3  OH2         -12.8500843665       -5.5680603180        3.0675334940  CLST         173          1.0000000000
       518       173  TIP3  H1          -13.2452913096       -4.7026602682        3.2111481952  CLST         173          1.0000000000
       519       173  TIP3  H2          -13.1265929252       -5.5421309498        2.1256895319  CLST         173          1.0000000000
       520       174  TIP3  OH2           5.4400883403      -13.8753128227        6.0011059407  CLST         174          1.0000000000
       521       174  TIP3  H1            5.1204081788      -14.4566503678        6.6752365746  CLST         174          1.0000000000
       522       174  TIP3  H2            4.5224207103      -13.6284314677        5.9676838970  CLST         174          1.0000000000
       523       175  TIP3  OH2           4.3631140508       -4.1270298589        7.6376911723  CLST         175          1.0000000000
       524       175  TIP3  H1            4.1670043122       -4.4982690674        6.7626704786  CLST         175          1.0000000000
       525       175  TIP3  H2            5.2603965199       -3.8224883498        7.4317317109  CLST         175          1.0000000000
       526       176  TIP3  OH2           8.2386396639        2.6671336855      -10.8673695823  CLST         176          1.0000000000
       527       176  TIP3  H1            9.2684982632        2.7513866938      -10.9570690908  CLST         176          1.0000000000
       528       176  TIP3  H2            8.4353303935        1.7528059054      -11.1893514606  CLST         176          1.0000000000
       529       177  TIP3  OH2          -3.8989345570       11.1032074117        7.0760687969  CLST         177          1.0000000000
       530       177  TIP3  H1           -3.1555641822       10.7631895476        6.5460914685  CLST         177          1.0000000000
       531       177  TIP3  H2           -4.2765334468       10.2114100951        7.0335315281  CLST         177          1.0000000000
       532       178  TIP3  OH2           4.0358830429       -6.7088802142        0.7381554985  CLST         178          1.0000000000
       533       178  TIP3  H1            3.3156113382       -6.2098579233        0.3475971520  CLST         178          1.0000000000
       534       178  TIP3  H2            3.5732460517       -7.1150885812        1.4815158218  CLST         178          1.0000000000
       535       179  TIP3  OH2           2.8660592849       -9.9083163662       -0.0533729671  CLST         179          1.0000000000
       536       179  TIP3  H1            2.1274147955       -9.3586399715        0.2985822205  CLST         179          1.0000000000
       537       179  TIP3  H2            3.4405909183       -9.4817342583        0.5927102633  CLST         179          1.0000000000
       538       180  TIP3  OH2          -1.8538017588       -3.4496933595        7.9670590390  CLST         180          1.0000000000
       539       180  TIP3  H1           -2.0092571809       -2.5919935574        8.4491957397  CLST         180          1.0000000000
       540       180  TIP3  H2           -2.5300131666       -3.3549378334        7.3191718459  CLST         180          1.0000000000
       541       181  TIP3  OH2         -12.2430268612        0.1650688149      -11.0617324618  CLST         181          1.0000000000
       542       181  TIP3  H1          -11.2913781137       -0.1598554076      -10.7591997166  CLST         181          1.0000000000
       543       181  TIP3  H2          -12.4860444735       -0.5118992695      -10.4620557919  CLST         181          1.0000000000
       544       182  TIP3  OH2         -10.4721665978      -12.7295663098        5.4294849688  CLST         182          1.0000000000
       545       182  TIP3  H1          -11.1063690844      -12.8038524442        6.0963327464  CLST         182          1.0000000000
       546       182  TIP3  H2           -9.9889586843      -12.3235056654        6.1394594749  CLST         182          1.0000000000
       547       183  TIP3  OH2          11.9737820817        5.3574024333        4.4031670758  CLST         183          1.0000000000
       548       183  TIP3  H1           11.4713934761        5.3494501525        3.3312417904  CLST         183          1.0000000000
       549       183  TIP3  H2           11.7666750264        6.2452815781        3.8832470276  CLST         183          1.0000000000
       550       184  TIP3  OH2          -0.1684849783       -0.4415402345        7.9531181343  CLST         184          1.0000000000
       551       184  TIP3  H1            0.7002477966       -0.8313530044        7.9043492870  CLST         184          1.0000000000
       552       184  TIP3  H2           -0.5062876832       -0.7030038699        8.8147175278  CLST         184          1.0000000000
       553       185  TIP3  OH2           9.2993756296       12.9084732804       -3.8293106569  CLST         185          1.0000000000
       554       185  TIP3  H1            8.4014967011       12.5398127277       -3.8972563962  CLST         185          1.0000000000
       555       185  TIP3  H2            8.9920995414       13.6657712719       -4.3678255343  CLST         185          1.0000000000
       556       186  TIP3  OH2          12.1524852328       -0.1429917294        4.2532318475  CLST         186          1.0000000000
       557       186  TIP3  H1           11.8577988694        0.2083957261        3.3825313990  CLST         186          1.0000000000
       558       186  TIP3  H2           11.4304510207        0.4508192403        4.6240324206  CLST         186          1.0000000000
       559       187  TIP3  OH2         -10.0756812551       -7.8255084227      -11.4809536675  CLST         187          1.0000000000
       560       187  TIP3  H1          -10.3905759829       -7.7706146944      -10.5263402326  CLST         187          1.0000000000
       561       187  TIP3  H2           -9.8204458954       -6.8819259022      -11.2619376286  CLST         187          1.0000000000
       562       188  TIP3  OH2         -14.9512571089       -0.1914614364        0.4890613798  CLST         188          1.0000000000
       563       188  TIP3  H1          -14.6818807268       -0.2944128268        1.4079121438  CLST         188          1.0000000000
       564       188  TIP3  H2          -14.8816363070       -1.0204164388       -0.0021066130  CLST         188          1.0000000000
       565       189  TIP3  OH2          13.5077521793        1.1030812988       14.2491200313  CLST         189          1.0000000000
       566       189  TIP3  H1           13.2047717507        0.4403823967       14.9517617159  CLST         189          1.0000000000
       567       189  TIP3  H2           13.7937606080        1.6354012747       14.8591719824  CLST         189          1.0000000000
       568       190  TIP3  OH2           0.5389784872       -8.0315038085        3.8566309256  CLST         190          1.0000000000
       569       190  TIP3  H1            1.0230831371       -8.3196344325        4.6641186505  CLST         190          1.0000000000
       570       190  TIP3  H2            1.0919464575       -7.2212702189        3.9194144177  CLST         190          1.0000000000
       571       191  TIP3  OH2          -0.8546460722       13.9617548652       -3.8782219370  CLST         191          1.0000000000
       572       191  TIP3  H1           -1.8286262266       13.9119806507       -4.0186429122  CLST         191          1.0000000000
       573       191  TIP3  H2           -1.0070082686       14.9150698638       -3.9820684212  CLST         191          1.0000000000
       574       192  TIP3  OH2          -5.0603121212       -0.2145457320       -0.9194046719  CLST         192          1.0000000000
       575       192  TIP3  H1           -5.9108364209       -0.4022473768       -1.2582350337  CLST         192          1.0000000000
       576       192  TIP3  H2           -5.5651292670        0.4337935521       -0.2846326285  CLST         192          1.0000000000
       577       193  TIP3  OH2         -12.7809971366      -12.9005858216        7.1720153841  CLST         193          1.0000000000
       578       193  TIP3  H1          -12.0130508993      -13.1819418453        7.7097947413  CLST         193          1.0000000000
       579       193  TIP3  H2          -12.4147866009      -12.0041534214        7.3173632061  CLST         193          1.0000000000
       580       194  TIP3  OH2          12.3348010786       12.4803544529      -11.2793219191  CLST         194          1.0000000000
       581       194  TIP3  H1           12.4754600873       13.4338557208      -11.2843749407  CLST         194          1.0000000000
       582       194  TIP3  H2           13.1942333237       12.1498112247      -11.5644589672  CLST         194          1.0000000000
       583       195  TIP3  OH2           4.8219189179        2.4783760597        3.6769082117  CLST         195          1.0000000000
       584       195  TIP3  H1            4.1319735764        2.8806896617        3.1894234561  CLST         195          1.0000000000
       585       195  TIP3  H2            5.0260211109        1.7116270545        3.1344206143  CLST         195          1.0000000000
       586       196  TIP3  OH2           7.2648854695        6.0187117335       11.1823283289  CLST         196          1.0000000000
       587       196  TIP3  H1            7.8456167272        5.2468306757       11.5370054556  CLST         196          1.0000000000
       588       196  TIP3  H2            7.6063899039        6.7990278490       11.7741398464  CLST         196          1.0000000000
       589       197  TIP3  OH2          -4.5478285845       -9.3700989834        3.9585787068  CLST         197          1.0000000000
       590       197  TIP3  H1           -4.7662129455       -9.0029610937        3.0424845717  CLST         197          1.0000000000
       591       197  TIP3  H2           -3.8435330733       -8.6700724638        3.9255176667  CLST         197          1.0000000000
       592       198  TIP3  OH2          -4.5537992894       -8.9941971189       -5.9939511050  CLST         198          1.0000000000
       593       198  TIP3  H1           -4.0158620675       -8.8696615725       -6.8720237165  CLST         198          1.0000000000
       594       198  TIP3  H2           -5.3571967901       -8.9923023873       -6.5146869245  CLST         198          1.0000000000
       595       199  TIP3  OH2          11.3460518841        7.6895001742       -2.1490906916  CLST         199          1.0000000000
       596       199  TIP3  H1           11.2563421597        8.5772262465       -1.8383596553  CLST         199          1.0000000000
       597       199  TIP3  H2           12.1335403441        7.6642576242       -1.6202598196  CLST         199          1.0000000000
       598       200  TIP3  OH2          -4.7579118364       -7.4178086138       -1.2360170542  CLST         200          1.0000000000
       599       200  TIP3  H1           -3.8241639184       -7.5210157840       -1.5518714585  CLST         200          1.0000000000
       600       200  TIP3  H2           -4.7957742084       -6.7281887670       -1.9346857791  CLST         200          1.0000000000
       601       201  TIP3  OH2          13.6976924649      -10.6244047193       12.0020425218  CLST         201          1.0000000000
       602       201  TIP3  H1           13.3966621890      -10.0484480412       12.7048297644  CLST         201          1.0000000000
       603       201  TIP3  H2           13.1731977088      -10.2732031403       11.2957580999  CLST         201          1.0000000000
       604       202  TIP3  OH2          -2.7052816470       -9.5422220875        7.9522555062  CLST         202          1.0000000000
       605       202  TIP3  H1           -1.7901488488       -9.9962339635        8.5826990038  CLST         202          1.0000000000
       606       202  TIP3  H2           -2.3209143987      -10.3566534929        7.7284162415  CLST         202          1.0000000000
       607       203  TIP3  OH2          10.3486200885        4.3846346417       13.9052803787  CLST         203          1.0000000000
       608       203  TIP3  H1            9.8257246988        3.9908255817       13.2225551145  CLST         203          1.0000000000
       609       203  TIP3  H2            9.8022631439        3.2927334261       14.1278596720  CLST         203          1.0000000000
       610       204  TIP3  OH2          -5.1713520383        6.2855444871        5.8496536874  CLST         204          1.0000000000
       611       204  TIP3  H1           -6.0990421982        6.4505988963        6.1804624253  CLST         204          1.0000000000
       612       204  TIP3  H2           -4.8692993236        6.9525147346        6.4975539765  CLST         204          1.0000000000
       613       205  TIP3  OH2          -2.4881569956        1.4757788200       -4.7315272543  CLST         205          1.0000000000
       614       205  TIP3  H1           -1.8922509214        1.6620080106       -5.4712337465  CLST         205          1.0000000000
       615       205  TIP3  H2           -3.0233787321        2.0867203388       -5.2034812695  CLST         205          1.0000000000
       616       206  TIP3  OH2          -8.4819426858       -1.2495860695        4.4921324000  CLST         206          1.0000000000
       617       206  TIP3  H1           -8.6658956887       -1.3255846799        5.4454970777  CLST         206          1.0000000000
       618       206  TIP3  H2           -7.9763398951       -0.4714361878        4.7300015047  CLST         206          1.0000000000
       619       207  TIP3  OH2          -7.8017616507        9.5086735885        0.5238034522  CLST         207          1.0000000000
       620       207  TIP3  H1           -7.0404760017        8.8008571347        0.5946541322  CLST         207          1.0000000000
       621       207  TIP3  H2           -8.1823718423        8.8416761384        1.1811770057  CLST         207          1.0000000000
       622       208  TIP3  OH2           9.2283795854       14.2112758805      -11.7567182597  CLST         208          1.0000000000
       623       208  TIP3  H1            9.0141178702       13.9563163059      -12.6435711322  CLST         208          1.0000000000
       624       208  TIP3  H2            9.9455505427       14.7857415474      -12.0464288394  CLST         208          1.0000000000
       625       209  TIP3  OH2          -6.5055442996       -6.1692782586      -14.4424417413  CLST         209          1.0000000000
       626       209  TIP3  H1           -7.4297753517       -6.3575416125      -14.4316458573  CLST         209          1.0000000000
       627       209  TIP3  H2           -6.3065806785       -6.7248697291      -13.7081451816  CLST         209          1.0000000000
       628       210  TIP3  OH2          -2.4454859203        1.2442990711        8.1600358107  CLST         210          1.0000000000
       629       210  TIP3  H1           -1.9110025176        0.4724306749        8.1511655039  CLST         210          1.0000000000
       630       210  TIP3  H2           -2.0840020725        1.5167638902        9.0239735391  CLST         210          1.0000000000
       631       211  TIP3  OH2          -0.7441256148       -0.0972842039       -3.0099974807  CLST         211          1.0000000000
       632       211  TIP3  H1           -1.5817501381       -0.4719383579       -2.7494478800  CLST         211          1.0000000000
       633       211  TIP3  H2           -1.2300631070        0.5787232044       -3.5206779146  CLST         211          1.0000000000
       634       212  TIP3  OH2           7.0947210728        2.9800281683        5.3667424475  CLST         212          1.0000000000
       635       212  TIP3  H1            6.7687723543        2.0290136696        5.5850541231  CLST         212          1.0000000000
       636       212  TIP3  H2            6.1625683919        3.0959898642        5.0393809424  CLST         212          1.0000000000
       637       213  TIP3  OH2           1.8412262903       -4.9589991373       -0.6035954376  CLST         213          1.0000000000
       638       213  TIP3  H1            1.8289909383       -4.1214839176       -1.0392961531  CLST         213          1.0000000000
       639       213  TIP3  H2            2.0209198263       -5.4662430093       -1.3566466200  CLST         213          1.0000000000
       640       214  TIP3  OH2           2.1995122440       -6.9720538907      -11.5767816354  CLST         214          1.0000000000
       641       214  TIP3  H1            2.6293685659       -7.8216031632      -11.3564611872  CLST         214          1.0000000000
       642       214  TIP3  H2            2.9075251242       -6.5374382792      -11.0870092568  CLST         214          1.0000000000
       643       215  TIP3  OH2         -12.4301295425        2.7749170242      -10.9828892624  CLST         215          1.0000000000
       644       215  TIP3  H1          -12.5823712819        1.7662577554      -10.5943883559  CLST         215          1.0000000000
       645       215  TIP3  H2          -12.7332338147        2.0016822809      -11.6708457141  CLST         215          1.0000000000
       646       216  TIP3  OH2          11.3861226118       -6.6643905781       -4.8004618099  CLST         216          1.0000000000
       647       216  TIP3  H1           10.8434035108       -7.3609934737       -4.3779642984  CLST         216          1.0000000000
       648       216  TIP3  H2           10.5780719209       -6.6670381203       -5.3621704228  CLST         216          1.0000000000
       649       217  TIP3  OH2          -6.5536703810        9.1518896001        4.0295628464  CLST         217          1.0000000000
       650       217  TIP3  H1           -5.5837573096        8.9364854944        4.1789796351  CLST         217          1.0000000000
       651       217  TIP3  H2           -6.8282903685        8.4014316254        3.5805145302  CLST         217          1.0000000000
       652       218  TIP3  OH2           6.0726979158       -7.3637165095       -8.2410014979  CLST         218          1.0000000000
       653       218  TIP3  H1            6.0393177993       -8.3008565868       -8.0750803046  CLST         218          1.0000000000
       654       218  TIP3  H2            6.1227900934       -7.2563210887       -7.2727672248  CLST         218          1.0000000000
       655       219  TIP3  OH2           2.3873872503      -13.2138979822        7.4676721197  CLST         219          1.0000000000
       656       219  TIP3  H1            1.8115209818      -13.3565312363        8.0960620446  CLST         219          1.0000000000
       657       219  TIP3  H2            2.5798890240      -13.0358527982        8.6033169475  CLST         219          1.0000000000
       658       220  TIP3  OH2           2.1837812151        1.5374267455      -11.1597601913  CLST         220          1.0000000000
       659       220  TIP3  H1            2.3896704926        1.7499610021      -12.0898541286  CLST         220          1.0000000000
       660       220  TIP3  H2            3.0434066845        1.0409116523      -11.3012549535  CLST         220          1.0000000000
       661       221  TIP3  OH2           1.8611170162       -0.1450958297        2.7104796166  CLST         221          1.0000000000
       662       221  TIP3  H1            0.9789114719       -0.1054734436        2.2913282495  CLST         221          1.0000000000
       663       221  TIP3  H2            1.4212724966        0.3146154060        3.4092822357  CLST         221          1.0000000000
       664       222  TIP3  OH2          12.2750169146        0.6441459251        1.7007041084  CLST         222          1.0000000000
       665       222  TIP3  H1           12.8612010798        0.7256225154        0.9777150210  CLST         222          1.0000000000
       666       222  TIP3  H2           11.5345957940        0.6236172176        1.0727220260  CLST         222          1.0000000000
       667       223  TIP3  OH2           1.2796437421      -10.7332904219      -13.0181666285  CLST         223          1.0000000000
       668       223  TIP3  H1            0.9794216926      -10.9886534724      -12.1521430503  CLST         223          1.0000000000
       669       223  TIP3  H2            0.6665494236      -10.0036841174      -12.7988975940  CLST         223          1.0000000000
       670       224  TIP3  OH2          -9.3186256609        6.9626536572      -12.7036427619  CLST         224          1.0000000000
       671       224  TIP3  H1           -9.9451776264        6.1986324342      -12.2584923490  CLST         224          1.0000000000
       672       224  TIP3  H2           -9.2339549835        6.1586062038      -12.9187365536  CLST         224          1.0000000000
       673       225  TIP3  OH2          13.1080352226        3.8982938006       -7.5655016743  CLST         225          1.0000000000
       674       225  TIP3  H1           12.1274488024        3.8810739745       -7.6347101538  CLST         225          1.0000000000
       675       225  TIP3  H2           13.0404933830        3.5189706540       -6.6410846200  CLST         225          1.0000000000
       676       226  TIP3  OH2           4.9995122428        4.9568930038       10.5047583430  CLST         226          1.0000000000
       677       226  TIP3  H1            5.6295164914        5.5821541860       11.1926697212  CLST         226          1.0000000000
       678       226  TIP3  H2            5.7468187418        5.2033899401       10.3464934086  CLST         226          1.0000000000
       679       227  TIP3  OH2          -6.1744823864        0.9522642077        9.8997112535  CLST         227          1.0000000000
       680       227  TIP3  H1           -6.7617076714        0.6777410972       10.5896887244  CLST         227          1.0000000000
       681       227  TIP3  H2           -5.8066818563        0.1072923295        9.5398527731  CLST         227          1.0000000000
       682       228  TIP3  OH2          -8.7327732556       -5.1135983299       10.4840957685  CLST         228          1.0000000000
       683       228  TIP3  H1           -8.7979799306       -4.9551387382        9.5747399831  CLST         228          1.0000000000
       684       228  TIP3  H2           -7.7608241348       -5.1954755058       10.4578434886  CLST         228          1.0000000000
       685       229  TIP3  OH2          11.4111523776        7.9795595150      -14.9517617159  CLST         229          1.0000000000
       686       229  TIP3  H1           11.2993065290        8.2272520876      -14.0008907105  CLST         229          1.0000000000
       687       229  TIP3  H2           11.9373435458        7.3144262074      -14.4625553136  CLST         229          1.0000000000
       688       230  TIP3  OH2         -10.8697001275       -3.4707182823        8.7263776364  CLST         230          1.0000000000
       689       230  TIP3  H1          -11.3064820124       -4.2612459746        8.4604207689  CLST         230          1.0000000000
       690       230  TIP3  H2          -11.7828690377       -3.1748162309        8.9158934927  CLST         230          1.0000000000
       691       231  TIP3  OH2          -0.2744068531        2.9882116024      -11.9797770302  CLST         231          1.0000000000
       692       231  TIP3  H1            0.3205017162        2.3649882072      -11.5631553703  CLST         231          1.0000000000
       693       231  TIP3  H2            0.3713138189        3.0499413640      -12.6480645881  CLST         231          1.0000000000
       694       232  TIP3  OH2           1.8453140233      -14.9517617159      -12.1719354191  CLST         232          1.0000000000
       695       232  TIP3  H1            2.1083267676      -14.3644429965      -11.4685480241  CLST         232          1.0000000000
       696       232  TIP3  H2            1.9855147627      -14.0955737471      -12.6682728466  CLST         232          1.0000000000
       697       233  TIP3  OH2         -12.1459272090        9.9484112024        2.1438921839  CLST         233          1.0000000000
       698       233  TIP3  H1          -12.9156726376        9.5606986115        2.6949529628  CLST         233          1.0000000000
       699       233  TIP3  H2          -12.9032169696       10.2072257261        1.6386649394  CLST         233          1.0000000000
       700       234  TIP3  OH2          -2.2709066980        4.6870234279       -8.2785904520  CLST         234          1.0000000000
       701       234  TIP3  H1           -2.2788537874        5.6864733877       -8.2692287646  CLST         234          1.0000000000
       702       234  TIP3  H2           -2.2172786149        4.7535443564       -9.2609579486  CLST         234          1.0000000000
       703       235  TIP3  OH2         -10.4846454048        5.2475970655       -5.5668730740  CLST         235          1.0000000000
       704       235  TIP3  H1          -10.5435783455        4.6195696895       -6.5626191343  CLST         235          1.0000000000
       705       235  TIP3  H2           -9.9249053376        5.4224075973       -6.1238273376  CLST         235          1.0000000000
       706       236  TIP3  OH2         -12.2557005424      -10.5012245125       13.6894308308  CLST         236          1.0000000000
       707       236  TIP3  H1          -12.2645668274      -10.6164599034       12.7063908510  CLST         236          1.0000000000
       708       236  TIP3  H2          -12.8468319664       -9.7851624064       12.9671877125  CLST         236          1.0000000000
       709       237  TIP3  OH2          -6.2897208091       -6.2664331863       10.3741902272  CLST         237          1.0000000000
       710       237  TIP3  H1           -5.6928827636       -6.8620316012        9.8926376702  CLST         237          1.0000000000
       711       237  TIP3  H2           -5.4251581331       -6.1106401505       10.8403243756  CLST         237          1.0000000000
       712       238  TIP3  OH2          -1.2170695324        3.7468970028       -2.8047868589  CLST         238          1.0000000000
       713       238  TIP3  H1           -1.6824243318        4.3678539787       -3.3828575865  CLST         238          1.0000000000
       714       238  TIP3  H2           -2.0573706211        3.8467375069       -2.2863638484  CLST         238          1.0000000000
       715       239  TIP3  OH2           8.0647196407        7.4903347355        0.1993269288  CLST         239          1.0000000000
       716       239  TIP3  H1            8.3376932831        6.7744230664       -0.4322219010  CLST         239          1.0000000000
       717       239  TIP3  H2            8.9908937501        7.5029496449        0.4128564573  CLST         239          1.0000000000
       718       240  TIP3  OH2          -9.7384515582        8.7366173598        1.9824335493  CLST         240          1.0000000000
       719       240  TIP3  H1          -10.5676613971        9.1567702134        1.7623955987  CLST         240          1.0000000000
       720       240  TIP3  H2          -10.2825647255        7.9785346520        1.9423045709  CLST         240          1.0000000000
       721       241  TIP3  OH2          10.9038960138       -4.0935500871       -2.2428153611  CLST         241          1.0000000000
       722       241  TIP3  H1           10.5239010133       -4.6835202068       -2.9215673711  CLST         241          1.0000000000
       723       241  TIP3  H2           11.6847125691       -4.1808140070       -2.7888999993  CLST         241          1.0000000000
       724       242  TIP3  OH2           9.5819167903       -1.9183478940       -4.4631006006  CLST         242          1.0000000000
       725       242  TIP3  H1           10.1637233813       -1.6490820812       -3.7177638600  CLST         242          1.0000000000
       726       242  TIP3  H2            9.5424604418       -2.6307668751       -3.7713347148  CLST         242          1.0000000000
       727       243  TIP3  OH2           5.1803681505        9.8183703725      -12.1550199524  CLST         243          1.0000000000
       728       243  TIP3  H1            4.6096630756       10.5820511421      -11.8232223982  CLST         243          1.0000000000
       729       243  TIP3  H2            4.9389304990        9.1174568776      -11.5091052496  CLST         243          1.0000000000
       730       244  TIP3  OH2          -9.1475990665       -6.6087354081      -14.1436362604  CLST         244          1.0000000000
       731       244  TIP3  H1           -9.3986263582       -6.4924979445      -13.2319771348  CLST         244          1.0000000000
       732       244  TIP3  H2          -10.0699507738       -6.7366242955      -14.3111393465  CLST         244          1.0000000000
       733       245  TIP3  OH2         -13.1673186642        5.9485850210        2.5874268553  CLST         245          1.0000000000
       734       245  TIP3  H1          -13.1730034039        6.6378163126        3.3131123437  CLST         245          1.0000000000
       735       245  TIP3  H2          -12.1840693784        6.0342800720        2.7162527538  CLST         245          1.0000000000
       736       246  TIP3  OH2          -9.3207603124        6.2215837849       -1.5513795377  CLST         246          1.0000000000
       737       246  TIP3  H1          -10.2066799140        5.8936017555       -1.6787345928  CLST         246          1.0000000000
       738       246  TIP3  H2           -9.6158392847        7.0920073183       -1.8705186558  CLST         246          1.0000000000
       739       247  TIP3  OH2          -4.3390844928        7.9797624375        7.8494452594  CLST         247          1.0000000000
       740       247  TIP3  H1           -3.3953788287        8.1670693254        8.0140086848  CLST         247          1.0000000000
       741       247  TIP3  H2           -4.2540829148        7.4506116659        8.6586804767  CLST         247          1.0000000000
       742       248  TIP3  OH2           9.9874111084       -8.1536892533        7.9221268395  CLST         248          1.0000000000
       743       248  TIP3  H1            9.0345973487       -8.3988222299        7.7802722542  CLST         248          1.0000000000
       744       248  TIP3  H2           10.1164883287       -8.0359917226        6.9892868985  CLST         248          1.0000000000
       745       249  TIP3  OH2           9.8062418491        5.9611137382       -1.1258266727  CLST         249          1.0000000000
       746       249  TIP3  H1           10.3109035534        5.1263835506       -1.3108629142  CLST         249          1.0000000000
       747       249  TIP3  H2           10.5185853978        6.2845032906       -1.7627359458  CLST         249          1.0000000000
       748       250  TIP3  OH2           5.8707068976       -4.6293908291        3.4269832472  CLST         250          1.0000000000
       749       250  TIP3  H1            5.9599634345       -5.4584105265        2.9257164138  CLST         250          1.0000000000
       750       250  TIP3  H2            5.4682253228       -5.2082637410        4.1413702399  CLST         250          1.0000000000
       751       251  TIP3  OH2         -14.6754964094      -11.4030952088        2.0864046136  CLST         251          1.0000000000
       752       251  TIP3  H1          -14.4008113937      -12.2834388973        1.7245698319  CLST         251          1.0000000000
       753       251  TIP3  H2          -14.1698677020      -11.6296162748        2.8603413608  CLST         251          1.0000000000
       754       252  TIP3  OH2          -6.7984436855      -14.9517617159      -12.0551995969  CLST         252          1.0000000000
       755       252  TIP3  H1           -7.7930025308      -14.7761062737      -12.0839297257  CLST         252          1.0000000000
       756       252  TIP3  H2           -6.9632307346      -14.3828600906      -12.8993665324  CLST         252          1.0000000000
       757       253  TIP3  OH2           0.8232240120        7.3293676679        7.9013734325  CLST         253          1.0000000000
       758       253  TIP3  H1            0.9592675458        7.2644995826        6.9385811435  CLST         253          1.0000000000
       759       253  TIP3  H2            1.7169325324        7.1225271250        7.7767095431  CLST         253          1.0000000000
       760       254  TIP3  OH2         -11.4680754811        1.1699201131      -14.2951545255  CLST         254          1.0000000000
       761       254  TIP3  H1          -12.1274452044        0.5898863144      -13.8061179578  CLST         254          1.0000000000
       762       254  TIP3  H2          -12.2729155723        1.0850857193      -14.8646185700  CLST         254          1.0000000000
       763       255  TIP3  OH2           4.1466396837        0.0858601296       -0.8976183514  CLST         255          1.0000000000
       764       255  TIP3  H1            3.9681229174       -0.1465807994        0.0812348999  CLST         255          1.0000000000
       765       255  TIP3  H2            3.3343891488       -0.4017413291       -0.9831722338  CLST         255          1.0000000000
       766       256  TIP3  OH2          14.2583885552       -3.6300709690      -12.1192039122  CLST         256          1.0000000000
       767       256  TIP3  H1           14.9517617159       -3.3835091463      -12.7623678911  CLST         256          1.0000000000
       768       256  TIP3  H2           13.9835802406       -4.3063100509      -12.6748535706  CLST         256          1.0000000000
       769       257  TIP3  OH2          -6.4808267250      -13.2367223164       10.2549721670  CLST         257          1.0000000000
       770       257  TIP3  H1           -6.8730582867      -14.0998689781       10.0209179741  CLST         257          1.0000000000
       771       257  TIP3  H2           -5.7237652246      -13.7887757682       10.2200126225  CLST         257          1.0000000000
       772       258  TIP3  OH2         -10.0724511824      -12.0113911016       -6.4470611842  CLST         258          1.0000000000
       773       258  TIP3  H1           -9.5384102953      -11.9200666786       -5.6460203112  CLST         258          1.0000000000
       774       258  TIP3  H2           -9.8827172580      -11.0634677669       -6.5345621037  CLST         258          1.0000000000
       775       259  TIP3  OH2           2.9685413482        1.7345619742       14.0467682471  CLST         259          1.0000000000
       776       259  TIP3  H1            3.2776556335        0.7868231940       13.8588019695  CLST         259          1.0000000000
       777       259  TIP3  H2            2.8222703596        1.2907361910       14.9517617159  CLST         259          1.0000000000
       778       260  TIP3  OH2         -10.5900802456      -10.1917055735       -9.4191133803  CLST         260          1.0000000000
       779       260  TIP3  H1          -11.3923489266      -10.5182507489       -9.8921165452  CLST         260          1.0000000000
       780       260  TIP3  H2          -11.1761404391       -9.5463365166       -9.1296551420  CLST         260          1.0000000000
       781       261  TIP3  OH2           7.0326963478        0.9862604075       -0.1314060939  CLST         261          1.0000000000
       782       261  TIP3  H1            6.7570789496        1.3881959359       -1.0066249430  CLST         261          1.0000000000
       783       261  TIP3  H2            6.3496226893        1.5437757985        0.2635965191  CLST         261          1.0000000000
       784       262  TIP3  OH2          -1.5674414632       14.4788423092        3.1894178260  CLST         262          1.0000000000
       785       262  TIP3  H1           -1.9230508667       14.1185774877        3.9741011398  CLST         262          1.0000000000
       786       262  TIP3  H2           -0.9534466843       13.7372543859        3.3348170002  CLST         262          1.0000000000
       787       263  TIP3  OH2           6.5996015409        4.1235884710        2.0023670868  CLST         263          1.0000000000
       788       263  TIP3  H1            6.1708185846        3.6783083587        1.2060300691  CLST         263          1.0000000000
       789       263  TIP3  H2            6.0509679020        3.4568183115        2.3832131802  CLST         263          1.0000000000
       790       264  TIP3  OH2          -3.1841399653       10.3910010604       10.1743531935  CLST         264          1.0000000000
       791       264  TIP3  H1           -2.4862261106       11.2916985970       10.1509736059  CLST         264          1.0000000000
       792       264  TIP3  H2           -2.3495000526       10.4804087949        9.5166063754  CLST         264          1.0000000000
       793       265  TIP3  OH2         -12.5402660100       12.5968764680       -0.2698227524  CLST         265          1.0000000000
       794       265  TIP3  H1          -12.7783990980       13.0752399552       -1.1127295750  CLST         265          1.0000000000
       795       265  TIP3  H2          -13.2666567234       12.0625380419       -0.5327579252  CLST         265          1.0000000000
       796       266  TIP3  OH2          -4.1211181248        1.5158139010        3.8753987718  CLST         266          1.0000000000
       797       266  TIP3  H1           -4.5223339834        0.9485675189        3.1448624159  CLST         266          1.0000000000
       798       266  TIP3  H2           -4.0170264455        2.1675937615        3.1636585982  CLST         266          1.0000000000
       799       267  TIP3  OH2          -6.9385111752       11.3072064695       -5.2307887668  CLST         267          1.0000000000
       800       267  TIP3  H1           -7.3518057870       11.0866726930       -6.0558590744  CLST         267          1.0000000000
       801       267  TIP3  H2           -7.8125859209       11.6291004366       -4.9828573434  CLST         267          1.0000000000
       802       268  TIP3  OH2           4.6975730759        3.6194410902      -14.1136061657  CLST         268          1.0000000000
       803       268  TIP3  H1            5.4655796347        3.9501089499      -13.6035129985  CLST         268          1.0000000000
       804       268  TIP3  H2            4.6915758180        4.5081028055      -14.5203453372  CLST         268          1.0000000000
       805       269  TIP3  OH2           9.4591345113       -0.3795547736       11.0939001821  CLST         269          1.0000000000
       806       269  TIP3  H1           10.3754923858       -0.0478148084       11.3117523352  CLST         269          1.0000000000
       807       269  TIP3  H2            9.4860381494       -0.5091854960       12.0688227772  CLST         269          1.0000000000
       808       270  TIP3  OH2          -8.0674563471       -6.1466302449        6.4401987021  CLST         270          1.0000000000
       809       270  TIP3  H1           -8.0484010086       -6.3209805165        5.5192881356  CLST         270          1.0000000000
       810       270  TIP3  H2           -7.0658827970       -6.1412489211        6.5134483190  CLST         270          1.0000000000
       811       271  TIP3  OH2         -11.6085627802       12.2562504341       11.4927663698  CLST         271          1.0000000000
       812       271  TIP3  H1          -11.3740876942       12.5564656468       12.3754557375  CLST         271          1.0000000000
       813       271  TIP3  H2          -11.0915784573       13.0669227342       11.2904944154  CLST         271          1.0000000000
       814       272  TIP3  OH2           6.8354915058      -14.2910941476        3.3179472545  CLST         272          1.0000000000
       815       272  TIP3  H1            7.4065071693      -13.5526610987        3.5732968042  CLST         272          1.0000000000
       816       272  TIP3  H2            6.4388597695      -14.1713246020        4.2332914181  CLST         272          1.0000000000
       817       273  TIP3  OH2          -8.4212789865       10.7627978823       -7.5249540364  CLST         273          1.0000000000
       818       273  TIP3  H1           -9.1805897328       11.0378006981       -8.1978996140  CLST         273          1.0000000000
       819       273  TIP3  H2           -9.1358422751       10.1255319148       -7.2816065038  CLST         273          1.0000000000
       820       274  TIP3  OH2          -6.5314220834        0.4252235085       13.9616541745  CLST         274          1.0000000000
       821       274  TIP3  H1           -7.3494114615        0.5003681293       14.5377198994  CLST         274          1.0000000000
       822       274  TIP3  H2           -7.3176536681        0.5206787890       13.3212290786  CLST         274          1.0000000000
       823       275  TIP3  OH2           3.6404872690      -14.9490779935       -0.6069651811  CLST         275          1.0000000000
       824       275  TIP3  H1            3.1845814630      -14.1001313448       -0.4340269521  CLST         275          1.0000000000
       825       275  TIP3  H2            3.9684723667      -14.7342010083       -1.4233157871  CLST         275          1.0000000000
       826       276  TIP3  OH2           2.3755286398      -10.0068890902        7.2599958102  CLST         276          1.0000000000
       827       276  TIP3  H1            2.6407672015      -10.3986328921        8.0682530394  CLST         276          1.0000000000
       828       276  TIP3  H2            3.2991615107       -9.6313322221        7.3549492151  CLST         276          1.0000000000
       829       277  TIP3  OH2          -7.2406415726        7.0543436042        2.5842442244  CLST         277          1.0000000000
       830       277  TIP3  H1           -7.7738469150        6.6532010804        1.9346933150  CLST         277          1.0000000000
       831       277  TIP3  H2           -6.7936548607        6.1790033809        2.6702196091  CLST         277          1.0000000000
       832       278  TIP3  OH2           5.0107738113      -10.6130534473       10.0379859566  CLST         278          1.0000000000
       833       278  TIP3  H1            5.0018728249       -9.7919666054        9.5555697718  CLST         278          1.0000000000
       834       278  TIP3  H2            4.5155938565      -10.3727997024       10.8615064047  CLST         278          1.0000000000
       835       279  TIP3  OH2          12.2970033231       -5.6821543231        7.2650642802  CLST         279          1.0000000000
       836       279  TIP3  H1           11.7586037299       -6.1705776784        6.5945222397  CLST         279          1.0000000000
       837       279  TIP3  H2           12.3660374177       -5.1509580782        6.4693256344  CLST         279          1.0000000000
       838       280  TIP3  OH2           6.7508759075       -8.6897258676       13.0089255090  CLST         280          1.0000000000
       839       280  TIP3  H1            7.0133390500       -9.6152415079       12.9147771012  CLST         280          1.0000000000
       840       280  TIP3  H2            7.6914786906       -8.4416014570       12.9740622850  CLST         280          1.0000000000
       841       281  TIP3  OH2          -1.5278605211        4.6750720399       10.6545527086  CLST         281          1.0000000000
       842       281  TIP3  H1           -1.6181427147        3.8622779796       10.9142790385  CLST         281          1.0000000000
       843       281  TIP3  H2           -2.0939477129        4.7299289572       11.6941958215  CLST         281          1.0000000000
       844       282  TIP3  OH2          10.4328397637       10.7705619015      -10.9123700573  CLST         282          1.0000000000
       845       282  TIP3  H1           11.0322938404       10.0063139213      -11.1871004022  CLST         282          1.0000000000
       846       282  TIP3  H2           11.1137611881       11.2780595254      -11.3631512317  CLST         282          1.0000000000
       847       283  TIP3  OH2          -2.7685163053       -4.4644213424       -0.1620734753  CLST         283          1.0000000000
       848       283  TIP3  H1           -3.4986370886       -4.7094288706       -0.8106651462  CLST         283          1.0000000000
       849       283  TIP3  H2           -2.9473094087       -5.4221995814        0.1116035158  CLST         283          1.0000000000
       850       284  TIP3  OH2           4.1630179170       10.5130353815        2.1328148870  CLST         284          1.0000000000
       851       284  TIP3  H1            4.5760978480        9.6756610763        1.9706701289  CLST         284          1.0000000000
       852       284  TIP3  H2            3.5901281256       10.0253385367        2.7419386745  CLST         284          1.0000000000
       853       285  TIP3  OH2         -11.6407546185       -5.9989886668        8.4318234163  CLST         285          1.0000000000
       854       285  TIP3  H1          -10.9462928699       -6.6622108463        8.2398671323  CLST         285          1.0000000000
       855       285  TIP3  H2          -11.7778853970       -6.1285770295        7.4294707432  CLST         285          1.0000000000
       856       286  TIP3  OH2          -2.5249532572       -9.7062543242      -10.8381951841  CLST         286          1.0000000000
       857       286  TIP3  H1           -2.8208566310       -9.4493208333      -11.6806468376  CLST         286          1.0000000000
       858       286  TIP3  H2           -3.4059336690       -9.9846957961      -10.5018051666  CLST         286          1.0000000000
       859       287  TIP3  OH2           2.6245390792       -0.8424840810       -7.7903294594  CLST         287          1.0000000000
       860       287  TIP3  H1            2.3921081818        0.0759375093       -8.0828802917  CLST         287          1.0000000000
       861       287  TIP3  H2            3.4866112258       -0.5270056249       -8.0718448000  CLST         287          1.0000000000
       862       288  TIP3  OH2          13.7666634078      -14.2512056947       -8.4465337895  CLST         288          1.0000000000
       863       288  TIP3  H1           13.3947562157      -13.5871398695       -7.8673829368  CLST         288          1.0000000000
       864       288  TIP3  H2           14.5223397880      -14.4645978590       -7.9897160046  CLST         288          1.0000000000
       865       289  TIP3  OH2          14.1118130453        3.5887633663      -10.4221853372  CLST         289          1.0000000000
       866       289  TIP3  H1           13.7753125672        3.5996145284       -9.5016946079  CLST         289          1.0000000000
       867       289  TIP3  H2           14.8098576099        3.1543828323       -9.9526922543  CLST         289          1.0000000000
       868       290  TIP3  OH2          11.4374550245        1.0211184025       12.1720908782  CLST         290          1.0000000000
       869       290  TIP3  H1           11.7587532466        1.0236398550       13.0959388899  CLST         290          1.0000000000
       870       290  TIP3  H2           11.7106627131        1.9461080979       12.2709957101  CLST         290          1.0000000000
       871       291  TIP3  OH2         -11.3707281218       -9.3135976454       -2.5494495647  CLST         291          1.0000000000
       872       291  TIP3  H1          -10.6321092690       -9.6500356721       -2.0355121701  CLST         291          1.0000000000
       873       291  TIP3  H2          -11.6590445887       -9.0577850890       -1.6962252327  CLST         291          1.0000000000
       874       292  TIP3  OH2           8.9273882458       -2.0558859150      -11.7062202366  CLST         292          1.0000000000
       875       292  TIP3  H1            8.5525689374       -2.9026087435      -11.9880984730  CLST         292          1.0000000000
       876       292  TIP3  H2            8.7833316808       -2.2383433477      -10.7762479426  CLST         292          1.0000000000
       877       293  TIP3  OH2           2.2546311852        2.7557424289      -13.5202498982  CLST         293          1.0000000000
       878       293  TIP3  H1            2.0061397623        3.6421738313      -13.7216044084  CLST         293          1.0000000000
       879       293  TIP3  H2            3.1336584381        2.9341812105      -13.8476048583  CLST         293          1.0000000000
       880       294  TIP3  OH2           1.8754783295        7.9735915341        0.9810579761  CLST         294          1.0000000000
       881       294  TIP3  H1            1.8201839107        7.9768133461        1.9328503197  CLST         294          1.0000000000
       882       294  TIP3  H2            2.6211038192        8.5056022099        1.7044887656  CLST         294          1.0000000000
       883       295  TIP3  OH2           3.7745013287       12.5152783424       -4.4802286760  CLST         295          1.0000000000
       884       295  TIP3  H1            3.1139155162       13.0678775354       -4.0672408942  CLST         295          1.0000000000
       885       295  TIP3  H2            3.9994119352       13.4038383991       -4.9431873949  CLST         295          1.0000000000
       886       296  TIP3  OH2           2.7227397292        5.7542192842      -11.2343286003  CLST         296          1.0000000000
       887       296  TIP3  H1            2.6739880040        6.2826675109      -12.0566932447  CLST         296          1.0000000000
       888       296  TIP3  H2            2.0969571815        5.1862539344      -11.9434795242  CLST         296          1.0000000000
       889       297  TIP3  OH2          13.4547603708        0.0676753500        9.2294817922  CLST         297          1.0000000000
       890       297  TIP3  H1           13.7271128433        0.9939851448        9.2204045203  CLST         297          1.0000000000
       891       297  TIP3  H2           14.4081833181       -0.1051342135        9.4879311223  CLST         297          1.0000000000
       892       298  TIP3  OH2          12.3874561919       -5.1644051131      -12.3870416131  CLST         298          1.0000000000
       893       298  TIP3  H1           11.7291405695       -5.8851617669      -12.5825526636  CLST         298          1.0000000000
       894       298  TIP3  H2           12.9043291929       -6.0352787229      -12.2601082649  CLST         298          1.0000000000
       895       299  TIP3  OH2           3.4672357406       -5.7739590158       -7.4649508240  CLST         299          1.0000000000
       896       299  TIP3  H1            2.8812612838       -4.9954412445       -7.5031701952  CLST         299          1.0000000000
       897       299  TIP3  H2            3.7463798196       -5.2886148354       -6.6317734501  CLST         299          1.0000000000
       898       300  TIP3  OH2          10.2570933720       -7.0345215807      -13.9140131793  CLST         300          1.0000000000
       899       300  TIP3  H1           10.2854667004       -6.4309668538      -14.7045670597  CLST         300          1.0000000000
       900       300  TIP3  H2            9.3410269084       -6.6296090296      -13.8959101281  CLST         300          1.0000000000
       901       301  TIP3  OH2          11.2932396721       -6.6248980071        0.4461950441  CLST         301          1.0000000000
       902       301  TIP3  H1           10.8664952218       -6.0352311453       -0.1233455398  CLST         301          1.0000000000
       903       301  TIP3  H2           11.0701050361       -7.3381363939       -0.1441933345  CLST         301          1.0000000000
       904       302  TIP3  OH2          11.5626647183       -7.2246837051       11.7979419703  CLST         302          1.0000000000
       905       302  TIP3  H1           12.1130965833       -6.6626251590       11.3095664397  CLST         302          1.0000000000
       906       302  TIP3  H2           11.5074836182       -7.9546757782       11.1531463813  CLST         302          1.0000000000
       907       303  TIP3  OH2          -8.4219574364       11.7325717739        6.7662114398  CLST         303          1.0000000000
       908       303  TIP3  H1           -9.0631271716       12.0803594250        6.0883744583  CLST         303          1.0000000000
       909       303  TIP3  H2           -8.1035932765       12.6742992134        6.8053859625  CLST         303          1.0000000000
       910       304  TIP3  OH2          -2.0115862557        8.3954599738       -0.8454534599  CLST         304          1.0000000000
       911       304  TIP3  H1           -2.6328228442        7.7286311486       -0.5552925766  CLST         304          1.0000000000
       912       304  TIP3  H2           -2.7975941983        8.9741244026       -0.9639524624  CLST         304          1.0000000000
       913       305  TIP3  OH2          -2.5031048871       -6.4441177548      -10.5089117447  CLST         305          1.0000000000
       914       305  TIP3  H1           -2.0004511342       -6.0627264375      -11.0046117960  CLST         305          1.0000000000
       915       305  TIP3  H2           -1.4600586933       -6.7038468730      -10.6112334382  CLST         305          1.0000000000
       916       306  TIP3  OH2          -8.5637864726      -14.5166934323       -6.9962706579  CLST         306          1.0000000000
       917       306  TIP3  H1           -7.6163439360      -14.7505909184       -6.9512554720  CLST         306          1.0000000000
       918       306  TIP3  H2           -8.3598814067      -14.1314736153       -6.1250040925  CLST         306          1.0000000000
       919       307  TIP3  OH2           0.6087253135       10.2712801316      -14.2165272405  CLST         307          1.0000000000
       920       307  TIP3  H1            1.3319106311       10.6348353951      -13.6918091302  CLST         307          1.0000000000
       921       307  TIP3  H2            1.6651167342        9.7871271165      -14.1594427906  CLST         307          1.0000000000
       922       308  TIP3  OH2          12.2611263401       -3.2917218231       13.2892728133  CLST         308          1.0000000000
       923       308  TIP3  H1           12.3703774370       -3.0818948263       12.3242806756  CLST         308          1.0000000000
       924       308  TIP3  H2           13.0020935966       -3.9431245742       13.2305748688  CLST         308          1.0000000000
       925       309  TIP3  OH2          12.9225108479       12.5145690121       14.7189586831  CLST         309          1.0000000000
       926       309  TIP3  H1           12.6012244783       11.7393757545       14.3106967145  CLST         309          1.0000000000
       927       309  TIP3  H2           13.3200025956       12.7784691791       13.9334489096  CLST         309          1.0000000000
       928       310  TIP3  OH2           4.2890700309       14.4728855900       -6.6715798325  CLST         310          1.0000000000
       929       310  TIP3  H1            4.8878467318       14.6277663044       -7.4048226476  CLST         310          1.0000000000
       930       310  TIP3  H2            3.4113396116       14.3232672886       -7.1315723899  CLST         310          1.0000000000
       931       311  TIP3  OH2          -5.9103280319        5.9740939412       -5.1535271918  CLST         311          1.0000000000
       932       311  TIP3  H1           -6.8389049626        5.5556813710       -5.2565244279  CLST         311          1.0000000000
       933       311  TIP3  H2           -5.9663697681        5.7212021817       -6.1112232927  CLST         311          1.0000000000
       934       312  TIP3  OH2           5.0555219519       -8.7214132661        8.1584658397  CLST         312          1.0000000000
       935       312  TIP3  H1            4.9080387592       -7.8142290069        8.4903329349  CLST         312          1.0000000000
       936       312  TIP3  H2            6.0165681363       -8.4928907671        8.1192559302  CLST         312          1.0000000000
       937       313  TIP3  OH2          -2.5510376250        7.9239476972       11.1857915682  CLST         313          1.0000000000
       938       313  TIP3  H1           -3.1651407018        8.6956882139       11.2142225946  CLST         313          1.0000000000
       939       313  TIP3  H2           -3.3278270928        7.3832729457       11.0806087624  CLST         313          1.0000000000
       940       314  TIP3  OH2           9.4576479378       -2.3551860042       -2.0274948688  CLST         314          1.0000000000
       941       314  TIP3  H1            9.4791131351       -3.1761038141       -1.7090891419  CLST         314          1.0000000000
       942       314  TIP3  H2            8.7005399037       -2.1468320149       -1.4860572732  CLST         314          1.0000000000
       943       315  TIP3  OH2           4.4496278452       10.0478378239       -2.8178123877  CLST         315          1.0000000000
       944       315  TIP3  H1            3.8851896435        9.3521770018       -2.5389983271  CLST         315          1.0000000000
       945       315  TIP3  H2            4.1246716151       10.7786018339       -2.2288450995  CLST         315          1.0000000000
       946       316  TIP3  OH2          13.7566856423       -6.9749841494       -5.9289943631  CLST         316          1.0000000000
       947       316  TIP3  H1           12.8718251379       -6.8083088488       -5.6591525110  CLST         316          1.0000000000
       948       316  TIP3  H2           13.6592051079       -6.1616708719       -6.4439718095  CLST         316          1.0000000000
       949       317  TIP3  OH2          -3.1262180804       -9.9717159932       -2.8447239342  CLST         317          1.0000000000
       950       317  TIP3  H1           -2.4023391271       -9.9898591006       -3.7551799797  CLST         317          1.0000000000
       951       317  TIP3  H2           -2.2192500202       -9.4122434959       -2.9944760368  CLST         317          1.0000000000
       952       318  TIP3  OH2          -1.0983022995        9.8406295972       -5.0158958556  CLST         318          1.0000000000
       953       318  TIP3  H1           -1.9701214216        9.6630492110       -5.4180121255  CLST         318          1.0000000000
       954       318  TIP3  H2           -1.3582269972       10.7903897454       -5.2084648688  CLST         318          1.0000000000
       955       319  TIP3  OH2           6.3203177792       -7.9541191022       -2.2234204320  CLST         319          1.0000000000
       956       319  TIP3  H1            6.9587969980       -8.2470821176       -2.8279629562  CLST         319          1.0000000000
       957       319  TIP3  H2            6.5757873388       -8.6847012904       -1.6628974802  CLST         319          1.0000000000
       958       320  TIP3  OH2           5.7552553851       12.6966457978      -12.2353910093  CLST         320          1.0000000000
       959       320  TIP3  H1            5.8324330029       12.2607065784      -13.1452972171  CLST         320          1.0000000000
       960       320  TIP3  H2            6.4392049539       11.9252308948      -12.0779925656  CLST         320          1.0000000000
       961       321  TIP3  OH2           1.6067576034      -11.4453654967        9.2822938934  CLST         321          1.0000000000
       962       321  TIP3  H1            1.9022799817      -11.8322359141       10.1112672225  CLST         321          1.0000000000
       963       321  TIP3  H2            1.6264936571      -10.6391168398        9.7471537493  CLST         321          1.0000000000
       964       322  TIP3  OH2           0.8791148849        5.9464960739       10.1184849394  CLST         322          1.0000000000
       965       322  TIP3  H1            0.5044599380        6.4524707570        9.4024864731  CLST         322          1.0000000000
       966       322  TIP3  H2            0.0899956511        5.4243560240       10.2642686294  CLST         322          1.0000000000
       967       323  TIP3  OH2           8.3074681734        3.2830895787       12.8046539820  CLST         323          1.0000000000
       968       323  TIP3  H1            7.1714728465        2.9786605496       12.8407876581  CLST         323          1.0000000000
       969       323  TIP3  H2            8.2073128325        2.8834288712       11.9462810712  CLST         323          1.0000000000
       970       324  TIP3  OH2           6.2929929542        3.0825585220       -1.6444872030  CLST         324          1.0000000000
       971       324  TIP3  H1            6.3433954356        3.9751426453       -1.2765931217  CLST         324          1.0000000000
       972       324  TIP3  H2            5.6615137960        3.4570665566       -2.2075271217  CLST         324          1.0000000000
       973       325  TIP3  OH2         -12.4319254704       -8.4468296500       11.8150998183  CLST         325          1.0000000000
       974       325  TIP3  H1          -12.8210934198       -7.6329036590       11.5454164998  CLST         325          1.0000000000
       975       325  TIP3  H2          -11.6886089486       -7.8964450495       11.7942830075  CLST         325          1.0000000000
       976       326  TIP3  OH2         -12.1313094781        9.2890390120       -5.1014084059  CLST         326          1.0000000000
       977       326  TIP3  H1          -12.2392535259       10.2083540431       -5.2294542743  CLST         326          1.0000000000
       978       326  TIP3  H2          -11.7879981373        8.8452048118       -5.8802449943  CLST         326          1.0000000000
       979       327  TIP3  OH2          12.5047108395       -5.5739709502        9.9483536577  CLST         327          1.0000000000
       980       327  TIP3  H1           12.1318662898       -5.4002621487        9.1922636337  CLST         327          1.0000000000
       981       327  TIP3  H2           13.1201326416       -5.7587689512        9.0309191680  CLST         327          1.0000000000
       982       328  TIP3  OH2         -12.4548027621       -8.1018392546      -12.7216146095  CLST         328          1.0000000000
       983       328  TIP3  H1          -11.6019939318       -7.9757638090      -12.4023519838  CLST         328          1.0000000000
       984       328  TIP3  H2          -12.2963542808       -8.9985764888      -12.2922626412  CLST         328          1.0000000000
       985       329  TIP3  OH2           6.6048396909       -4.4685609434       -1.7670257091  CLST         329          1.0000000000
       986       329  TIP3  H1            6.1675469724       -3.8838353609       -1.0735500389  CLST         329          1.0000000000
       987       329  TIP3  H2            5.7311400457       -4.3940512360       -2.1699521889  CLST         329          1.0000000000
       988       330  TIP3  OH2          12.9591370672        5.9671847632      -14.2539209599  CLST         330          1.0000000000
       989       330  TIP3  H1           13.7739437148        6.0822430653      -14.7044204636  CLST         330          1.0000000000
       990       330  TIP3  H2           13.3728037930        5.7939148978      -13.3859121483  CLST         330          1.0000000000
       991       331  TIP3  OH2          -4.6547228670        0.0333541457        6.0522489835  CLST         331          1.0000000000
       992       331  TIP3  H1           -4.6702852203        0.8613354428        5.5752668414  CLST         331          1.0000000000
       993       331  TIP3  H2           -5.6367990258        0.0966070677        6.2742045200  CLST         331          1.0000000000
       994       332  TIP3  OH2          -8.6348987106        9.0541501527       -2.0625893217  CLST         332          1.0000000000
       995       332  TIP3  H1           -9.3358223619        9.5907398579       -1.6786751660  CLST         332          1.0000000000
       996       332  TIP3  H2           -8.1704404299        9.1194536747       -1.1940336395  CLST         332          1.0000000000
       997       333  TIP3  OH2          -6.9730017171       -8.7485438385       -6.9860215584  CLST         333          1.0000000000
       998       333  TIP3  H1           -7.4668423887       -9.3239419972       -7.5587358785  CLST         333          1.0000000000
       999       333  TIP3  H2           -7.7355332320       -8.1160698325       -6.9791736365  CLST         333          1.0000000000
      1000       334  TIP3  OH2         -10.5572855190        8.2087971330       -9.4139301984  CLST         334          1.0000000000
      1001       334  TIP3  H1           -9.8565341033        8.8504058115       -9.5776998057  CLST         334          1.0000000000
      1002       334  TIP3  H2          -10.3748237691        8.3848778454       -8.4635577745  CLST         334          1.0000000000
      1003       335  TIP3  OH2           1.5511293105       -0.2961200729       -0.9017170256  CLST         335          1.0000000000
      1004       335  TIP3  H1            1.2796364841       -1.2048100474       -0.5704937803  CLST         335          1.0000000000
      1005       335  TIP3  H2            0.8304481635       -0.2738507949       -1.5831590339  CLST         335          1.0000000000
      1006       336  TIP3  OH2          11.3426247559        5.4779360852        1.5477993738  CLST         336          1.0000000000
      1007       336  TIP3  H1           10.4798523704        5.3037297004        0.9661718870  CLST         336          1.0000000000
      1008       336  TIP3  H2           11.2265566563        6.2668834927        0.8962374684  CLST         336          1.0000000000
      1009       337  TIP3  OH2           2.3074552918      -14.8305265492        5.4356198415  CLST         337          1.0000000000
      1010       337  TIP3  H1            2.0815211266      -13.8797568510        5.8262746758  CLST         337          1.0000000000
      1011       337  TIP3  H2            1.8316020286      -14.4040639087        4.7208203563  CLST         337          1.0000000000
      1012       338  TIP3  OH2          -4.5013673789        2.5105018067      -11.6775040298  CLST         338          1.0000000000
      1013       338  TIP3  H1           -5.3275586976        2.8248258256      -11.4278856820  CLST         338          1.0000000000
      1014       338  TIP3  H2           -5.0732051347        2.2034205382      -12.4172165635  CLST         338          1.0000000000
      1015       339  TIP3  OH2           4.8748015645        2.2646968094       -7.7598932274  CLST         339          1.0000000000
      1016       339  TIP3  H1            3.8413494717        2.0140750208       -7.4569783934  CLST         339          1.0000000000
      1017       339  TIP3  H2            4.1999019624        2.6085080845       -8.1138138067  CLST         339          1.0000000000
      1018       340  TIP3  OH2         -10.5888408557       11.9128994176       -8.9486869270  CLST         340          1.0000000000
      1019       340  TIP3  H1          -11.5409012335       11.6837206215       -8.9025742839  CLST         340          1.0000000000
      1020       340  TIP3  H2          -10.8218304741       12.5322275045       -8.1720924732  CLST         340          1.0000000000
      1021       341  TIP3  OH2          -1.4753083293       13.8787195228       -0.5245995570  CLST         341          1.0000000000
      1022       341  TIP3  H1           -1.0226085511       13.3635072679       -1.2429989960  CLST         341          1.0000000000
      1023       341  TIP3  H2           -2.2612227582       13.7617014963       -1.0594408774  CLST         341          1.0000000000
      1024       342  TIP3  OH2         -11.6718327267        3.4672721608        9.8169467422  CLST         342          1.0000000000
      1025       342  TIP3  H1          -12.2493966585        3.0503290652       10.5074835762  CLST         342          1.0000000000
      1026       342  TIP3  H2          -11.1191578269        3.6539895451       10.5586173149  CLST         342          1.0000000000
      1027       343  TIP3  OH2          -0.4804988178       -1.3001165729      -14.1114736328  CLST         343          1.0000000000
      1028       343  TIP3  H1           -0.9983243718       -0.5111066724      -13.8756573284  CLST         343          1.0000000000
      1029       343  TIP3  H2           -1.1035153609       -1.2418019433      -14.8716065815  CLST         343          1.0000000000
      1030       344  TIP3  OH2           8.7202847881        4.1113661809        4.0318473233  CLST         344          1.0000000000
      1031       344  TIP3  H1            8.2249546921        4.3392367540        4.8355824773  CLST         344          1.0000000000
      1032       344  TIP3  H2            8.1280449055        3.3662006484        3.9737162281  CLST         344          1.0000000000
      1033       345  TIP3  OH2           0.1653465148        9.6812252297       -0.1683764845  CLST         345          1.0000000000
      1034       345  TIP3  H1            0.6784934731        9.0102982845        0.2633773845  CLST         345          1.0000000000
      1035       345  TIP3  H2           -0.6028516616        9.1716841143       -0.0724192522  CLST         345          1.0000000000
      1036       346  TIP3  OH2          -4.7719331919      -14.7547862856        6.2043460537  CLST         346          1.0000000000
      1037       346  TIP3  H1           -4.8730060568      -13.5882844201        5.9142098657  CLST         346          1.0000000000
      1038       346  TIP3  H2           -4.6809806968      -13.9061520978        6.8477178021  CLST         346          1.0000000000
      1039       347  TIP3  OH2         -13.5073729358      -11.6189669749       -1.9350365918  CLST         347          1.0000000000
      1040       347  TIP3  H1          -13.8541498794      -11.0502685817       -2.6214890345  CLST         347          1.0000000000
      1041       347  TIP3  H2          -13.1831563906      -10.8973848108       -1.5084334337  CLST         347          1.0000000000
      1042       348  TIP3  OH2           3.8839869763        7.6944632976       -7.2953089520  CLST         348          1.0000000000
      1043       348  TIP3  H1            4.9365905242        7.8231788918       -6.9557440187  CLST         348          1.0000000000
      1044       348  TIP3  H2            4.2199991702        7.4094775388       -6.2456420908  CLST         348          1.0000000000
      1045       349  TIP3  OH2           8.2668280662        9.7204009057        2.6438247393  CLST         349          1.0000000000
      1046       349  TIP3  H1            8.4106608323       10.1676390196        1.7639419239  CLST         349          1.0000000000
      1047       349  TIP3  H2            7.6345273703        9.1653224212        2.2229695500  CLST         349          1.0000000000
      1048       350  TIP3  OH2          -8.5239719427        0.9476936739      -14.6048334256  CLST         350          1.0000000000
      1049       350  TIP3  H1           -9.1547219868        0.3947990121      -14.2567437393  CLST         350          1.0000000000
      1050       350  TIP3  H2           -9.6171866619        1.0804557387      -14.9362812762  CLST         350          1.0000000000
      1051       351  TIP3  OH2          10.1188016920        3.3950673384        6.1199882208  CLST         351          1.0000000000
      1052       351  TIP3  H1           10.5954070522        3.9141506911        5.1561288267  CLST         351          1.0000000000
      1053       351  TIP3  H2            9.8187696496        3.2534855008        5.2771694554  CLST         351          1.0000000000
      1054       352  TIP3  OH2           5.2145583125       -0.2879090367       -8.1039848341  CLST         352          1.0000000000
      1055       352  TIP3  H1            5.8397564635       -0.6226763070       -7.4306625842  CLST         352          1.0000000000
      1056       352  TIP3  H2            5.4720648751        0.5884064987       -7.8362237858  CLST         352          1.0000000000
      1057       353  TIP3  OH2          -1.7798438591        9.8168310450      -12.9281066005  CLST         353          1.0000000000
      1058       353  TIP3  H1           -0.9629933201        9.9138335208      -13.3984715112  CLST         353          1.0000000000
      1059       353  TIP3  H2           -1.7202963115        8.8569121488      -12.9366310558  CLST         353          1.0000000000
      1060       354  TIP3  OH2         -12.0257923220      -11.1569954430      -14.0463311581  CLST         354          1.0000000000
      1061       354  TIP3  H1          -12.4019245049      -10.7968709251      -14.8516225937  CLST         354          1.0000000000
      1062       354  TIP3  H2          -11.2870272607      -11.3062421165      -14.6855139351  CLST         354          1.0000000000
      1063       355  TIP3  OH2           1.9685977827      -13.5785239279       -9.8105571856  CLST         355          1.0000000000
      1064       355  TIP3  H1            1.6122103180      -13.2133390711       -9.0322429102  CLST         355          1.0000000000
      1065       355  TIP3  H2            1.5902761677      -12.5414754297       -9.7952228148  CLST         355          1.0000000000
      1066       356  TIP3  OH2         -12.8662134702       -5.3190910520       -3.2050200294  CLST         356          1.0000000000
      1067       356  TIP3  H1          -12.7540612476       -6.1777889911       -3.5377079349  CLST         356          1.0000000000
      1068       356  TIP3  H2          -13.5850916658       -5.2997974139       -3.8210864756  CLST         356          1.0000000000
      1069       357  TIP3  OH2          -6.6538605519       -9.7100099925        5.0035380768  CLST         357          1.0000000000
      1070       357  TIP3  H1           -5.7834908792      -10.0218773682        5.0524792062  CLST         357          1.0000000000
      1071       357  TIP3  H2           -6.3196625656       -9.0601574872        4.3580006768  CLST         357          1.0000000000
      1072       358  TIP3  OH2          -2.2719580547       -7.7484336278        3.9627232169  CLST         358          1.0000000000
      1073       358  TIP3  H1           -1.2762174584       -7.5935329912        3.9941460939  CLST         358          1.0000000000
      1074       358  TIP3  H2           -2.1585042336       -7.6210747812        4.9522922772  CLST         358          1.0000000000
      1075       359  TIP3  OH2          10.2082342642       10.1090939974       -1.7556127163  CLST         359          1.0000000000
      1076       359  TIP3  H1           10.0277005383       10.2104763977       -0.8527487796  CLST         359          1.0000000000
      1077       359  TIP3  H2           10.6570647366       10.9170859502       -1.7786831299  CLST         359          1.0000000000
      1078       360  TIP3  OH2           7.8239837567       12.7119767861       12.6547028351  CLST         360          1.0000000000
      1079       360  TIP3  H1            8.3455258736       13.5396554546       12.4639223463  CLST         360          1.0000000000
      1080       360  TIP3  H2            7.5980424339       12.7079529208       11.6827174471  CLST         360          1.0000000000
      1081       361  TIP3  OH2          -6.0680796224      -10.8111227297       10.4868394751  CLST         361          1.0000000000
      1082       361  TIP3  H1           -6.0531189091      -11.2323431507        9.5958939108  CLST         361          1.0000000000
      1083       361  TIP3  H2           -6.7424139713      -11.4996527629       10.5575171804  CLST         361          1.0000000000
      1084       362  TIP3  OH2           4.7136608285       -3.2788892112       10.5380043866  CLST         362          1.0000000000
      1085       362  TIP3  H1            5.4573363999       -3.0442149600        9.9031010587  CLST         362          1.0000000000
      1086       362  TIP3  H2            5.3911178748       -3.9018843474       10.9048385689  CLST         362          1.0000000000
      1087       363  TIP3  OH2           4.9857234557       -4.4050073697       14.0329640134  CLST         363          1.0000000000
      1088       363  TIP3  H1            5.0896975067       -4.6460250849       14.9517617159  CLST         363          1.0000000000
      1089       363  TIP3  H2            5.8125470043       -3.9681182152       14.0827621471  CLST         363          1.0000000000
      1090       364  TIP3  OH2          -0.9840734049        4.8022997234       13.2364969869  CLST         364          1.0000000000
      1091       364  TIP3  H1           -0.1005744940        4.5836646924       13.6220096344  CLST         364          1.0000000000
      1092       364  TIP3  H2           -0.6737506459        5.7036992265       13.1958854465  CLST         364          1.0000000000
      1093       365  TIP3  OH2          -7.6033338533        4.5810137812      -11.6023260453  CLST         365          1.0000000000
      1094       365  TIP3  H1           -8.0895027872        5.1885547423      -10.9762466415  CLST         365          1.0000000000
      1095       365  TIP3  H2           -6.8283286521        5.0057246660      -11.0914564731  CLST         365          1.0000000000
      1096       366  TIP3  OH2         -10.0695357769       -2.7866992139        0.7093348808  CLST         366          1.0000000000
      1097       366  TIP3  H1          -10.9721279572       -3.0799101796        0.6960138806  CLST         366          1.0000000000
      1098       366  TIP3  H2          -10.3186704064       -2.5662243702       -0.2154697753  CLST         366          1.0000000000
      1099       367  TIP3  OH2          13.5609546832       10.7347570854       11.8739657967  CLST         367          1.0000000000
      1100       367  TIP3  H1           13.3565102181       11.5421914379       11.5347967390  CLST         367          1.0000000000
      1101       367  TIP3  H2           12.6012260289       10.8372139425       12.2229461732  CLST         367          1.0000000000
      1102       368  TIP3  OH2          -9.9327327827       -1.2935063353       12.7016681848  CLST         368          1.0000000000
      1103       368  TIP3  H1          -10.7816174142       -1.2751627947       12.3990459836  CLST         368          1.0000000000
      1104       368  TIP3  H2           -9.7655400193       -2.2530852946       12.8704502441  CLST         368          1.0000000000
      1105       369  TIP3  OH2           7.6515918976        9.6120065660       -2.4205644997  CLST         369          1.0000000000
      1106       369  TIP3  H1            8.5993098401        9.6952210525       -2.3432656015  CLST         369          1.0000000000
      1107       369  TIP3  H2            7.7947183840        8.6732154827       -2.3310136847  CLST         369          1.0000000000
      1108       370  TIP3  OH2          -6.6939111354      -12.9381599648       -0.9602185061  CLST         370          1.0000000000
      1109       370  TIP3  H1           -5.8804513547      -13.3703297578       -0.6351596618  CLST         370          1.0000000000
      1110       370  TIP3  H2           -7.0262439658      -13.2570585089       -0.0936975812  CLST         370          1.0000000000
      1111       371  TIP3  OH2           8.5742829179       12.3382039719        9.8505980746  CLST         371          1.0000000000
      1112       371  TIP3  H1            8.3977782780       11.5217227510        9.2320622940  CLST         371          1.0000000000
      1113       371  TIP3  H2            7.5977869431       12.4971821419        9.6969390704  CLST         371          1.0000000000
      1114       372  TIP3  OH2          -1.0783798768       11.3967434479       -1.8495647696  CLST         372          1.0000000000
      1115       372  TIP3  H1           -1.9551849463       10.9882147907       -1.8175981072  CLST         372          1.0000000000
      1116       372  TIP3  H2           -0.8292201108       10.5446582478       -1.4002294932  CLST         372          1.0000000000
      1117       373  TIP3  OH2           9.0719367653       -5.5470854640        8.5831536449  CLST         373          1.0000000000
      1118       373  TIP3  H1            9.4176251231       -6.1444869482        9.2425399119  CLST         373          1.0000000000
      1119       373  TIP3  H2            9.5246597822       -6.1744673800        7.9890354123  CLST         373          1.0000000000
      1120       374  TIP3  OH2          11.6021117528      -10.0919253163       -4.6634649028  CLST         374          1.0000000000
      1121       374  TIP3  H1           11.2333357264      -10.2795620688       -3.8047114635  CLST         374          1.0000000000
      1122       374  TIP3  H2           11.3878543640      -10.9348101985       -5.0065020411  CLST         374          1.0000000000
      1123       375  TIP3  OH2           1.7091519327       13.5526098495       -3.1358457061  CLST         375          1.0000000000
      1124       375  TIP3  H1            1.7065443930       14.1241345629       -2.3607508683  CLST         375          1.0000000000
      1125       375  TIP3  H2            0.8094806470       13.8335864363       -3.2094528806  CLST         375          1.0000000000
      1126       376  TIP3  OH2          10.7971269933        4.2446002615       -8.8350165549  CLST         376          1.0000000000
      1127       376  TIP3  H1            9.8588397741        4.4117017593       -8.6789633160  CLST         376          1.0000000000
      1128       376  TIP3  H2           10.8949003454        4.6573166246       -9.7234216922  CLST         376          1.0000000000
      1129       377  TIP3  OH2           8.0063778962       11.1387664306      -12.1149402286  CLST         377          1.0000000000
      1130       377  TIP3  H1            8.5153780815       10.8713265780      -12.9310399637  CLST         377          1.0000000000
      1131       377  TIP3  H2            8.8698600074       11.1553033948      -11.7074739135  CLST         377          1.0000000000
      1132       378  TIP3  OH2           6.3448330717        9.4644903559        7.2654008478  CLST         378          1.0000000000
      1133       378  TIP3  H1            6.7826130034        8.6553637240        7.5779572863  CLST         378          1.0000000000
      1134       378  TIP3  H2            5.7520424585        9.5046356891        8.0301987480  CLST         378          1.0000000000
      1135       379  TIP3  OH2          -6.6512279833      -10.7185931519       -1.9894448736  CLST         379          1.0000000000
      1136       379  TIP3  H1           -6.1437175637      -11.1489968886       -2.4958735362  CLST         379          1.0000000000
      1137       379  TIP3  H2           -6.9155238005      -11.5584787220       -2.0195908556  CLST         379          1.0000000000
      1138       380  TIP3  OH2           7.7108076173       11.3378420701        4.8648903087  CLST         380          1.0000000000
      1139       380  TIP3  H1            6.8904058063       11.7694335128        4.6280840608  CLST         380          1.0000000000
      1140       380  TIP3  H2            7.6733914973       10.7095467376        4.1372469167  CLST         380          1.0000000000
      1141       381  TIP3  OH2          -7.5561104967       -6.8247804243      -10.2572205869  CLST         381          1.0000000000
      1142       381  TIP3  H1           -8.0006291408       -6.6709438295      -11.0896955917  CLST         381          1.0000000000
      1143       381  TIP3  H2           -6.7249513698       -6.4847215074      -10.5914862416  CLST         381          1.0000000000
      1144       382  TIP3  OH2          -3.6261517678        2.3871246939       -1.9507190362  CLST         382          1.0000000000
      1145       382  TIP3  H1           -4.1379035332        2.5566799302       -2.7601869663  CLST         382          1.0000000000
      1146       382  TIP3  H2           -3.7464492856        1.4789857745       -2.2481336728  CLST         382          1.0000000000
      1147       383  TIP3  OH2          -7.4669728182       -9.1442458584        8.5389329727  CLST         383          1.0000000000
      1148       383  TIP3  H1           -6.4807011563       -9.3436940761        8.6200624060  CLST         383          1.0000000000
      1149       383  TIP3  H2           -7.3241769024      -10.1026065274        8.2498772613  CLST         383          1.0000000000
      1150       384  TIP3  OH2         -11.8108684136       -5.3970171633       13.4423304456  CLST         384          1.0000000000
      1151       384  TIP3  H1          -11.5293681843       -6.3091661144       13.5870266105  CLST         384          1.0000000000
      1152       384  TIP3  H2          -12.2175487557       -5.7433566018       12.6753707806  CLST         384          1.0000000000
      1153       385  TIP3  OH2           7.7623870369        0.3038217472        9.0597652834  CLST         385          1.0000000000
      1154       385  TIP3  H1            7.8931706233        1.2760028667        9.3191431510  CLST         385          1.0000000000
      1155       385  TIP3  H2            8.2228916722        0.2306125822        9.8851750045  CLST         385          1.0000000000
      1156       386  TIP3  OH2         -13.0610256010       -8.4168004236        8.3396004972  CLST         386          1.0000000000
      1157       386  TIP3  H1          -13.0417793365       -7.4826903488        8.4378253473  CLST         386          1.0000000000
      1158       386  TIP3  H2          -12.3595079257       -8.5211881236        8.9796263482  CLST         386          1.0000000000
      1159       387  TIP3  OH2          -1.0828220483      -13.1864285472       -0.8829320713  CLST         387          1.0000000000
      1160       387  TIP3  H1           -1.2868563526      -13.3015298165        0.0744644335  CLST         387          1.0000000000
      1161       387  TIP3  H2           -1.1247978037      -12.3087984767       -1.2167160467  CLST         387          1.0000000000
      1162       388  TIP3  OH2           3.3248175583        7.2770944296        7.0009766787  CLST         388          1.0000000000
      1163       388  TIP3  H1            2.9041624387        7.3478514020        6.1582969831  CLST         388          1.0000000000
      1164       388  TIP3  H2            4.1213634777        7.0662115159        6.4100934985  CLST         388          1.0000000000
      1165       389  TIP3  OH2          -3.7677648600      -10.9886601133       -0.3774897590  CLST         389          1.0000000000
      1166       389  TIP3  H1           -4.6619178916      -10.8616208781       -0.6878935014  CLST         389          1.0000000000
      1167       389  TIP3  H2           -3.6445059327      -10.6508466649       -1.2932732196  CLST         389          1.0000000000
      1168       390  TIP3  OH2          -1.2730989507        4.8726796576        4.6188532410  CLST         390          1.0000000000
      1169       390  TIP3  H1           -0.2966519318        4.3172074851        5.0036936062  CLST         390          1.0000000000
      1170       390  TIP3  H2           -0.9761329655        3.9330300070        4.3936500519  CLST         390          1.0000000000
      1171       391  TIP3  OH2          -5.9927987166       -4.7898247992        1.8169433398  CLST         391          1.0000000000
      1172       391  TIP3  H1           -6.2729763976       -4.0187358198        1.3093269029  CLST         391          1.0000000000
      1173       391  TIP3  H2           -6.9112597939       -4.9430483392        1.9444808245  CLST         391          1.0000000000
      1174       392  TIP3  OH2           5.0703553083        9.2411034029       -5.3297144013  CLST         392          1.0000000000
      1175       392  TIP3  H1            5.8249061620        8.6256057691       -5.2198260852  CLST         392          1.0000000000
      1176       392  TIP3  H2            5.2004808413        9.4210231120       -4.3691272748  CLST         392          1.0000000000
      1177       393  TIP3  OH2          13.4708874886       11.0724231122       -7.8458275227  CLST         393          1.0000000000
      1178       393  TIP3  H1           13.2157589913       10.2138402850       -8.1988093283  CLST         393          1.0000000000
      1179       393  TIP3  H2           12.8759687665       10.8829320421       -7.0783674160  CLST         393          1.0000000000
      1180       394  TIP3  OH2           1.4741625623        6.6762781349        5.3337378988  CLST         394          1.0000000000
      1181       394  TIP3  H1            1.0997287642        6.9132992228        4.4577292085  CLST         394          1.0000000000
      1182       394  TIP3  H2            1.9145862650        5.9950742931        4.7644761633  CLST         394          1.0000000000
      1183       395  TIP3  OH2          -6.1306870379        7.3839314642        0.0962455419  CLST         395          1.0000000000
      1184       395  TIP3  H1           -5.7788660665        6.8338195978        0.7663198139  CLST         395          1.0000000000
      1185       395  TIP3  H2           -5.2103413549        7.6169853910       -0.0384061328  CLST         395          1.0000000000
      1186       396  TIP3  OH2          -3.5299491455        9.3588374190       -2.5026550015  CLST         396          1.0000000000
      1187       396  TIP3  H1           -3.3827160974        8.7577274651       -3.2264160348  CLST         396          1.0000000000
      1188       396  TIP3  H2           -4.4331983388        9.4354827503       -2.8939121778  CLST         396          1.0000000000
      1189       397  TIP3  OH2           2.5790043785      -12.5638729402      -13.5420183480  CLST         397          1.0000000000
      1190       397  TIP3  H1            1.7100039448      -12.2616956165      -13.8477314640  CLST         397          1.0000000000
      1191       397  TIP3  H2            2.6638448584      -11.8110233183      -13.0093544547  CLST         397          1.0000000000
      1192       398  TIP3  OH2           8.6057148973       -4.1968817161        0.8083509583  CLST         398          1.0000000000
      1193       398  TIP3  H1            8.5006127461       -5.1753429235        0.5586131761  CLST         398          1.0000000000
      1194       398  TIP3  H2            7.9063087774       -4.4038256813       -0.0773780128  CLST         398          1.0000000000
      1195       399  TIP3  OH2         -14.3732545467       -3.0594150392       13.1211664988  CLST         399          1.0000000000
      1196       399  TIP3  H1          -14.8873286048       -3.8490661719       13.3348283681  CLST         399          1.0000000000
      1197       399  TIP3  H2          -13.9286688594       -3.0821879226       13.9310843077  CLST         399          1.0000000000
      1198       400  TIP3  OH2         -13.3776195561        8.7622471342        4.3276629137  CLST         400          1.0000000000
      1199       400  TIP3  H1          -13.5151513868        9.3068338036        5.0959246818  CLST         400          1.0000000000
      1200       400  TIP3  H2          -13.2717972760        8.0320785993        4.9761932081  CLST         400          1.0000000000
      1201       401  TIP3  OH2           1.4247607772        5.2542078679      -13.6116618233  CLST         401          1.0000000000
      1202       401  TIP3  H1            1.5458132508        5.1886111101      -14.6203983361  CLST         401          1.0000000000
      1203       401  TIP3  H2            0.8487218556        6.0290784019      -13.6766942884  CLST         401          1.0000000000
      1204       402  TIP3  OH2          14.2247092038       -5.1089439680       14.1112693015  CLST         402          1.0000000000
      1205       402  TIP3  H1           13.8476343315       -6.0643947887       14.0750835835  CLST         402          1.0000000000
      1206       402  TIP3  H2           14.7244537999       -5.5744867496       14.8574680058  CLST         402          1.0000000000
      1207       403  TIP3  OH2         -13.2317425454       12.1841793025       -2.5897239676  CLST         403          1.0000000000
      1208       403  TIP3  H1          -13.8821568132       11.5056302195       -2.9074365680  CLST         403          1.0000000000
      1209       403  TIP3  H2          -13.0983435806       12.3575072036       -3.5760087281  CLST         403          1.0000000000
      1210       404  TIP3  OH2           5.4057331196       -3.2520656409        0.4305591333  CLST         404          1.0000000000
      1211       404  TIP3  H1            4.6603523440       -2.6924626715        0.6227392533  CLST         404          1.0000000000
      1212       404  TIP3  H2            5.4357159080       -3.5285751526        1.3211416782  CLST         404          1.0000000000
      1213       405  TIP3  OH2           2.4520857983        8.3560042248       -3.2171778038  CLST         405          1.0000000000
      1214       405  TIP3  H1            2.0522952671        9.2437640626       -3.3070901787  CLST         405          1.0000000000
      1215       405  TIP3  H2            1.5379655668        7.9891188925       -3.1042274408  CLST         405          1.0000000000
      1216       406  TIP3  OH2          -9.0179114126       -2.5798363594       -7.5165811129  CLST         406          1.0000000000
      1217       406  TIP3  H1           -8.5279650097       -1.9496974399       -7.0110152142  CLST         406          1.0000000000
      1218       406  TIP3  H2           -9.8320112302       -2.1038992962       -7.1378803519  CLST         406          1.0000000000
      1219       407  TIP3  OH2           5.5735776653        5.5882164294        4.5887670999  CLST         407          1.0000000000
      1220       407  TIP3  H1            6.4570261925        5.5701720161        5.1364775596  CLST         407          1.0000000000
      1221       407  TIP3  H2            6.2807733847        5.7132988701        3.9377258043  CLST         407          1.0000000000
      1222       408  TIP3  OH2         -14.1106496371       -4.6341862749       -5.3372439429  CLST         408          1.0000000000
      1223       408  TIP3  H1          -14.0470912121       -3.6468407346       -5.2944387973  CLST         408          1.0000000000
      1224       408  TIP3  H2          -14.2013357388       -4.6018881210       -6.3105775418  CLST         408          1.0000000000
      1225       409  TIP3  OH2          -2.3006392600      -12.8877449805        1.2020400924  CLST         409          1.0000000000
      1226       409  TIP3  H1           -2.5876674073      -13.2898816926        2.0617626837  CLST         409          1.0000000000
      1227       409  TIP3  H2           -1.8376438287      -12.2616854567        1.8414096417  CLST         409          1.0000000000
      1228       410  TIP3  OH2          12.2123949331       -2.7388330677       10.3897964326  CLST         410          1.0000000000
      1229       410  TIP3  H1           12.2455149040       -2.2563138842        9.5982342450  CLST         410          1.0000000000
      1230       410  TIP3  H2           12.8344596543       -3.2142193731        9.5296373442  CLST         410          1.0000000000
      1231       411  TIP3  OH2           8.2569255235      -13.4316794489       -2.5130189780  CLST         411          1.0000000000
      1232       411  TIP3  H1            8.1286664059      -13.9047919295       -1.7295038242  CLST         411          1.0000000000
      1233       411  TIP3  H2            7.6827839960      -13.9390346429       -2.9799410420  CLST         411          1.0000000000
      1234       412  TIP3  OH2          13.3044765224       -4.8228385315       -7.5463102119  CLST         412          1.0000000000
      1235       412  TIP3  H1           12.7935085326       -4.3762731227       -8.2531399568  CLST         412          1.0000000000
      1236       412  TIP3  H2           12.6422496582       -4.2818955376       -6.9944518117  CLST         412          1.0000000000
      1237       413  TIP3  OH2           7.5110952048        8.0866897960       -5.2475650161  CLST         413          1.0000000000
      1238       413  TIP3  H1            7.6914046844        8.0119581450       -4.3076614049  CLST         413          1.0000000000
      1239       413  TIP3  H2            8.4512390510        8.4175025864       -5.3277851102  CLST         413          1.0000000000
      1240       414  TIP3  OH2          -8.9453042738       -5.3684214926      -11.9795508556  CLST         414          1.0000000000
      1241       414  TIP3  H1           -8.4132672689       -4.6017084963      -12.2852417079  CLST         414          1.0000000000
      1242       414  TIP3  H2           -9.0123210175       -4.4170417086      -11.2399185875  CLST         414          1.0000000000
      1243       415  TIP3  OH2         -14.0649356024        0.9416285846        5.0805018621  CLST         415          1.0000000000
      1244       415  TIP3  H1          -13.9645700592        1.8591317070        5.4159331885  CLST         415          1.0000000000
      1245       415  TIP3  H2          -13.5526830040        0.5243777809        5.7915521908  CLST         415          1.0000000000
      1246       416  TIP3  OH2          11.7605994221       12.2936630649       -2.2722640832  CLST         416          1.0000000000
      1247       416  TIP3  H1           12.4329322052       12.5126105277       -2.9925458151  CLST         416          1.0000000000
      1248       416  TIP3  H2           11.0039044310       12.9230953745       -2.9695299002  CLST         416          1.0000000000
      1249       417  TIP3  OH2          10.7668605230      -12.4807015143       -5.3551324366  CLST         417          1.0000000000
      1250       417  TIP3  H1           10.6886503628      -13.3599635859       -5.0414033607  CLST         417          1.0000000000
      1251       417  TIP3  H2            9.9204282695      -12.4212668235       -5.7672613987  CLST         417          1.0000000000
      1252       418  TIP3  OH2          -1.7676097805        5.3523323264        1.2777891148  CLST         418          1.0000000000
      1253       418  TIP3  H1           -2.3703480141        5.0218318700        0.6358944128  CLST         418          1.0000000000
      1254       418  TIP3  H2           -2.5162223786        5.3555494852        1.8703882259  CLST         418          1.0000000000
      1255       419  TIP3  OH2          -8.0056475458        9.5922193686        8.1336036887  CLST         419          1.0000000000
      1256       419  TIP3  H1           -8.1211078140       10.3506044201        7.4678777497  CLST         419          1.0000000000
      1257       419  TIP3  H2           -8.8958520077        9.6226880906        8.4951677805  CLST         419          1.0000000000
      1258       420  TIP3  OH2           3.3817330888        9.0792813077      -14.2151990531  CLST         420          1.0000000000
      1259       420  TIP3  H1            3.8534720221        8.9452604827      -13.3519249031  CLST         420          1.0000000000
      1260       420  TIP3  H2            3.6084189818        8.1377071771      -14.3328915541  CLST         420          1.0000000000
      1261       421  TIP3  OH2          -3.9227434150        7.1414116062       -3.6583640459  CLST         421          1.0000000000
      1262       421  TIP3  H1           -4.7822496556        6.6885857461       -3.9507227538  CLST         421          1.0000000000
      1263       421  TIP3  H2           -3.9739219021        6.4096566719       -3.0306653936  CLST         421          1.0000000000
      1264       422  TIP3  OH2           3.0755031408      -10.5935545982       -2.6990711659  CLST         422          1.0000000000
      1265       422  TIP3  H1            2.5581513242      -11.0736834775       -1.9816722718  CLST         422          1.0000000000
      1266       422  TIP3  H2            3.2798389784      -10.0292103213       -1.9451229965  CLST         422          1.0000000000
      1267       423  TIP3  OH2          -5.5175654075        5.2903883850        1.7504514520  CLST         423          1.0000000000
      1268       423  TIP3  H1           -4.8673902979        4.3739514406        1.6197657692  CLST         423          1.0000000000
      1269       423  TIP3  H2           -4.7079113490        5.2166157180        2.3192312994  CLST         423          1.0000000000
      1270       424  TIP3  OH2          -9.8405484370        8.4088011062        4.6150552353  CLST         424          1.0000000000
      1271       424  TIP3  H1           -9.9048620876        8.6734801692        3.7521740220  CLST         424          1.0000000000
      1272       424  TIP3  H2          -10.2569286383        7.5171377323        4.4220600580  CLST         424          1.0000000000
      1273       425  TIP3  OH2          -9.6318879288        2.3807958749       -9.0938917856  CLST         425          1.0000000000
      1274       425  TIP3  H1          -10.0551755332        1.5714048249       -8.9808511068  CLST         425          1.0000000000
      1275       425  TIP3  H2          -10.5642986898        2.7498732456       -8.8482661443  CLST         425          1.0000000000
      1276       426  TIP3  OH2          -1.0461716023       -9.0221878489       -4.1907862084  CLST         426          1.0000000000
      1277       426  TIP3  H1           -0.0640929481       -9.1911702844       -4.3227534617  CLST         426          1.0000000000
      1278       426  TIP3  H2           -1.1131995795       -9.1638179684       -5.1675993229  CLST         426          1.0000000000
      1279       427  TIP3  OH2          -9.9036986564        1.9501102546        5.1883423394  CLST         427          1.0000000000
      1280       427  TIP3  H1           -9.7123829252        2.9152091875        5.2816619263  CLST         427          1.0000000000
      1281       427  TIP3  H2          -10.8267092618        1.8901399830        5.4505612940  CLST         427          1.0000000000
      1282       428  TIP3  OH2          -6.7152675659       13.7988320600        6.9149297823  CLST         428          1.0000000000
      1283       428  TIP3  H1           -6.0897856309       14.4583860305        6.7094166069  CLST         428          1.0000000000
      1284       428  TIP3  H2           -6.3808655358       13.2097614094        6.2155367246  CLST         428          1.0000000000
      1285       429  TIP3  OH2           0.2134334176      -11.5354274872      -10.7168748053  CLST         429          1.0000000000
      1286       429  TIP3  H1           -0.4837285221      -12.2654255736      -10.7429531795  CLST         429          1.0000000000
      1287       429  TIP3  H2           -0.6134250699      -11.1886699524      -10.1824807454  CLST         429          1.0000000000
      1288       430  TIP3  OH2           0.4916252225        9.9412843232        9.9329679547  CLST         430          1.0000000000
      1289       430  TIP3  H1           -0.0798101423       10.4340532829       10.5175201994  CLST         430          1.0000000000
      1290       430  TIP3  H2            0.9854850378        9.8488394366       10.8098109819  CLST         430          1.0000000000
      1291       431  TIP3  OH2          -6.0339099686       -3.6220569838       -4.1198190270  CLST         431          1.0000000000
      1292       431  TIP3  H1           -5.4145564017       -3.6963172280       -4.8470329010  CLST         431          1.0000000000
      1293       431  TIP3  H2           -6.6751706564       -4.0316737257       -4.7448197036  CLST         431          1.0000000000
      1294       432  TIP3  OH2          -5.3315371799        3.7396209853       -3.2688155736  CLST         432          1.0000000000
      1295       432  TIP3  H1           -6.2960886938        3.7557101128       -3.2360503707  CLST         432          1.0000000000
      1296       432  TIP3  H2           -5.9421036598        4.6325482539       -3.4814849818  CLST         432          1.0000000000
      1297       433  TIP3  OH2          -8.9525700386        3.3116156633       10.1063298105  CLST         433          1.0000000000
      1298       433  TIP3  H1           -8.2323129757        3.5674083755        9.5353597107  CLST         433          1.0000000000
      1299       433  TIP3  H2           -8.7757253186        3.9824420500       10.7529923184  CLST         433          1.0000000000
      1300       434  TIP3  OH2           1.0807369898       -4.1700417063        9.7180585472  CLST         434          1.0000000000
      1301       434  TIP3  H1            0.3835141925       -3.8719785686       10.3762372361  CLST         434          1.0000000000
      1302       434  TIP3  H2            1.3964842928       -3.2437614432        9.5951389593  CLST         434          1.0000000000
      1303       435  TIP3  OH2           7.6403121088       -8.2979421709        6.6493280485  CLST         435          1.0000000000
      1304       435  TIP3  H1            7.9065242804       -8.4290106352        5.5147540724  CLST         435          1.0000000000
      1305       435  TIP3  H2            6.9908005405       -8.1558720820        5.9114151166  CLST         435          1.0000000000
      1306       436  TIP3  OH2          -6.8861772928       14.0660577953       -1.7276880620  CLST         436          1.0000000000
      1307       436  TIP3  H1           -6.5087845280       14.9048019368       -1.9335511543  CLST         436          1.0000000000
      1308       436  TIP3  H2           -7.1922028614       14.3171411045       -0.8768687762  CLST         436          1.0000000000
      1309       437  TIP3  OH2          -0.9702794010      -13.0913699688        5.7271146681  CLST         437          1.0000000000
      1310       437  TIP3  H1           -1.5907848921      -12.4431161878        6.0598298981  CLST         437          1.0000000000
      1311       437  TIP3  H2           -0.3663049982      -12.3009700778        5.6715619336  CLST         437          1.0000000000
      1312       438  TIP3  OH2         -12.2564274804       -0.9538421224       -3.0968763277  CLST         438          1.0000000000
      1313       438  TIP3  H1          -12.1876889444       -1.6491901634       -2.4430823005  CLST         438          1.0000000000
      1314       438  TIP3  H2          -12.7307132463       -0.4268861940       -2.4448601816  CLST         438          1.0000000000
      1315       439  TIP3  OH2          -4.0366655047       -3.8735942446        3.2427147362  CLST         439          1.0000000000
      1316       439  TIP3  H1           -5.0306305288       -4.0078669732        3.6026322899  CLST         439          1.0000000000
      1317       439  TIP3  H2           -4.4669358750       -4.5970605484        2.7163801493  CLST         439          1.0000000000
      1318       440  TIP3  OH2         -10.1602437763      -11.3244083392       12.2625923963  CLST         440          1.0000000000
      1319       440  TIP3  H1          -10.3987616891      -10.5090462838       11.7912914842  CLST         440          1.0000000000
      1320       440  TIP3  H2          -10.2900718903      -11.6800210293       11.3552191475  CLST         440          1.0000000000
      1321       441  TIP3  OH2         -14.1997903308        3.7842413014        7.2319493213  CLST         441          1.0000000000
      1322       441  TIP3  H1          -14.4376398520        4.6113708372        7.2503555085  CLST         441          1.0000000000
      1323       441  TIP3  H2          -14.8835619745        4.1560159009        6.3666299638  CLST         441          1.0000000000
      1324       442  TIP3  OH2           9.2805428672        0.3723400329      -12.0248247221  CLST         442          1.0000000000
      1325       442  TIP3  H1            9.6197080126       -0.4255865072      -11.5093200409  CLST         442          1.0000000000
      1326       442  TIP3  H2           10.2462141688        0.3966430495      -12.3241148300  CLST         442          1.0000000000
      1327       443  TIP3  OH2           7.7072278155       -8.3201851483        3.8796374899  CLST         443          1.0000000000
      1328       443  TIP3  H1            8.5181769976       -8.1098229700        3.1220194034  CLST         443          1.0000000000
      1329       443  TIP3  H2            7.7052213914       -7.7318294660        2.9317349938  CLST         443          1.0000000000
      1330       444  TIP3  OH2          12.8907546102        8.2749202393       -0.1623017729  CLST         444          1.0000000000
      1331       444  TIP3  H1           13.1390933768        9.1320029322        0.0808329147  CLST         444          1.0000000000
      1332       444  TIP3  H2           13.6494280317        7.7998207688        0.1061872021  CLST         444          1.0000000000
      1333       445  TIP3  OH2          -8.7146600799       -9.5591672447       13.9546116145  CLST         445          1.0000000000
      1334       445  TIP3  H1           -8.1780890765       -9.4326213972       13.1632956402  CLST         445          1.0000000000
      1335       445  TIP3  H2           -8.9406558358       -8.6372363129       14.1281512106  CLST         445          1.0000000000
      1336       446  TIP3  OH2          12.7697151713       10.8141340528        0.1604488034  CLST         446          1.0000000000
      1337       446  TIP3  H1           12.2491325459       11.4901136761        0.7236029790  CLST         446          1.0000000000
      1338       446  TIP3  H2           12.3393840875       11.3440239228       -0.4986393894  CLST         446          1.0000000000
      1339       447  TIP3  OH2          -3.5020505374       13.4588817798        5.2908657869  CLST         447          1.0000000000
      1340       447  TIP3  H1           -4.0831697473       14.2114775671        5.3654268953  CLST         447          1.0000000000
      1341       447  TIP3  H2           -4.3065508853       12.9467043304        5.0406409355  CLST         447          1.0000000000
      1342       448  TIP3  OH2         -10.6599554081        9.0862651714      -12.7221657827  CLST         448          1.0000000000
      1343       448  TIP3  H1           -9.8546664320        9.3242823729      -12.2084391553  CLST         448          1.0000000000
      1344       448  TIP3  H2           -9.9217074872        8.5617048584      -13.1410089980  CLST         448          1.0000000000
      1345       449  TIP3  OH2           5.4760454991       -8.1556143425       -5.9102742377  CLST         449          1.0000000000
      1346       449  TIP3  H1            4.9297092529       -8.9213507283       -5.9398604516  CLST         449          1.0000000000
      1347       449  TIP3  H2            5.3410619081       -8.1545454998       -4.9837887202  CLST         449          1.0000000000
      1348       450  TIP3  OH2           4.9297403069       10.2447312064       11.4163178976  CLST         450          1.0000000000
      1349       450  TIP3  H1            5.8028099771        9.8183813745       11.6400328849  CLST         450          1.0000000000
      1350       450  TIP3  H2            4.7531246372        9.8117577248       10.5549398966  CLST         450          1.0000000000
      1351       451  TIP3  OH2         -12.6831221208       10.9233983495      -12.6290115335  CLST         451          1.0000000000
      1352       451  TIP3  H1          -12.7277768213       11.0089736906      -13.5895959130  CLST         451          1.0000000000
      1353       451  TIP3  H2          -11.9264098217       10.3554160521      -12.8198205360  CLST         451          1.0000000000
      1354       452  TIP3  OH2          -9.8457245664       14.4810469957        1.8277828153  CLST         452          1.0000000000
      1355       452  TIP3  H1          -10.4424921056       13.7333615712        1.9122999709  CLST         452          1.0000000000
      1356       452  TIP3  H2          -10.6501658295       14.9447164640        1.6002233125  CLST         452          1.0000000000
      1357       453  TIP3  OH2          -3.2397233777       -8.6188332798      -13.6434598978  CLST         453          1.0000000000
      1358       453  TIP3  H1           -4.1339530479       -8.9179363122      -13.4884043281  CLST         453          1.0000000000
      1359       453  TIP3  H2           -3.3000913875       -9.1210557372      -14.5591257440  CLST         453          1.0000000000
      1360       454  TIP3  OH2          13.4818810638      -13.4027733167       10.9065284143  CLST         454          1.0000000000
      1361       454  TIP3  H1           13.7678455006      -14.0250024933       11.5565124492  CLST         454          1.0000000000
      1362       454  TIP3  H2           13.5480397188      -12.7929966081       11.6097762915  CLST         454          1.0000000000
      1363       455  TIP3  OH2         -13.4657786363       -9.8247851363       -4.0413284161  CLST         455          1.0000000000
      1364       455  TIP3  H1          -13.4149989673       -8.8806297939       -3.9706793193  CLST         455          1.0000000000
      1365       455  TIP3  H2          -12.6057755294       -9.8139641515       -3.7042213826  CLST         455          1.0000000000
      1366       456  TIP3  OH2          -7.7997320119        7.0669785088        6.4885615635  CLST         456          1.0000000000
      1367       456  TIP3  H1           -7.9022130563        7.7786805045        7.1820188636  CLST         456          1.0000000000
      1368       456  TIP3  H2           -8.0665535117        7.8033909135        5.9237658509  CLST         456          1.0000000000
      1369       457  TIP3  OH2          -3.8950039561      -12.8119756490        8.5437151383  CLST         457          1.0000000000
      1370       457  TIP3  H1           -3.9451281893      -13.4142691731        9.3499754147  CLST         457          1.0000000000
      1371       457  TIP3  H2           -2.9280595169      -13.0441160214        8.6260932636  CLST         457          1.0000000000
      1372       458  TIP3  OH2          -2.2831210338       12.0021352846      -11.4216202868  CLST         458          1.0000000000
      1373       458  TIP3  H1           -3.1987580238       12.1302485891      -11.6068347908  CLST         458          1.0000000000
      1374       458  TIP3  H2           -2.3927186601       11.3064915016      -12.1055415112  CLST         458          1.0000000000
      1375       459  TIP3  OH2         -13.5140800497        7.1757581609       -4.1262226817  CLST         459          1.0000000000
      1376       459  TIP3  H1          -13.8444178720        7.8315749463       -3.4096593633  CLST         459          1.0000000000
      1377       459  TIP3  H2          -13.1853833166        7.9103478563       -4.6604542027  CLST         459          1.0000000000
      1378       460  TIP3  OH2           7.2906319298        9.7097441148      -13.7979042839  CLST         460          1.0000000000
      1379       460  TIP3  H1            6.8042828053        9.5647953040      -12.9624775264  CLST         460          1.0000000000
      1380       460  TIP3  H2            6.7497670451       10.5271356152      -13.8922231167  CLST         460          1.0000000000
      1381       461  TIP3  OH2           0.3103159740        7.6381883338      -12.8687131546  CLST         461          1.0000000000
      1382       461  TIP3  H1           -0.5230411526        7.3090665054      -12.4562554814  CLST         461          1.0000000000
      1383       461  TIP3  H2            0.3779791117        8.1948382080      -12.0306727757  CLST         461          1.0000000000
      1384       462  TIP3  OH2           4.2810819386        7.9189497736      -10.1043229500  CLST         462          1.0000000000
      1385       462  TIP3  H1            3.7071459597        7.1047835502      -10.1514105091  CLST         462          1.0000000000
      1386       462  TIP3  H2            3.9791661477        7.7809491845       -9.1870602165  CLST         462          1.0000000000
      1387       463  TIP3  OH2          -1.3119861240      -11.3780869455       -8.1822482331  CLST         463          1.0000000000
      1388       463  TIP3  H1           -2.1963294619      -11.6402903952       -8.5424484298  CLST         463          1.0000000000
      1389       463  TIP3  H2           -1.7043359908      -11.7335299797       -7.3104040695  CLST         463          1.0000000000
      1390       464  TIP3  OH2          -2.1483257422        2.7026506686       14.3403065623  CLST         464          1.0000000000
      1391       464  TIP3  H1           -2.7040782527        2.4554485784       13.5811531670  CLST         464          1.0000000000
      1392       464  TIP3  H2           -2.1895576672        3.5412230241       13.9405212572  CLST         464          1.0000000000
      1393       465  TIP3  OH2         -14.8008378804        6.0749653010        8.0776875155  CLST         465          1.0000000000
      1394       465  TIP3  H1          -14.9153059155        6.1789320133        9.0251329348  CLST         465          1.0000000000
      1395       465  TIP3  H2          -14.9517617159        7.0230608958        8.0636553200  CLST         465          1.0000000000
      1396       466  TIP3  OH2          -4.0549508577      -13.5134060172        3.0684033533  CLST         466          1.0000000000
      1397       466  TIP3  H1           -4.5289802375      -14.2381828342        3.4474544831  CLST         466          1.0000000000
      1398       466  TIP3  H2           -4.8675134407      -13.1047511777        2.8171255503  CLST         466          1.0000000000
      1399       467  TIP3  OH2           4.5748498826       14.4962633816        8.1669056967  CLST         467          1.0000000000
      1400       467  TIP3  H1            5.3163024188       14.0369758294        8.6972373124  CLST         467          1.0000000000
      1401       467  TIP3  H2            4.2139309875       14.8737240080        8.9610239876  CLST         467          1.0000000000
      1402       468  TIP3  OH2          -8.5290040389       -0.9341106846        1.8847097623  CLST         468          1.0000000000
      1403       468  TIP3  H1           -8.8735883330       -1.3531407877        2.6865060127  CLST         468          1.0000000000
      1404       468  TIP3  H2           -9.2909433194       -1.3150155861        1.4131028663  CLST         468          1.0000000000
      1405       469  TIP3  OH2           6.8561250478        0.8170412644       14.5367473306  CLST         469          1.0000000000
      1406       469  TIP3  H1            6.0952647418        0.5357051354       14.0612693853  CLST         469          1.0000000000
      1407       469  TIP3  H2            6.4675164363        1.6208024588       14.1250711076  CLST         469          1.0000000000
      1408       470  TIP3  OH2           1.0923247054       11.6572982142       -8.6860598036  CLST         470          1.0000000000
      1409       470  TIP3  H1            1.3735865498       12.6017858507       -8.5841659242  CLST         470          1.0000000000
      1410       470  TIP3  H2            2.0023150566       11.4934185829       -8.3351530239  CLST         470          1.0000000000
      1411       471  TIP3  OH2           5.3019942639        5.5428314727       -2.0839439759  CLST         471          1.0000000000
      1412       471  TIP3  H1            4.7955077828        5.5253523391       -2.9801641344  CLST         471          1.0000000000
      1413       471  TIP3  H2            4.5601137257        5.6137825413       -1.4768036785  CLST         471          1.0000000000
      1414       472  TIP3  OH2           5.4719892809      -12.2663157379       -6.9173937868  CLST         472          1.0000000000
      1415       472  TIP3  H1            5.0677790265      -13.0264788675       -7.3598288638  CLST         472          1.0000000000
      1416       472  TIP3  H2            5.3927839467      -12.8245735634       -6.1712079312  CLST         472          1.0000000000
      1417       473  TIP3  OH2          -3.6178129678        3.0752789450        1.4208438085  CLST         473          1.0000000000
      1418       473  TIP3  H1           -2.7633426559        2.7334276655        1.3222068987  CLST         473          1.0000000000
      1419       473  TIP3  H2           -3.4591135934        2.2756848975        0.6313959560  CLST         473          1.0000000000
      1420       474  TIP3  OH2           8.1868283819        4.3893291742        7.7239243854  CLST         474          1.0000000000
      1421       474  TIP3  H1            7.8680203548        3.7041156673        6.8975571603  CLST         474          1.0000000000
      1422       474  TIP3  H2            8.8543009728        4.4023272684        7.0408352009  CLST         474          1.0000000000
      1423       475  TIP3  OH2           6.1342165874       -3.8395890388       -7.6426521532  CLST         475          1.0000000000
      1424       475  TIP3  H1            5.7023906245       -3.1948819261       -8.2419528922  CLST         475          1.0000000000
      1425       475  TIP3  H2            6.9559744246       -3.5920196547       -8.0883980764  CLST         475          1.0000000000
      1426       476  TIP3  OH2           3.0577733330       10.1174748687       -7.9929579792  CLST         476          1.0000000000
      1427       476  TIP3  H1            3.2137957148        9.2371573201       -7.5481006087  CLST         476          1.0000000000
      1428       476  TIP3  H2            2.4664228341       10.2117101194       -7.1776318510  CLST         476          1.0000000000
      1429       477  TIP3  OH2          -7.5524083809       -3.6065621651       -9.9591468092  CLST         477          1.0000000000
      1430       477  TIP3  H1           -6.9496177190       -3.5640399189      -10.7312883292  CLST         477          1.0000000000
      1431       477  TIP3  H2           -6.7612857658       -3.6680097481       -9.4282376455  CLST         477          1.0000000000
      1432       478  TIP3  OH2           0.9015907706       -4.8124570386      -12.2947155005  CLST         478          1.0000000000
      1433       478  TIP3  H1            1.2423413403       -5.7000673276      -12.1964619439  CLST         478          1.0000000000
      1434       478  TIP3  H2            1.4858569174       -4.6534126825      -11.5015549996  CLST         478          1.0000000000
      1435       479  TIP3  OH2           0.2175724069       -1.6929176771       -7.4689860571  CLST         479          1.0000000000
      1436       479  TIP3  H1            0.4429382992       -1.4951358866       -6.4868689569  CLST         479          1.0000000000
      1437       479  TIP3  H2            1.1957259447       -1.8271680898       -7.6177636782  CLST         479          1.0000000000
      1438       480  TIP3  OH2           5.8147088895       -0.9650480540        9.0472038693  CLST         480          1.0000000000
      1439       480  TIP3  H1            6.7785914576       -1.0763353087        8.9342563709  CLST         480          1.0000000000
      1440       480  TIP3  H2            5.9887486517       -0.0243183467        8.8952419258  CLST         480          1.0000000000
      1441       481  TIP3  OH2          -6.8693241912        2.0870628116       -5.6175226555  CLST         481          1.0000000000
      1442       481  TIP3  H1           -7.0702136765        3.0659483098       -5.8365743766  CLST         481          1.0000000000
      1443       481  TIP3  H2           -6.0556324671        2.5940836413       -5.4467133371  CLST         481          1.0000000000
      1444       482  TIP3  OH2           3.9037066947       -8.0184432609        4.3178434276  CLST         482          1.0000000000
      1445       482  TIP3  H1            4.4721634349       -7.4794207839        4.8510854758  CLST         482          1.0000000000
      1446       482  TIP3  H2            3.3969050872       -7.1592324542        4.3195501087  CLST         482          1.0000000000
      1447       483  TIP3  OH2         -14.9517617159        0.1955532466       -8.0770907467  CLST         483          1.0000000000
      1448       483  TIP3  H1          -14.5875404048       -0.6708694994       -8.0324956358  CLST         483          1.0000000000
      1449       483  TIP3  H2          -14.0979532360        0.5750277295       -7.7842021470  CLST         483          1.0000000000
      1450       484  TIP3  OH2          14.9138140307       -2.7540661161       -8.7942167965  CLST         484          1.0000000000
      1451       484  TIP3  H1           14.6790233837       -3.5323001220       -8.2711711476  CLST         484          1.0000000000
      1452       484  TIP3  H2           14.0597772838       -2.3872372102       -9.1824025379  CLST         484          1.0000000000
      1453       485  TIP3  OH2          -3.6415969157        5.4854085522        3.6169051518  CLST         485          1.0000000000
      1454       485  TIP3  H1           -2.9908964225        5.2165154950        4.2504754047  CLST         485          1.0000000000
      1455       485  TIP3  H2           -4.1025696628        5.9136638486        4.3648911183  CLST         485          1.0000000000
      1456       486  TIP3  OH2          11.2186156099       13.0814413095       -9.0613507081  CLST         486          1.0000000000
      1457       486  TIP3  H1           11.8525849501       12.7045201746       -8.4277921536  CLST         486          1.0000000000
      1458       486  TIP3  H2           11.4416398980       12.4413774647       -9.7164461337  CLST         486          1.0000000000
      1459       487  TIP3  OH2           2.4063794356       -5.9908361183        3.2805686284  CLST         487          1.0000000000
      1460       487  TIP3  H1            3.1340365574       -5.3085533021        3.3350575304  CLST         487          1.0000000000
      1461       487  TIP3  H2            1.9428355634       -5.1524636485        3.4500881447  CLST         487          1.0000000000
      1462       488  TIP3  OH2         -11.5324013242       -0.5582711351       11.0351047051  CLST         488          1.0000000000
      1463       488  TIP3  H1          -11.5144093763        0.5238506125       10.7964355699  CLST         488          1.0000000000
      1464       488  TIP3  H2          -10.8671790444       -0.3112718468       10.5549710607  CLST         488          1.0000000000
      1465       489  TIP3  OH2          -8.4280532727        7.9275210913       -4.6299879219  CLST         489          1.0000000000
      1466       489  TIP3  H1           -8.4505015864        8.2480025064       -3.6623640334  CLST         489          1.0000000000
      1467       489  TIP3  H2           -7.7143287579        7.4141087800       -4.3801292679  CLST         489          1.0000000000
      1468       490  TIP3  OH2         -10.9665336254       11.2267388532        4.8783022317  CLST         490          1.0000000000
      1469       490  TIP3  H1          -10.6874016157       10.3223964962        4.9744307902  CLST         490          1.0000000000
      1470       490  TIP3  H2          -10.7830269894       11.1215282971        3.9828415760  CLST         490          1.0000000000
      1471       491  TIP3  OH2          -0.9357006896      -10.0137330029       11.0073608468  CLST         491          1.0000000000
      1472       491  TIP3  H1           -0.1178389396       -9.7019672626       10.6928206094  CLST         491          1.0000000000
      1473       491  TIP3  H2           -0.9807424652       -9.2024270709       11.5048081320  CLST         491          1.0000000000
      1474       492  TIP3  OH2          -2.1191831824       10.3644318615        2.8147271050  CLST         492          1.0000000000
      1475       492  TIP3  H1           -1.5714172728       11.0615747167        3.1153336294  CLST         492          1.0000000000
      1476       492  TIP3  H2           -2.5928340172       10.8650581773        2.1709853450  CLST         492          1.0000000000
      1477       493  TIP3  OH2          -6.4662964841       10.5724383306       -2.7861581714  CLST         493          1.0000000000
      1478       493  TIP3  H1           -6.8811003955       10.9854367716       -3.5075882624  CLST         493          1.0000000000
      1479       493  TIP3  H2           -7.3439929629       10.3172784321       -2.5238070432  CLST         493          1.0000000000
      1480       494  TIP3  OH2         -13.8485987149       11.0883708383       12.3142397470  CLST         494          1.0000000000
      1481       494  TIP3  H1          -14.6950703985       11.0308678099       11.8845289095  CLST         494          1.0000000000
      1482       494  TIP3  H2          -13.2230592421       11.5341647441       11.8350179185  CLST         494          1.0000000000
      1483       495  TIP3  OH2           3.0341120460      -12.9817023679       13.9346231344  CLST         495          1.0000000000
      1484       495  TIP3  H1            2.8510457291      -12.8986859716       14.8578013202  CLST         495          1.0000000000
      1485       495  TIP3  H2            3.3106204774      -12.0423638338       13.9084311671  CLST         495          1.0000000000
      1486       496  TIP3  OH2         -14.9517617159        6.0892505379        0.1647495209  CLST         496          1.0000000000
      1487       496  TIP3  H1          -14.1952361649        5.8675988852        1.1254032605  CLST         496          1.0000000000
      1488       496  TIP3  H2          -14.5848121332        5.2584539437        0.3070957479  CLST         496          1.0000000000
      1489       497  TIP3  OH2         -13.4529255979       -8.4922389538        3.5460382658  CLST         497          1.0000000000
      1490       497  TIP3  H1          -14.0251531795       -7.7747652820        3.6164893508  CLST         497          1.0000000000
      1491       497  TIP3  H2          -13.6968189906       -8.9632549216        4.3488490422  CLST         497          1.0000000000
      1492       498  TIP3  OH2           4.5259795884       14.3513112388      -10.5531359402  CLST         498          1.0000000000
      1493       498  TIP3  H1            4.8188800783       14.1207686886      -11.2975307711  CLST         498          1.0000000000
      1494       498  TIP3  H2            5.1877698800       13.3758662041      -10.7070870844  CLST         498          1.0000000000
      1495       499  TIP3  OH2           1.5255334829       10.9144602802       -3.1191461712  CLST         499          1.0000000000
      1496       499  TIP3  H1            0.5531635290       11.1420130786       -2.9130761003  CLST         499          1.0000000000
      1497       499  TIP3  H2            1.6784493762       11.7827627615       -2.7345859476  CLST         499          1.0000000000
      1498       500  TIP3  OH2          -6.3225735968       -2.8795103056        4.2193929788  CLST         500          1.0000000000
      1499       500  TIP3  H1           -7.2354329600       -2.7219151279        3.9978834788  CLST         500          1.0000000000
      1500       500  TIP3  H2           -6.1823128612       -2.5011070339        3.3061657153  CLST         500          1.0000000000
      1501       501  TIP3  OH2         -12.2444028578      -13.6347598238       -6.2460464290  CLST         501          1.0000000000
      1502       501  TIP3  H1          -12.8219444343      -13.1398426451       -6.7246577957  CLST         501          1.0000000000
      1503       501  TIP3  H2          -11.5111972372      -13.0649153625       -6.4971755784  CLST         501          1.0000000000
      1504       502  TIP3  OH2          -1.2582812913       -3.8479956488      -11.5004928616  CLST         502          1.0000000000
      1505       502  TIP3  H1           -0.7536954214       -3.0862901876      -11.3594199299  CLST         502          1.0000000000
      1506       502  TIP3  H2           -0.5701295313       -4.0213758754      -12.1383838842  CLST         502          1.0000000000
      1507       503  TIP3  OH2          -0.2920528734       -4.9259856120        0.9667109419  CLST         503          1.0000000000
      1508       503  TIP3  H1            0.1258194314       -5.2660959342        0.1302886329  CLST         503          1.0000000000
      1509       503  TIP3  H2           -0.9974397279       -5.5772461077        0.7052293763  CLST         503          1.0000000000
      1510       504  TIP3  OH2          -4.1824917055       -3.3568276580       12.8500386446  CLST         504          1.0000000000
      1511       504  TIP3  H1           -4.3547819382       -4.2319080450       13.3078739101  CLST         504          1.0000000000
      1512       504  TIP3  H2           -4.1720327448       -2.8787297665       13.6800099943  CLST         504          1.0000000000
      1513       505  TIP3  OH2           5.7224299822       12.4530950704       -9.1587997493  CLST         505          1.0000000000
      1514       505  TIP3  H1            5.9777902899       11.9091677402       -8.3900319934  CLST         505          1.0000000000
      1515       505  TIP3  H2            6.7062374022       12.8074071682       -9.0653518458  CLST         505          1.0000000000
      1516       506  TIP3  OH2          -3.9490366217        3.7657041081       10.6963562396  CLST         506          1.0000000000
      1517       506  TIP3  H1           -4.8185326042        3.6012939021       10.3270981558  CLST         506          1.0000000000
      1518       506  TIP3  H2           -3.7466302865        2.9122210581       11.0430650831  CLST         506          1.0000000000
      1519       507  TIP3  OH2          -2.2547044158        7.2057728491      -12.3348339225  CLST         507          1.0000000000
      1520       507  TIP3  H1           -2.7680966805        6.4726784739      -11.9557566699  CLST         507          1.0000000000
      1521       507  TIP3  H2           -3.0503348272        7.2832741465      -12.9166531321  CLST         507          1.0000000000
      1522       508  TIP3  OH2         -11.1268996677        5.0203313577      -11.5500736817  CLST         508          1.0000000000
      1523       508  TIP3  H1          -12.0853058465        4.2282578557      -11.5660691275  CLST         508          1.0000000000
      1524       508  TIP3  H2          -11.0998922798        4.0863913785      -11.2906901678  CLST         508          1.0000000000
      1525       509  TIP3  OH2           4.6946077865        0.5043645259      -10.7914262579  CLST         509          1.0000000000
      1526       509  TIP3  H1            5.2020614518        0.7885566538      -10.0581710427  CLST         509          1.0000000000
      1527       509  TIP3  H2            5.3674991552        0.2987201145      -11.4886975220  CLST         509          1.0000000000
      1528       510  TIP3  OH2          -4.5625221799        0.1707359107       -3.7777856491  CLST         510          1.0000000000
      1529       510  TIP3  H1           -4.7191306542       -0.3982700039       -4.5431127260  CLST         510          1.0000000000
      1530       510  TIP3  H2           -3.8360364019        0.3827545819       -4.4404732017  CLST         510          1.0000000000
      1531       511  TIP3  OH2         -10.3788027760        1.5870294674       -0.9984751592  CLST         511          1.0000000000
      1532       511  TIP3  H1          -10.9035900443        2.1655043120       -0.4061969475  CLST         511          1.0000000000
      1533       511  TIP3  H2          -11.0343407094        0.9755692599       -0.5561789787  CLST         511          1.0000000000
      1534       512  TIP3  OH2          -3.2914721618       -8.2340948609       -8.5833503619  CLST         512          1.0000000000
      1535       512  TIP3  H1           -2.3303148552       -8.5003752306       -8.6983221314  CLST         512          1.0000000000
      1536       512  TIP3  H2           -3.1231386806       -7.5945840291       -9.3494104075  CLST         512          1.0000000000
      1537       513  TIP3  OH2           9.6981696263       14.0618316755       11.4007282149  CLST         513          1.0000000000
      1538       513  TIP3  H1            9.5517533453       14.9504215213       11.0908521588  CLST         513          1.0000000000
      1539       513  TIP3  H2            9.4791106546       13.7482646212       10.5201206764  CLST         513          1.0000000000
      1540       514  TIP3  OH2          -4.7543593926        7.6973772273      -12.8057882819  CLST         514          1.0000000000
      1541       514  TIP3  H1           -5.4863951225        8.0139856611      -13.2498225868  CLST         514          1.0000000000
      1542       514  TIP3  H2           -5.2434772309        7.7847345496      -11.9521211188  CLST         514          1.0000000000
      1543       515  TIP3  OH2           5.7766677789        6.3804056030       -6.3172232589  CLST         515          1.0000000000
      1544       515  TIP3  H1            5.6550975699        5.7943927287       -5.5026417275  CLST         515          1.0000000000
      1545       515  TIP3  H2            6.6797008252        6.6029849436       -5.9000607570  CLST         515          1.0000000000
      1546       516  TIP3  OH2           9.4228015324        0.1600122810       -8.0809610868  CLST         516          1.0000000000
      1547       516  TIP3  H1           10.3457757597        0.2032780111       -7.8637807551  CLST         516          1.0000000000
      1548       516  TIP3  H2            9.3931690234        1.1457839173       -8.1089810718  CLST         516          1.0000000000
      1549       517  TIP3  OH2          13.7898371298       -7.0541453477       -8.8481278788  CLST         517          1.0000000000
      1550       517  TIP3  H1           14.0733688589       -6.1613458438       -8.4681188254  CLST         517          1.0000000000
      1551       517  TIP3  H2           14.5559486500       -7.3982145164       -8.3378678690  CLST         517          1.0000000000
      1552       518  TIP3  OH2          -0.5100405255       12.1227526764       -5.9948924736  CLST         518          1.0000000000
      1553       518  TIP3  H1            0.4165592341       11.9785141110       -5.7612353206  CLST         518          1.0000000000
      1554       518  TIP3  H2           -0.3097077972       12.8845369991       -5.3833926026  CLST         518          1.0000000000
      1555       519  TIP3  OH2           0.8728606633        4.9824848214        1.0148453913  CLST         519          1.0000000000
      1556       519  TIP3  H1            0.5254214172        4.3023311945        0.3862948823  CLST         519          1.0000000000
      1557       519  TIP3  H2           -0.0228979314        5.1080661786        1.2328856219  CLST         519          1.0000000000
      1558       520  TIP3  OH2           6.7170695849        6.9593108322      -10.6832096066  CLST         520          1.0000000000
      1559       520  TIP3  H1            5.8560720441        7.3010728922      -10.8089729556  CLST         520          1.0000000000
      1560       520  TIP3  H2            6.8338092236        7.6462265849      -10.0805922464  CLST         520          1.0000000000
      1561       521  TIP3  OH2          -5.8394205945       10.1191175375        9.7463074069  CLST         521          1.0000000000
      1562       521  TIP3  H1           -4.8908809180       10.0498747582       10.3590229494  CLST         521          1.0000000000
      1563       521  TIP3  H2           -4.8223792431       10.3278331601        9.4408828988  CLST         521          1.0000000000
      1564       522  TIP3  OH2           3.1958218779        3.5271068563        2.1489335976  CLST         522          1.0000000000
      1565       522  TIP3  H1            2.1995512616        3.8269895832        1.5815840924  CLST         522          1.0000000000
      1566       522  TIP3  H2            3.0084121451        3.2859481122        1.3058851583  CLST         522          1.0000000000
      1567       523  TIP3  OH2           8.4229959201        0.6011951962       -3.6099712840  CLST         523          1.0000000000
      1568       523  TIP3  H1            7.4253526964        0.6048474391       -3.7051237050  CLST         523          1.0000000000
      1569       523  TIP3  H2            8.4793447508       -0.3103192375       -3.9177401574  CLST         523          1.0000000000
      1570       524  TIP3  OH2          -5.1205048145        5.3101407493      -10.4346619178  CLST         524          1.0000000000
      1571       524  TIP3  H1           -4.8170526397        6.2091961639      -10.3682669923  CLST         524          1.0000000000
      1572       524  TIP3  H2           -4.3610175288        5.0457344599      -10.9956296444  CLST         524          1.0000000000
      1573       525  TIP3  OH2          -5.8363761321        5.8869341095       -7.8730682824  CLST         525          1.0000000000
      1574       525  TIP3  H1           -5.0936455492        6.5576582493       -8.1561400745  CLST         525          1.0000000000
      1575       525  TIP3  H2           -5.5673229135        5.3656569145       -8.6570242201  CLST         525          1.0000000000
      1576       526  TIP3  OH2           9.3754133716      -11.0505863467      -12.8885344406  CLST         526          1.0000000000
      1577       526  TIP3  H1            9.8096391151      -10.9478531233      -13.6516733692  CLST         526          1.0000000000
      1578       526  TIP3  H2            8.6595469943      -10.8910957265      -13.5869267289  CLST         526          1.0000000000
      1579       527  TIP3  OH2         -11.7255047254       -3.3457646232       -1.8747727445  CLST         527          1.0000000000
      1580       527  TIP3  H1          -12.4647185847       -3.7930729825       -2.3112226083  CLST         527          1.0000000000
      1581       527  TIP3  H2          -11.1471323609       -3.9468220910       -2.2639198058  CLST         527          1.0000000000
      1582       528  TIP3  OH2           4.5356714913      -12.0485880679      -10.9217911043  CLST         528          1.0000000000
      1583       528  TIP3  H1            4.1121782822      -11.2219323409      -11.1245642173  CLST         528          1.0000000000
      1584       528  TIP3  H2            5.3530473989      -11.5550758605      -10.8976103437  CLST         528          1.0000000000
      1585       529  TIP3  OH2          -5.8747123086       -7.0945200698       -4.5870867828  CLST         529          1.0000000000
      1586       529  TIP3  H1           -5.3295818040       -7.8828141626       -4.7937167659  CLST         529          1.0000000000
      1587       529  TIP3  H2           -5.5528260552       -6.8427580475       -5.4426552794  CLST         529          1.0000000000
      1588       530  TIP3  OH2           3.0420385339       -5.8817165288        6.4544977648  CLST         530          1.0000000000
      1589       530  TIP3  H1            2.7097017810       -6.1096313577        7.3561916167  CLST         530          1.0000000000
      1590       530  TIP3  H2            2.0859619309       -5.9483024884        6.1927456295  CLST         530          1.0000000000
      1591       531  TIP3  OH2          -3.3689059300       -3.1475097831      -14.9517617159  CLST         531          1.0000000000
      1592       531  TIP3  H1           -3.7733004152       -2.2774879454      -14.8724395503  CLST         531          1.0000000000
      1593       531  TIP3  H2           -3.6913274375       -3.3665511329      -14.1058882250  CLST         531          1.0000000000
      1594       532  TIP3  OH2          -1.3625602360       -3.6232008956       -2.2613829923  CLST         532          1.0000000000
      1595       532  TIP3  H1           -2.0279411666       -2.9358735334       -2.3518930899  CLST         532          1.0000000000
      1596       532  TIP3  H2           -1.6206557591       -3.5564333351       -1.3191655279  CLST         532          1.0000000000
      1597       533  TIP3  OH2          -3.0455669584       13.0087255261        8.2653846582  CLST         533          1.0000000000
      1598       533  TIP3  H1           -3.5408250417       13.2259241496        7.3933378514  CLST         533          1.0000000000
      1599       533  TIP3  H2           -3.7050473298       12.3420117720        8.2324902199  CLST         533          1.0000000000
      1600       534  TIP3  OH2           7.0830291314       -4.3208683621       -5.2481925643  CLST         534          1.0000000000
      1601       534  TIP3  H1            6.2386243748       -4.0588479961       -4.6799807178  CLST         534          1.0000000000
      1602       534  TIP3  H2            6.4850410800       -3.8119417538       -5.8452590496  CLST         534          1.0000000000
      1603       535  TIP3  OH2           7.2321018561       -3.9582112426      -11.6018046245  CLST         535          1.0000000000
      1604       535  TIP3  H1            6.4668263480       -3.4344194845      -11.2948372377  CLST         535          1.0000000000
      1605       535  TIP3  H2            7.2830566835       -4.1692176042      -10.6443959751  CLST         535          1.0000000000
      1606       536  TIP3  OH2          14.1953097623        8.1635148516       10.8200194914  CLST         536          1.0000000000
      1607       536  TIP3  H1           14.1505092919        9.1059315717       11.1763511480  CLST         536          1.0000000000
      1608       536  TIP3  H2           14.6764818988        8.6484730746       10.0787622365  CLST         536          1.0000000000
      1609       537  TIP3  OH2           4.7465773279       -4.7441133001       -3.6085857470  CLST         537          1.0000000000
      1610       537  TIP3  H1            3.8311257671       -4.8788706186       -3.2621942131  CLST         537          1.0000000000
      1611       537  TIP3  H2            4.8860203930       -5.6848930776       -3.7434342533  CLST         537          1.0000000000
      1612       538  TIP3  OH2          -0.2817123153        7.4612261236       13.0294686406  CLST         538          1.0000000000
      1613       538  TIP3  H1           -1.0243699121        7.5599284349       12.4377309723  CLST         538          1.0000000000
      1614       538  TIP3  H2           -0.2832553459        8.4266508678       13.0709029083  CLST         538          1.0000000000
      1615       539  TIP3  OH2           6.0684161775        8.7751626831        1.3349769158  CLST         539          1.0000000000
      1616       539  TIP3  H1            6.6122656202        8.1675453425        0.8307839651  CLST         539          1.0000000000
      1617       539  TIP3  H2            5.4736190108        8.0587321221        1.4263881030  CLST         539          1.0000000000
      1618       540  TIP3  OH2          11.9363548967       -1.4666329189       -4.0978468345  CLST         540          1.0000000000
      1619       540  TIP3  H1           12.8371794069       -1.1135690038       -4.0653113087  CLST         540          1.0000000000
      1620       540  TIP3  H2           12.0044880292       -1.2001251725       -3.1318732736  CLST         540          1.0000000000
      1621       541  TIP3  OH2          10.1730956784        7.5109875263        8.4989837015  CLST         541          1.0000000000
      1622       541  TIP3  H1           10.3499709567        7.4859422311        9.5279059540  CLST         541          1.0000000000
      1623       541  TIP3  H2           10.9345829291        6.7689165603        8.9262071329  CLST         541          1.0000000000
      1624       542  TIP3  OH2          13.6703482243        0.9385729357       -5.0988211720  CLST         542          1.0000000000
      1625       542  TIP3  H1           12.8877669699        1.3109572107       -5.4883436836  CLST         542          1.0000000000
      1626       542  TIP3  H2           14.0595970356        1.1638259445       -5.9679021231  CLST         542          1.0000000000
      1627       543  TIP3  OH2          10.0428862106       -6.5071790221        5.5703548099  CLST         543          1.0000000000
      1628       543  TIP3  H1           10.1602800111       -7.0383096007        4.7719545860  CLST         543          1.0000000000
      1629       543  TIP3  H2            9.5503734586       -5.8187277419        5.0199583668  CLST         543          1.0000000000
      1630       544  TIP3  OH2           6.7967432923        4.4180983465      -12.4492334589  CLST         544          1.0000000000
      1631       544  TIP3  H1            7.2497248242        3.8106819304      -11.7597992853  CLST         544          1.0000000000
      1632       544  TIP3  H2            6.5213714175        4.9268251188      -11.7156404080  CLST         544          1.0000000000
      1633       545  TIP3  OH2         -12.0625004340        1.9936174978        7.6407402618  CLST         545          1.0000000000
      1634       545  TIP3  H1          -12.7388331052        2.6742225777        7.7042944683  CLST         545          1.0000000000
      1635       545  TIP3  H2          -11.9168767457        2.1673072133        8.5773424123  CLST         545          1.0000000000
      1636       546  TIP3  OH2          -1.0311412812       11.9449708099       10.5196602630  CLST         546          1.0000000000
      1637       546  TIP3  H1           -0.5593775879       13.0133939211       10.3501963827  CLST         546          1.0000000000
      1638       546  TIP3  H2           -0.5578520793       12.3902135648       11.1029739907  CLST         546          1.0000000000
      1639       547  TIP3  OH2          -2.1277618774        6.9782109281        5.7790588177  CLST         547          1.0000000000
      1640       547  TIP3  H1           -2.0201028957        6.1962896829        6.4311717417  CLST         547          1.0000000000
      1641       547  TIP3  H2           -1.4502365357        6.5577381448        5.2300357927  CLST         547          1.0000000000
      1642       548  TIP3  OH2           2.6490226576       -7.9330452395       12.3794951424  CLST         548          1.0000000000
      1643       548  TIP3  H1            2.4128703506       -7.0603096889       12.7576456392  CLST         548          1.0000000000
      1644       548  TIP3  H2            3.5749909571       -7.5206163007       12.1315372481  CLST         548          1.0000000000
      1645       549  TIP3  OH2          -7.0070801735       14.6198819921        3.0588679300  CLST         549          1.0000000000
      1646       549  TIP3  H1           -7.8463524932       14.3482379403        3.3160811547  CLST         549          1.0000000000
      1647       549  TIP3  H2           -6.8097147572       14.0223034170        3.8466747495  CLST         549          1.0000000000
      1648       550  TIP3  OH2          -7.7084564723        4.3863615926       -4.1604216322  CLST         550          1.0000000000
      1649       550  TIP3  H1           -8.4275398852        3.7607323665       -4.2196466813  CLST         550          1.0000000000
      1650       550  TIP3  H2           -8.6508745367        4.5703884100       -3.4687311236  CLST         550          1.0000000000
      1651       551  TIP3  OH2          -2.0414316258      -13.4115269067       -3.2965713623  CLST         551          1.0000000000
      1652       551  TIP3  H1           -1.5079797952      -12.9128656543       -2.7251594286  CLST         551          1.0000000000
      1653       551  TIP3  H2           -2.6830469149      -13.2847603380       -2.5773787140  CLST         551          1.0000000000
      1654       552  TIP3  OH2          -2.2340480244       -7.7374850976       13.7842664383  CLST         552          1.0000000000
      1655       552  TIP3  H1           -2.3207688726       -8.6695529697       14.1679891757  CLST         552          1.0000000000
      1656       552  TIP3  H2           -1.4290741336       -7.8940176937       13.2833448607  CLST         552          1.0000000000
      1657       553  TIP3  OH2           8.6109608589      -13.9534901290        0.1325507477  CLST         553          1.0000000000
      1658       553  TIP3  H1            8.8610968578      -13.0988973959        0.3727305463  CLST         553          1.0000000000
      1659       553  TIP3  H2            8.5270773714      -14.4552413993        0.9142349713  CLST         553          1.0000000000
      1660       554  TIP3  OH2          -9.1513270198      -12.0638722933       -3.9520411635  CLST         554          1.0000000000
      1661       554  TIP3  H1           -9.0601505163      -11.5640591223       -3.1323307542  CLST         554          1.0000000000
      1662       554  TIP3  H2           -9.8905896465      -12.5605243147       -3.5025060474  CLST         554          1.0000000000
      1663       555  TIP3  OH2         -11.3969566470       -5.1687189600       -7.4704371067  CLST         555          1.0000000000
      1664       555  TIP3  H1          -11.1242649610       -4.1978155491       -7.4889319396  CLST         555          1.0000000000
      1665       555  TIP3  H2          -11.2924688885       -5.0708512835       -6.5334158902  CLST         555          1.0000000000
      1666       556  TIP3  OH2         -10.8264362985       11.2585696170       13.5883383523  CLST         556          1.0000000000
      1667       556  TIP3  H1          -11.3094366798       10.4710623179       13.8391754326  CLST         556          1.0000000000
      1668       556  TIP3  H2           -9.9651592454       10.8266833579       13.4043173734  CLST         556          1.0000000000
      1669       557  TIP3  OH2          -2.3507739834       -6.6234238598        1.2790047626  CLST         557          1.0000000000
      1670       557  TIP3  H1           -2.2201662635       -6.8465907663        2.2318126177  CLST         557          1.0000000000
      1671       557  TIP3  H2           -2.6914147850       -7.5192476630        1.0635958074  CLST         557          1.0000000000
      1672       558  TIP3  OH2         -10.5235260542        6.4257947756        2.9270650175  CLST         558          1.0000000000
      1673       558  TIP3  H1          -10.2025617620        5.7259108280        3.5612939123  CLST         558          1.0000000000
      1674       558  TIP3  H2           -9.9242787968        5.9214756662        2.3033027348  CLST         558          1.0000000000
      1675       559  TIP3  OH2           1.1892534226        2.3221928775        0.0097633569  CLST         559          1.0000000000
      1676       559  TIP3  H1            1.7319735326        2.3079243040       -0.7374304131  CLST         559          1.0000000000
      1677       559  TIP3  H2            1.4627498327        1.2934164470        0.0706907749  CLST         559          1.0000000000
      1678       560  TIP3  OH2          12.2530891915      -11.9691480601        1.2713541595  CLST         560          1.0000000000
      1679       560  TIP3  H1           12.4390033669      -12.8238943113        0.8064134032  CLST         560          1.0000000000
      1680       560  TIP3  H2           11.5295177732      -12.9486172274        1.3435676170  CLST         560          1.0000000000
      1681       561  TIP3  OH2         -12.8021866167        8.7009196381      -10.8090003208  CLST         561          1.0000000000
      1682       561  TIP3  H1          -11.7809622022        8.7628359222      -11.2443346804  CLST         561          1.0000000000
      1683       561  TIP3  H2          -12.0385425175        8.7260041035      -10.2022617905  CLST         561          1.0000000000
      1684       562  TIP3  OH2           9.9763898604        7.0169079954       13.1957977464  CLST         562          1.0000000000
      1685       562  TIP3  H1           10.3906112330        7.3741185864       13.9928425997  CLST         562          1.0000000000
      1686       562  TIP3  H2           10.1140979654        6.1919141994       13.6912267295  CLST         562          1.0000000000
      1687       563  TIP3  OH2           3.2071879985      -10.3208205199       -6.5255763664  CLST         563          1.0000000000
      1688       563  TIP3  H1            4.0259566024      -10.8380787002       -6.1975518289  CLST         563          1.0000000000
      1689       563  TIP3  H2            3.1350079088      -11.1109980047       -7.0184378121  CLST         563          1.0000000000
      1690       564  TIP3  OH2           4.9155618247      -13.4818463059       -2.9266534309  CLST         564          1.0000000000
      1691       564  TIP3  H1            5.4913289852      -13.7622373318       -3.5635276629  CLST         564          1.0000000000
      1692       564  TIP3  H2            4.1752758567      -13.3415526204       -3.4457923083  CLST         564          1.0000000000
      1693       565  TIP3  OH2           1.6051897949       12.0790222642        0.1376044650  CLST         565          1.0000000000
      1694       565  TIP3  H1            1.3393098189       11.1900407469       -0.1146129993  CLST         565          1.0000000000
      1695       565  TIP3  H2            2.5377417663       12.1011341804       -0.3449472889  CLST         565          1.0000000000
      1696       566  TIP3  OH2          -8.8110363451        5.6492448165        0.8753039743  CLST         566          1.0000000000
      1697       566  TIP3  H1           -8.8768835964        5.1637427787       -0.1874840513  CLST         566          1.0000000000
      1698       566  TIP3  H2           -8.8447009190        6.1393875162        0.2080728713  CLST         566          1.0000000000
      1699       567  TIP3  OH2          12.0586102918       -0.0337226565       -8.4940171367  CLST         567          1.0000000000
      1700       567  TIP3  H1           12.9037532290       -0.2781128602       -8.0827224159  CLST         567          1.0000000000
      1701       567  TIP3  H2           12.2214928152       -0.7250096968       -9.1826441147  CLST         567          1.0000000000
      1702       568  TIP3  OH2           9.0101207451       -6.9697963922       11.3915827092  CLST         568          1.0000000000
      1703       568  TIP3  H1            9.7930174349       -7.1936877131       11.8396740774  CLST         568          1.0000000000
      1704       568  TIP3  H2            9.3912128068       -6.0606251406       11.3670705034  CLST         568          1.0000000000
      1705       569  TIP3  OH2          -8.6693572705       -6.2498449580        3.7634946973  CLST         569          1.0000000000
      1706       569  TIP3  H1           -8.8780683279       -5.8507676902        2.9409154648  CLST         569          1.0000000000
      1707       569  TIP3  H2           -9.5210664907       -6.6079941478        3.6600615194  CLST         569          1.0000000000
      1708       570  TIP3  OH2           6.3967843884       11.8212748354       14.9517617159  CLST         570          1.0000000000
      1709       570  TIP3  H1            5.7396996254       11.6495246976       14.2417549690  CLST         570          1.0000000000
      1710       570  TIP3  H2            6.9972740824       12.0616512923       14.2260683166  CLST         570          1.0000000000
      1711       571  TIP3  OH2           9.6518861840        1.0611501329        4.6586425544  CLST         571          1.0000000000
      1712       571  TIP3  H1            8.9331476068        0.8481943728        5.2326384078  CLST         571          1.0000000000
      1713       571  TIP3  H2            9.3425243516        0.4996748486        3.9493306389  CLST         571          1.0000000000
      1714       572  TIP3  OH2           5.1735684674        0.3312417942        2.3443128617  CLST         572          1.0000000000
      1715       572  TIP3  H1            4.6805144807       -0.4998224382        2.1674725691  CLST         572          1.0000000000
      1716       572  TIP3  H2            5.6200671612       -0.3481334194        2.9471793938  CLST         572          1.0000000000
      1717       573  TIP3  OH2          -1.9304342303       -6.4123078912       -6.4899323571  CLST         573          1.0000000000
      1718       573  TIP3  H1           -1.4523853599       -7.1980140941       -6.8149626182  CLST         573          1.0000000000
      1719       573  TIP3  H2           -2.7368884858       -6.4276309399       -7.0784095776  CLST         573          1.0000000000
      1720       574  TIP3  OH2          -9.9885596425        0.9488631747        9.7487841592  CLST         574          1.0000000000
      1721       574  TIP3  H1           -9.5558288112        1.7871846321        9.4823616180  CLST         574          1.0000000000
      1722       574  TIP3  H2           -9.4788556826        0.4854714214        9.0105813483  CLST         574          1.0000000000
      1723       575  TIP3  OH2          -4.0427182701       10.7971669414        1.0019061531  CLST         575          1.0000000000
      1724       575  TIP3  H1           -4.1246468113       11.5390295017        0.3478497134  CLST         575          1.0000000000
      1725       575  TIP3  H2           -4.9358741747       11.0040960421        1.2982573142  CLST         575          1.0000000000
      1726       576  TIP3  OH2          -3.3527930325       -2.2808929066        6.3208812258  CLST         576          1.0000000000
      1727       576  TIP3  H1           -3.2458092755       -1.6247969977        5.7449785393  CLST         576          1.0000000000
      1728       576  TIP3  H2           -3.5865125940       -2.2367482789        5.1330996907  CLST         576          1.0000000000
      1729       577  TIP3  OH2         -11.9574664242       11.3884986428        8.5024922291  CLST         577          1.0000000000
      1730       577  TIP3  H1          -11.4408813086       12.1482978504        8.6135789431  CLST         577          1.0000000000
      1731       577  TIP3  H2          -12.1716759509       11.5947130489        7.6135038333  CLST         577          1.0000000000
      1732       578  TIP3  OH2          -1.6553694680        0.6589623959        5.0911150783  CLST         578          1.0000000000
      1733       578  TIP3  H1           -2.8043059649        0.7632246016        4.9304541459  CLST         578          1.0000000000
      1734       578  TIP3  H2           -2.0175285149        0.7167169106        5.9688544188  CLST         578          1.0000000000
      1735       579  TIP3  OH2          -6.3417203447       12.0056261047        1.6539617191  CLST         579          1.0000000000
      1736       579  TIP3  H1           -6.6198653686       12.9277343655        1.5991534408  CLST         579          1.0000000000
      1737       579  TIP3  H2           -7.0853537590       11.7263953948        1.1178889600  CLST         579          1.0000000000
      1738       580  TIP3  OH2          10.9766346534        3.7256434586       -3.4094745731  CLST         580          1.0000000000
      1739       580  TIP3  H1           11.0243539764        2.7775898686       -3.4376496036  CLST         580          1.0000000000
      1740       580  TIP3  H2           11.2396858560        3.4660050367       -2.4923897289  CLST         580          1.0000000000
      1741       581  TIP3  OH2          12.6961325186      -11.6185311341        3.5108883526  CLST         581          1.0000000000
      1742       581  TIP3  H1           13.3269837840      -11.7972948971        2.7085015088  CLST         581          1.0000000000
      1743       581  TIP3  H2           13.5428291238      -11.8087117627        3.9393980370  CLST         581          1.0000000000
      1744       582  TIP3  OH2           6.2372080156       10.7986006674       -7.0219573264  CLST         582          1.0000000000
      1745       582  TIP3  H1            5.5074803100       10.5220017624       -6.4996500827  CLST         582          1.0000000000
      1746       582  TIP3  H2            6.5489317969       11.1723823298       -6.1542657220  CLST         582          1.0000000000
      1747       583  TIP3  OH2          -2.5749753663        4.8061723023      -11.0616825671  CLST         583          1.0000000000
      1748       583  TIP3  H1           -2.7347339559        4.1185168321      -11.4994966158  CLST         583          1.0000000000
      1749       583  TIP3  H2           -1.8127172370        4.0663549282      -11.5686081811  CLST         583          1.0000000000
      1750       584  TIP3  OH2           2.4552451291       -4.1052103742       -9.8780828704  CLST         584          1.0000000000
      1751       584  TIP3  H1            3.0225956165       -4.7516990237       -9.5200750220  CLST         584          1.0000000000
      1752       584  TIP3  H2            3.3666946666       -3.7180799544      -10.0101764844  CLST         584          1.0000000000
      1753       585  TIP3  OH2         -14.1231712257        0.9047298199       -2.0257739494  CLST         585          1.0000000000
      1754       585  TIP3  H1          -14.0075580546        1.6821663242       -2.6364617302  CLST         585          1.0000000000
      1755       585  TIP3  H2          -14.9517617159        0.4665898146       -2.0883970864  CLST         585          1.0000000000
      1756       586  TIP3  OH2          -7.6154433996        8.5892213305       10.3949343717  CLST         586          1.0000000000
      1757       586  TIP3  H1           -7.2956755554        9.1593263806        9.6607082202  CLST         586          1.0000000000
      1758       586  TIP3  H2           -7.2651419625        7.9536049787        9.7327469558  CLST         586          1.0000000000
      1759       587  TIP3  OH2           4.2434566976        4.8118273387       -9.7560127626  CLST         587          1.0000000000
      1760       587  TIP3  H1            3.2985363844        5.0235918466       -9.6370736287  CLST         587          1.0000000000
      1761       587  TIP3  H2            4.0533144490        4.7869388980      -10.6857381154  CLST         587          1.0000000000
      1762       588  TIP3  OH2           5.0095043570       -9.7350749829      -13.9046581704  CLST         588          1.0000000000
      1763       588  TIP3  H1            4.1733335197       -9.9713784672      -14.2056323949  CLST         588          1.0000000000
      1764       588  TIP3  H2            4.7909519261       -9.4687851909      -13.0149275945  CLST         588          1.0000000000
      1765       589  TIP3  OH2           0.4959698219      -14.0871121548        3.5758473416  CLST         589          1.0000000000
      1766       589  TIP3  H1           -0.2071436925      -14.5769904339        3.1538152568  CLST         589          1.0000000000
      1767       589  TIP3  H2           -0.1453897733      -13.7534528301        4.2367169999  CLST         589          1.0000000000
      1768       590  TIP3  OH2           2.4127082187        1.8834980804       -8.5500726202  CLST         590          1.0000000000
      1769       590  TIP3  H1            1.9163813197        2.8731546226       -8.8854229595  CLST         590          1.0000000000
      1770       590  TIP3  H2            2.2803202391        1.9264774387       -9.5287393108  CLST         590          1.0000000000
      1771       591  TIP3  OH2         -12.7971491876        1.0764005158       -6.7127436472  CLST         591          1.0000000000
      1772       591  TIP3  H1          -11.8844005764        0.9030593170       -6.3997466998  CLST         591          1.0000000000
      1773       591  TIP3  H2          -12.6620943289        1.8589934066       -6.1786142054  CLST         591          1.0000000000
      1774       592  TIP3  OH2          -4.0001562033       -4.0057346225       -6.0715442548  CLST         592          1.0000000000
      1775       592  TIP3  H1           -3.3980344540       -3.6698292510       -6.7280802069  CLST         592          1.0000000000
      1776       592  TIP3  H2           -4.5400155129       -4.4543114060       -6.7763960689  CLST         592          1.0000000000
      1777       593  TIP3  OH2          -1.4196533512        5.5663398356       -4.6809225091  CLST         593          1.0000000000
      1778       593  TIP3  H1           -0.9936493662        6.3978787664       -4.3307497156  CLST         593          1.0000000000
      1779       593  TIP3  H2           -1.0302161660        5.6771532234       -5.5208442866  CLST         593          1.0000000000
      1780       594  TIP3  OH2          11.0884435517       10.5685387752       13.2711263157  CLST         594          1.0000000000
      1781       594  TIP3  H1           10.9499545834        9.7353187283       13.8752278816  CLST         594          1.0000000000
      1782       594  TIP3  H2           10.4406417099       10.5254552703       14.1931100224  CLST         594          1.0000000000
      1783       595  TIP3  OH2          -9.1350264658       13.4670028741        4.1516197107  CLST         595          1.0000000000
      1784       595  TIP3  H1           -9.6747314823       13.9432555056        3.5247000866  CLST         595          1.0000000000
      1785       595  TIP3  H2           -9.3831687680       12.6006085359        3.8150207487  CLST         595          1.0000000000
      1786       596  TIP3  OH2         -14.0687629566       -0.6136627006        8.8439906660  CLST         596          1.0000000000
      1787       596  TIP3  H1          -14.3180081127       -1.5112826570        9.0288357880  CLST         596          1.0000000000
      1788       596  TIP3  H2          -13.4320224055       -0.8218940156        8.1548299546  CLST         596          1.0000000000
      1789       597  TIP3  OH2          -2.9968028332       -5.3033493812       -4.3264114126  CLST         597          1.0000000000
      1790       597  TIP3  H1           -3.0279686942       -5.4550608013       -5.3040077870  CLST         597          1.0000000000
      1791       597  TIP3  H2           -3.1254705850       -4.3917619917       -4.6120384451  CLST         597          1.0000000000
      1792       598  TIP3  OH2          -8.1113547718       -9.5794515082       -9.1927435453  CLST         598          1.0000000000
      1793       598  TIP3  H1           -8.9440371141      -10.0647999079       -9.0284996725  CLST         598          1.0000000000
      1794       598  TIP3  H2           -8.6280969082       -9.3000859041       -9.9531867016  CLST         598          1.0000000000
      1795       599  TIP3  OH2          11.9232223259        0.1484078718      -12.8521314793  CLST         599          1.0000000000
      1796       599  TIP3  H1           11.9891717722        1.0811979413      -13.0011792631  CLST         599          1.0000000000
      1797       599  TIP3  H2           11.7203457755       -0.1381531506      -13.7278616413  CLST         599          1.0000000000
      1798       600  TIP3  OH2          14.1377826173       -9.5468461877        1.6315901578  CLST         600          1.0000000000
      1799       600  TIP3  H1           14.9517617159       -9.9508891005        1.3335899511  CLST         600          1.0000000000
      1800       600  TIP3  H2           13.6270769828      -10.1561093107        1.1264844697  CLST         600          1.0000000000
      1801       601  TIP3  OH2          -2.0560117654       13.3828828860       -8.4680538279  CLST         601          1.0000000000
      1802       601  TIP3  H1           -1.3866924272       13.1208912025       -7.8692016428  CLST         601          1.0000000000
      1803       601  TIP3  H2           -1.5252758975       14.0531782270       -8.7933894679  CLST         601          1.0000000000
      1804       602  TIP3  OH2          14.0865466992       -2.9551571557        8.4018232306  CLST         602          1.0000000000
      1805       602  TIP3  H1           13.4104857620       -2.4322425159        7.9354488657  CLST         602          1.0000000000
      1806       602  TIP3  H2           14.2006321752       -3.4589276053        7.5860411585  CLST         602          1.0000000000
      1807       603  TIP3  OH2          -8.1925234757       -9.5981780114      -12.0227751378  CLST         603          1.0000000000
      1808       603  TIP3  H1           -8.9506334270       -9.0739598814      -12.1242025161  CLST         603          1.0000000000
      1809       603  TIP3  H2           -8.5677500845      -10.5250515555      -12.0526858703  CLST         603          1.0000000000
      1810       604  TIP3  OH2           0.0005941773       -7.8576506366       12.1892356490  CLST         604          1.0000000000
      1811       604  TIP3  H1            0.4488259297       -7.0943101552       11.8070935998  CLST         604          1.0000000000
      1812       604  TIP3  H2            0.8592700504       -8.1137650291       12.5282858286  CLST         604          1.0000000000
      1813       605  TIP3  OH2           9.8391793736        7.9919711808        3.9161798286  CLST         605          1.0000000000
      1814       605  TIP3  H1            9.1948985216        8.4797557438        3.3971414047  CLST         605          1.0000000000
      1815       605  TIP3  H2           10.4595305482        8.6539859038        4.2678790492  CLST         605          1.0000000000
      1816       606  TIP3  OH2           0.7927375614        8.9663628903       -6.5715287793  CLST         606          1.0000000000
      1817       606  TIP3  H1            0.9820376845        9.8101009058       -6.1054218150  CLST         606          1.0000000000
      1818       606  TIP3  H2           -0.0930700912        9.3341100687       -6.4988344794  CLST         606          1.0000000000
      1819       607  TIP3  OH2          -5.0478132462        1.3549866643      -14.0870920876  CLST         607          1.0000000000
      1820       607  TIP3  H1           -5.9159654350        1.3402598933      -14.0530897210  CLST         607          1.0000000000
      1821       607  TIP3  H2           -5.6664821717        0.6497796050      -14.8258028670  CLST         607          1.0000000000
      1822       608  TIP3  OH2          -2.4587480524       -0.4724396845      -11.5080803087  CLST         608          1.0000000000
      1823       608  TIP3  H1           -1.7226171779        0.1968431683      -11.3370829855  CLST         608          1.0000000000
      1824       608  TIP3  H2           -2.5322494081        0.1429906197      -12.2760586882  CLST         608          1.0000000000
      1825       609  TIP3  OH2           3.9847941465        8.2774376955        2.8447047701  CLST         609          1.0000000000
      1826       609  TIP3  H1            4.4881032659        8.2691979567        3.6578831548  CLST         609          1.0000000000
      1827       609  TIP3  H2            4.2787010149        7.3473394154        2.8674311316  CLST         609          1.0000000000
      1828       610  TIP3  OH2          -7.9774806723       -9.0432548572       11.4285409121  CLST         610          1.0000000000
      1829       610  TIP3  H1           -7.2108665928       -9.6459664308       11.4297932051  CLST         610          1.0000000000
      1830       610  TIP3  H2           -7.4317669311       -8.5475581869       10.7539239094  CLST         610          1.0000000000
      1831       611  TIP3  OH2          14.0500691254       -4.3868027270        6.1224121569  CLST         611          1.0000000000
      1832       611  TIP3  H1           14.4661363117       -5.1696375179        5.7667798236  CLST         611          1.0000000000
      1833       611  TIP3  H2           14.0127670080       -4.0442342545        5.2833635337  CLST         611          1.0000000000
      1834       612  TIP3  OH2          -8.9092316047      -10.9464712551        6.3082501039  CLST         612          1.0000000000
      1835       612  TIP3  H1           -7.7707372875      -10.6428979142        6.1042768867  CLST         612          1.0000000000
      1836       612  TIP3  H2           -8.7913273347      -10.1215931142        5.8107219894  CLST         612          1.0000000000
      1837       613  TIP3  OH2           2.3495018656       -1.8862421764       14.6953204715  CLST         613          1.0000000000
      1838       613  TIP3  H1            2.1912703294       -2.7396012650       14.2297676163  CLST         613          1.0000000000
      1839       613  TIP3  H2            1.5889145645       -1.5175674050       14.1986402138  CLST         613          1.0000000000
      1840       614  TIP3  OH2           1.1162550840        4.4558044783       -8.8462977038  CLST         614          1.0000000000
      1841       614  TIP3  H1            1.7048877726        4.7445239196       -8.1116981526  CLST         614          1.0000000000
      1842       614  TIP3  H2            0.9807995631        5.4167292876       -8.9197685294  CLST         614          1.0000000000
      1843       615  TIP3  OH2           1.4124086880        4.3590132012        7.0338112189  CLST         615          1.0000000000
      1844       615  TIP3  H1            1.8344239067        5.1022529392        7.4410920835  CLST         615          1.0000000000
      1845       615  TIP3  H2            1.9727713781        4.6897297927        6.3130127325  CLST         615          1.0000000000
      1846       616  TIP3  OH2          -7.7580184860        4.1211643649       -7.1573132077  CLST         616          1.0000000000
      1847       616  TIP3  H1           -8.2276276498        4.0383134211       -7.9885532474  CLST         616          1.0000000000
      1848       616  TIP3  H2           -7.3839347013        4.9103781064       -7.6625604483  CLST         616          1.0000000000
      1849       617  TIP3  OH2          14.8095392774        2.2054240947       11.7167286490  CLST         617          1.0000000000
      1850       617  TIP3  H1           14.3728978235        1.2988720090       12.3642171882  CLST         617          1.0000000000
      1851       617  TIP3  H2           13.8761994345        2.1204250344       11.8279688051  CLST         617          1.0000000000
      1852       618  TIP3  OH2          -6.8395421786        3.1853824030        2.6585090997  CLST         618          1.0000000000
      1853       618  TIP3  H1           -6.6205173434        3.9298943936        2.0957026564  CLST         618          1.0000000000
      1854       618  TIP3  H2           -6.5737215957        3.5259973991        3.5242856315  CLST         618          1.0000000000
      1855       619  TIP3  OH2           1.1988297000        5.3600484707       -2.4144084439  CLST         619          1.0000000000
      1856       619  TIP3  H1            0.3917644106        4.8041592153       -2.4695378235  CLST         619          1.0000000000
      1857       619  TIP3  H2            0.6737232319        6.1628086952       -2.5002392909  CLST         619          1.0000000000
      1858       620  TIP3  OH2          -3.4026251777        8.6249140094       -5.7197459645  CLST         620          1.0000000000
      1859       620  TIP3  H1           -3.3592068601        7.9458170286       -5.0820766950  CLST         620          1.0000000000
      1860       620  TIP3  H2           -3.4506728719        8.0250441688       -6.4700341249  CLST         620          1.0000000000
      1861       621  TIP3  OH2           0.9597218797        7.2334444109       -8.7579941105  CLST         621          1.0000000000
      1862       621  TIP3  H1            1.2192749253        7.9603396477       -8.1903566408  CLST         621          1.0000000000
      1863       621  TIP3  H2            0.8678742239        7.9373376451       -9.5209348716  CLST         621          1.0000000000
      1864       622  TIP3  OH2           2.0926309801       10.4177908633        3.8033990959  CLST         622          1.0000000000
      1865       622  TIP3  H1            2.5979250439       10.0299219664        4.5251297082  CLST         622          1.0000000000
      1866       622  TIP3  H2            1.4060889155       10.0459810556        4.3788738499  CLST         622          1.0000000000
      1867       623  TIP3  OH2          -0.2970401575       12.2849671914        2.7600399526  CLST         623          1.0000000000
      1868       623  TIP3  H1            0.2334829409       11.9289254134        1.9814359838  CLST         623          1.0000000000
      1869       623  TIP3  H2            0.5840008851       12.1005054320        3.1562660663  CLST         623          1.0000000000
      1870       624  TIP3  OH2          -9.0241819688       -1.7800424819       -3.6947756668  CLST         624          1.0000000000
      1871       624  TIP3  H1           -8.7745301082       -1.2638920767       -4.4440670991  CLST         624          1.0000000000
      1872       624  TIP3  H2           -9.7607204339       -1.1842666796       -3.7695749605  CLST         624          1.0000000000
      1873       625  TIP3  OH2          -9.4956926952      -12.9152327969       -8.9157857383  CLST         625          1.0000000000
      1874       625  TIP3  H1           -9.9973381709      -12.4464654635       -8.1714966971  CLST         625          1.0000000000
      1875       625  TIP3  H2           -9.4325516958      -13.6564013217       -8.3415880910  CLST         625          1.0000000000
      1876       626  TIP3  OH2          12.8535693045       -5.6070827489       -2.7719609074  CLST         626          1.0000000000
      1877       626  TIP3  H1           12.1177538972       -6.0926638271       -3.1927543658  CLST         626          1.0000000000
      1878       626  TIP3  H2           13.3448912008       -5.8956579396       -3.5118989060  CLST         626          1.0000000000
      1879       627  TIP3  OH2          -0.8675885763      -11.2368563490        7.7199373381  CLST         627          1.0000000000
      1880       627  TIP3  H1            0.1672271044      -11.3494976355        8.1634022229  CLST         627          1.0000000000
      1881       627  TIP3  H2           -0.8161795861      -12.2176945308        7.9883136718  CLST         627          1.0000000000
      1882       628  TIP3  OH2           7.0003059193        8.9058134276       -8.7911816980  CLST         628          1.0000000000
      1883       628  TIP3  H1            6.9090694739        9.8690550424       -8.9591741576  CLST         628          1.0000000000
      1884       628  TIP3  H2            6.7877301920        9.2874997945       -7.8955648505  CLST         628          1.0000000000
      1885       629  TIP3  OH2          -9.7277606768       -0.2260588709       -9.8991271833  CLST         629          1.0000000000
      1886       629  TIP3  H1           -9.0920172762        0.4334606293      -10.1875547313  CLST         629          1.0000000000
      1887       629  TIP3  H2           -9.0654774946       -0.8456101861      -10.1128357025  CLST         629          1.0000000000
      1888       630  TIP3  OH2          11.8897973604       12.4445873886       11.7818916142  CLST         630          1.0000000000
      1889       630  TIP3  H1           10.7973168213       12.6957798691       11.7461166386  CLST         630          1.0000000000
      1890       630  TIP3  H2           11.0195905741       11.8995417748       12.1887892466  CLST         630          1.0000000000
      1891       631  TIP3  OH2         -12.0631734935      -11.4895076376      -11.3035526058  CLST         631          1.0000000000
      1892       631  TIP3  H1          -12.4720413335      -11.5276389219      -12.1608767727  CLST         631          1.0000000000
      1893       631  TIP3  H2          -12.4492440498      -12.4341434038      -11.2874531652  CLST         631          1.0000000000
      1894       632  TIP3  OH2          10.9171290607        2.5380537871        9.3184915079  CLST         632          1.0000000000
      1895       632  TIP3  H1           10.9846709867        2.1799591402       10.2164889944  CLST         632          1.0000000000
      1896       632  TIP3  H2           11.6380166615        1.8651638720        9.1714715150  CLST         632          1.0000000000
      1897       633  TIP3  OH2          -4.5610705852        6.4548195209       10.3235337240  CLST         633          1.0000000000
      1898       633  TIP3  H1           -4.3529624532        5.4847777453       10.3171913219  CLST         633          1.0000000000
      1899       633  TIP3  H2           -5.4317048116        6.1339574458       10.0371565754  CLST         633          1.0000000000
      1900       634  TIP3  OH2          -2.5520712486       -7.2023437979        6.6257984368  CLST         634          1.0000000000
      1901       634  TIP3  H1           -2.4111160598       -8.1306139232        6.9289095690  CLST         634          1.0000000000
      1902       634  TIP3  H2           -2.3377075710       -7.0253240655        7.5945986123  CLST         634          1.0000000000
      1903       635  TIP3  OH2           2.7018281679        2.7943656260       -2.0178420888  CLST         635          1.0000000000
      1904       635  TIP3  H1            2.1856267337        3.6506063234       -2.5961193272  CLST         635          1.0000000000
      1905       635  TIP3  H2            2.3503307878        2.5626353126       -2.7515570693  CLST         635          1.0000000000
      1906       636  TIP3  OH2           4.7447967065       -2.5679358421      -10.0539727099  CLST         636          1.0000000000
      1907       636  TIP3  H1            4.2957399409       -2.1852865181      -10.8958914001  CLST         636          1.0000000000
      1908       636  TIP3  H2            4.6109798051       -1.5673527660       -9.8384049782  CLST         636          1.0000000000
      1909       637  TIP3  OH2           3.7931143627       11.1682606391      -10.5221634018  CLST         637          1.0000000000
      1910       637  TIP3  H1            4.2077724580       11.7141829746       -9.7809561867  CLST         637          1.0000000000
      1911       637  TIP3  H2            3.4857126264       10.7109685058       -9.6733869433  CLST         637          1.0000000000
      1912       638  TIP3  OH2           8.8382828230      -12.1987180087       -7.1576338303  CLST         638          1.0000000000
      1913       638  TIP3  H1            8.4660571275      -12.7864086603       -7.8114545662  CLST         638          1.0000000000
      1914       638  TIP3  H2            9.4994441076      -12.1382354078       -7.8212832958  CLST         638          1.0000000000
      1915       639  TIP3  OH2           7.4082178190      -13.9174487061       -8.7193302945  CLST         639          1.0000000000
      1916       639  TIP3  H1            6.5188855870      -13.8734683959       -8.9563320302  CLST         639          1.0000000000
      1917       639  TIP3  H2            7.5682465786      -14.8007364672       -9.0128484365  CLST         639          1.0000000000
      1918       640  TIP3  OH2          -9.6918462570       -3.0504146830      -10.5018443634  CLST         640          1.0000000000
      1919       640  TIP3  H1           -8.9791913304       -2.5664632489       -9.6498266188  CLST         640          1.0000000000
      1920       640  TIP3  H2           -9.6187871976       -3.2802268392       -9.4907568601  CLST         640          1.0000000000
      1921       641  TIP3  OH2         -13.4608263929       -2.5796644557      -13.2156839129  CLST         641          1.0000000000
      1922       641  TIP3  H1          -13.4938245415       -3.5766897517      -13.4487836571  CLST         641          1.0000000000
      1923       641  TIP3  H2          -12.4834561338       -2.5070052952      -13.0967983141  CLST         641          1.0000000000
      1924       642  TIP3  OH2          -1.8208072074        1.9845931208       10.7531319337  CLST         642          1.0000000000
      1925       642  TIP3  H1           -0.9183542269        1.9661024980       11.2347336071  CLST         642          1.0000000000
      1926       642  TIP3  H2           -2.0360569062        1.5475968291       11.5910893558  CLST         642          1.0000000000
      1927       643  TIP3  OH2         -13.9260591311       -2.7370120287        3.3992918923  CLST         643          1.0000000000
      1928       643  TIP3  H1          -13.6259366301       -2.1262182064        4.1146933651  CLST         643          1.0000000000
      1929       643  TIP3  H2          -14.7911689366       -2.4930522232        3.7973263058  CLST         643          1.0000000000
      1930       644  TIP3  OH2          12.8064435491       -2.7894142476        0.9602998136  CLST         644          1.0000000000
      1931       644  TIP3  H1           13.4148239912       -2.0837229227        1.1218879570  CLST         644          1.0000000000
      1932       644  TIP3  H2           13.2336065437       -3.4304455097        0.4372467953  CLST         644          1.0000000000
      1933       645  TIP3  OH2          -6.9363921052        6.2955650034        9.0651918604  CLST         645          1.0000000000
      1934       645  TIP3  H1           -7.3217171228        6.3994454552        8.1836906525  CLST         645          1.0000000000
      1935       645  TIP3  H2           -6.8116520402        5.3345451393        8.9474832204  CLST         645          1.0000000000
      1936       646  TIP3  OH2           7.2024103781      -11.0280884948       11.9709926544  CLST         646          1.0000000000
      1937       646  TIP3  H1            6.2807569043      -11.1727055824       11.5993063017  CLST         646          1.0000000000
      1938       646  TIP3  H2            7.4356105053      -11.8467842679       11.5339760078  CLST         646          1.0000000000
      1939       647  TIP3  OH2         -12.6287397779       -9.1042716301       -7.2923766946  CLST         647          1.0000000000
      1940       647  TIP3  H1          -13.2872117631       -9.1499242064       -6.5601766626  CLST         647          1.0000000000
      1941       647  TIP3  H2          -12.0784808848       -9.4338740962       -6.6385314256  CLST         647          1.0000000000
      1942       648  TIP3  OH2         -13.6513204984        3.4791740915       -6.1919308555  CLST         648          1.0000000000
      1943       648  TIP3  H1          -14.4502711418        3.9722414948       -6.1658296994  CLST         648          1.0000000000
      1944       648  TIP3  H2          -13.7447758793        3.1711718713       -5.2824018216  CLST         648          1.0000000000
      1945       649  TIP3  OH2          -1.8551544607       -3.5495628590       -7.4351178308  CLST         649          1.0000000000
      1946       649  TIP3  H1           -0.8119792846       -3.1443138469       -7.8702365922  CLST         649          1.0000000000
      1947       649  TIP3  H2           -1.2587064239       -4.2882955363       -7.6641821399  CLST         649          1.0000000000
      1948       650  TIP3  OH2          -4.2503816711       -3.3284901725      -11.6252820159  CLST         650          1.0000000000
      1949       650  TIP3  H1           -3.3111364142       -3.1426367156      -11.4374637400  CLST         650          1.0000000000
      1950       650  TIP3  H2           -4.1837892198       -2.4051692344      -11.2971550311  CLST         650          1.0000000000
      1951       651  TIP3  OH2           1.1701234122       -4.1963148903       13.9914120125  CLST         651          1.0000000000
      1952       651  TIP3  H1            0.1886454036       -4.3837414580       13.9743842655  CLST         651          1.0000000000
      1953       651  TIP3  H2            1.2446922534       -4.2320868423       14.9517617159  CLST         651          1.0000000000
      1954       652  TIP3  OH2           2.0180448848       -8.9267729758       10.0578845299  CLST         652          1.0000000000
      1955       652  TIP3  H1            2.1814923188       -8.2202936044       10.7124208562  CLST         652          1.0000000000
      1956       652  TIP3  H2            2.0540203696       -8.2339951890        9.3669234662  CLST         652          1.0000000000
      1957       653  TIP3  OH2          13.5700532711        1.1081868546       -2.5168452870  CLST         653          1.0000000000
      1958       653  TIP3  H1           12.6093682460        0.9005566389       -2.3649880498  CLST         653          1.0000000000
      1959       653  TIP3  H2           13.4152893943        1.2346142429       -3.4273544327  CLST         653          1.0000000000
      1960       654  TIP3  OH2          -5.9066291100        8.9624929239       13.0100871592  CLST         654          1.0000000000
      1961       654  TIP3  H1           -4.9908270122        9.1409762778       13.2034186347  CLST         654          1.0000000000
      1962       654  TIP3  H2           -5.9573244459        8.4666762618       12.2755625934  CLST         654          1.0000000000
      1963       655  TIP3  OH2          -3.8570213372        1.4537081090       12.6111981230  CLST         655          1.0000000000
      1964       655  TIP3  H1           -4.1986456922        0.6355479314       12.1720516601  CLST         655          1.0000000000
      1965       655  TIP3  H2           -4.6573118229        1.2038027650       13.1999882437  CLST         655          1.0000000000
      1966       656  TIP3  OH2         -13.9311839311       -4.5498878938      -10.7986424483  CLST         656          1.0000000000
      1967       656  TIP3  H1          -14.7422057288       -3.9878328320      -10.9562555136  CLST         656          1.0000000000
      1968       656  TIP3  H2          -13.8589076018       -5.1091367182      -11.5896662307  CLST         656          1.0000000000
      1969       657  TIP3  OH2           4.4114576929       -0.9237538085        5.1605545178  CLST         657          1.0000000000
      1970       657  TIP3  H1            4.9452031349       -0.1144928095        5.3322205464  CLST         657          1.0000000000
      1971       657  TIP3  H2            3.7823930312       -0.4637410951        5.7843133658  CLST         657          1.0000000000
      1972       658  TIP3  OH2         -14.0853319061       -7.0555128548       -4.5301438740  CLST         658          1.0000000000
      1973       658  TIP3  H1          -13.8420700252       -6.4245260189       -5.2539084213  CLST         658          1.0000000000
      1974       658  TIP3  H2          -14.9517617159       -7.0098143750       -4.9741014742  CLST         658          1.0000000000
      1975       659  TIP3  OH2           9.3661487646      -13.1500927670        9.7442684534  CLST         659          1.0000000000
      1976       659  TIP3  H1            9.0007411223      -12.6635949783        8.9946264304  CLST         659          1.0000000000
      1977       659  TIP3  H2            8.4873732116      -13.6275571587        9.8433366321  CLST         659          1.0000000000
      1978       660  TIP3  OH2         -14.5846890927       -9.1256521684        6.2426662960  CLST         660          1.0000000000
      1979       660  TIP3  H1          -14.8687600392       -9.8489922735        6.8965938581  CLST         660          1.0000000000
      1980       660  TIP3  H2          -13.9195118936       -8.9211384222        6.9076292590  CLST         660          1.0000000000
      1981       661  TIP3  OH2           3.0983240188        1.2623650115       -4.9057356744  CLST         661          1.0000000000
      1982       661  TIP3  H1            2.4822512304        1.9387339910       -4.6334832164  CLST         661          1.0000000000
      1983       661  TIP3  H2            2.3717762744        0.6002506332       -5.0630127692  CLST         661          1.0000000000
      1984       662  TIP3  OH2          -8.6689189212       -5.0246920117        1.3772134537  CLST         662          1.0000000000
      1985       662  TIP3  H1           -9.3503240626       -5.3728625393        0.8301584686  CLST         662          1.0000000000
      1986       662  TIP3  H2           -9.0928634088       -4.1978868173        1.1666541741  CLST         662          1.0000000000
      1987       663  TIP3  OH2           6.0447137392       -1.9280860481        3.6326533544  CLST         663          1.0000000000
      1988       663  TIP3  H1            5.8565045197       -1.9827426440        4.5655830234  CLST         663          1.0000000000
      1989       663  TIP3  H2            5.7186013528       -2.8398304272        3.5869144827  CLST         663          1.0000000000
      1990       664  TIP3  OH2          10.3688085699      -14.1779570800        2.2392210191  CLST         664          1.0000000000
      1991       664  TIP3  H1            9.8022317763      -13.6625420469        2.7974652630  CLST         664          1.0000000000
      1992       664  TIP3  H2           10.0958177477      -14.9366260060        2.7232839102  CLST         664          1.0000000000
      1993       665  TIP3  OH2           9.4085318234       10.1321133905      -14.3682321438  CLST         665          1.0000000000
      1994       665  TIP3  H1            9.0192387355        9.2206402094      -14.2689710068  CLST         665          1.0000000000
      1995       665  TIP3  H2            8.6333492826       10.3005685565      -14.8613761495  CLST         665          1.0000000000
      1996       666  TIP3  OH2         -11.5746333892       -7.8511443515       -9.1191564931  CLST         666          1.0000000000
      1997       666  TIP3  H1          -11.6134407038       -7.6429159925       -8.1409467904  CLST         666          1.0000000000
      1998       666  TIP3  H2          -12.4474094056       -8.2642274623       -8.8228749029  CLST         666          1.0000000000
      1999       667  TIP3  OH2         -11.0636222575        5.4170904703        7.7647216379  CLST         667          1.0000000000
      2000       667  TIP3  H1          -11.3460650090        4.5375114787        8.5006244542  CLST         667          1.0000000000
      2001       667  TIP3  H2          -11.3835311124        5.7112454507        8.5160505989  CLST         667          1.0000000000
      2002       668  TIP3  OH2         -12.7619281746       -0.0633455810       -0.0839098980  CLST         668          1.0000000000
      2003       668  TIP3  H1          -13.3544162993        0.5040822375        0.3810379199  CLST         668          1.0000000000
      2004       668  TIP3  H2          -13.5489588349       -0.0800344886       -0.7185109775  CLST         668          1.0000000000
      2005       669  TIP3  OH2          -3.9264812918      -11.8469737125        5.1374753248  CLST         669          1.0000000000
      2006       669  TIP3  H1           -3.7797883042      -12.1052539550        4.2032508813  CLST         669          1.0000000000
      2007       669  TIP3  H2           -4.1707690560      -11.0519647894        4.5878195380  CLST         669          1.0000000000
      2008       670  TIP3  OH2          -6.2378184576       -2.2757251956        1.1785437424  CLST         670          1.0000000000
      2009       670  TIP3  H1           -6.7651582513       -1.4538992212        1.2229889944  CLST         670          1.0000000000
      2010       670  TIP3  H2           -6.3370049224       -2.1383540330        0.1996243847  CLST         670          1.0000000000
      2011       671  TIP3  OH2           3.9307385020       -9.4584799319      -10.9364152669  CLST         671          1.0000000000
      2012       671  TIP3  H1            3.4894065395       -9.3151945854      -10.1277674828  CLST         671          1.0000000000
      2013       671  TIP3  H2            4.8181140916       -9.0551291323      -10.9115026493  CLST         671          1.0000000000
      2014       672  TIP3  OH2          11.7321185839      -12.6679133132        9.0325032028  CLST         672          1.0000000000
      2015       672  TIP3  H1           11.1161683000      -12.8624302492        9.7664738608  CLST         672          1.0000000000
      2016       672  TIP3  H2           12.3149029620      -13.2918932989        9.5302859793  CLST         672          1.0000000000
      2017       673  TIP3  OH2           6.8536832546       -4.3681168478        6.9926289328  CLST         673          1.0000000000
      2018       673  TIP3  H1            7.5271733599       -3.7263721034        6.7568325743  CLST         673          1.0000000000
      2019       673  TIP3  H2            7.5527868339       -4.7047808337        7.5950727056  CLST         673          1.0000000000
      2020       674  TIP3  OH2          -4.1719828495       -0.7199648796        2.7183599373  CLST         674          1.0000000000
      2021       674  TIP3  H1           -3.5180843422       -1.4282047166        3.3154088789  CLST         674          1.0000000000
      2022       674  TIP3  H2           -4.0587118887       -1.4822812355        2.4456761444  CLST         674          1.0000000000
      2023       675  TIP3  OH2          -9.3379815116        2.1850171175       -3.4461336331  CLST         675          1.0000000000
      2024       675  TIP3  H1           -8.7671401901        1.4531205919       -3.0424052823  CLST         675          1.0000000000
      2025       675  TIP3  H2           -9.9749345770        2.1226102189       -2.7371250566  CLST         675          1.0000000000
      2026       676  TIP3  OH2         -13.6278023299       -0.3047065422      -13.5525311126  CLST         676          1.0000000000
      2027       676  TIP3  H1          -14.1103316746       -1.1498911686      -13.5278939942  CLST         676          1.0000000000
      2028       676  TIP3  H2          -13.6761478457       -0.5085419302      -12.5997139784  CLST         676          1.0000000000
      2029       677  TIP3  OH2           1.7040272092      -12.1937968220        2.3654341991  CLST         677          1.0000000000
      2030       677  TIP3  H1            1.8048736431      -12.2067995982        1.4427361504  CLST         677          1.0000000000
      2031       677  TIP3  H2            1.4698721093      -13.0807026453        2.4851705250  CLST         677          1.0000000000
      2032       678  TIP3  OH2          11.4700630940       -7.3056478006       -8.3412889671  CLST         678          1.0000000000
      2033       678  TIP3  H1           12.2814901995       -7.8047784029       -8.5177157498  CLST         678          1.0000000000
      2034       678  TIP3  H2           12.0551394236       -6.5755333489       -8.5389295174  CLST         678          1.0000000000
      2035       679  TIP3  OH2           7.4135037407       -9.9107116501      -14.3209636689  CLST         679          1.0000000000
      2036       679  TIP3  H1            7.0357490972       -9.0148159146      -14.5448021399  CLST         679          1.0000000000
      2037       679  TIP3  H2            6.5742378982      -10.2437599686      -14.5484541208  CLST         679          1.0000000000
      2038       680  TIP3  OH2           9.6598143509       -8.0137101034       -2.0511434973  CLST         680          1.0000000000
      2039       680  TIP3  H1            9.8429693620       -8.9132629571       -2.2868070259  CLST         680          1.0000000000
      2040       680  TIP3  H2            9.1423423861       -7.8399201782       -2.8405084346  CLST         680          1.0000000000
      2041       681  TIP3  OH2           7.6384534240        9.4660910024       11.2506284024  CLST         681          1.0000000000
      2042       681  TIP3  H1            7.8764980212        9.0290293844       10.4438595634  CLST         681          1.0000000000
      2043       681  TIP3  H2            8.5354861288        9.8606510162       11.0673559618  CLST         681          1.0000000000
      2044       682  TIP3  OH2           7.8340417016       14.1682815549        1.8097459715  CLST         682          1.0000000000
      2045       682  TIP3  H1            7.3024703947       13.7278286557        1.1597619608  CLST         682          1.0000000000
      2046       682  TIP3  H2            7.1677123062       14.6228214602        2.2690313400  CLST         682          1.0000000000
      2047       683  TIP3  OH2           3.4314758690       11.7704429841      -14.9517617159  CLST         683          1.0000000000
      2048       683  TIP3  H1            3.2720620136       11.9510678237      -14.0157159259  CLST         683          1.0000000000
      2049       683  TIP3  H2            3.7201008016       10.9326843997      -14.6059258587  CLST         683          1.0000000000
      2050       684  TIP3  OH2          12.1855189705        2.7824797868      -12.6122312979  CLST         684          1.0000000000
      2051       684  TIP3  H1           11.6501009437        2.8704400587      -11.8160123345  CLST         684          1.0000000000
      2052       684  TIP3  H2           12.9281340277        2.9856341340      -12.1265109551  CLST         684          1.0000000000
      2053       685  TIP3  OH2           3.7369129939       13.0957377295        2.4162885333  CLST         685          1.0000000000
      2054       685  TIP3  H1            3.5882785920       12.1394596873        2.2604329596  CLST         685          1.0000000000
      2055       685  TIP3  H2            3.2730254939       13.2619323260        1.5924714963  CLST         685          1.0000000000
      2056       686  TIP3  OH2          -1.7695066293      -11.8950578122       -5.4600379428  CLST         686          1.0000000000
      2057       686  TIP3  H1           -2.0674378606      -12.1848648605       -4.5713475548  CLST         686          1.0000000000
      2058       686  TIP3  H2           -2.4759465623      -12.5143445715       -5.7674681290  CLST         686          1.0000000000
      2059       687  TIP3  OH2           2.0081452312       11.2062942660       -5.7596068319  CLST         687          1.0000000000
      2060       687  TIP3  H1            2.3694473580       11.3638532862       -4.7234095755  CLST         687          1.0000000000
      2061       687  TIP3  H2            3.0629662722       11.2494689841       -5.4336419382  CLST         687          1.0000000000
      2062       688  TIP3  OH2          -4.7635312338       -1.1818813073      -10.2005432025  CLST         688          1.0000000000
      2063       688  TIP3  H1           -4.1198518048       -0.6054026928       -9.3739405720  CLST         688          1.0000000000
      2064       688  TIP3  H2           -3.9302480132       -0.6594726702      -10.2867488838  CLST         688          1.0000000000
      2065       689  TIP3  OH2         -11.6019867142       -2.4468611277       -7.4493701784  CLST         689          1.0000000000
      2066       689  TIP3  H1          -12.2986251429       -2.3040643052       -6.7618604459  CLST         689          1.0000000000
      2067       689  TIP3  H2          -12.0995952425       -1.8840911133       -8.0772963372  CLST         689          1.0000000000
      2068       690  TIP3  OH2           9.1850181781      -12.4753192511        3.9818141883  CLST         690          1.0000000000
      2069       690  TIP3  H1            9.4771421234      -12.4153924532        4.9272289050  CLST         690          1.0000000000
      2070       690  TIP3  H2            9.7791184174      -11.7852859512        3.7510688102  CLST         690          1.0000000000
      2071       691  TIP3  OH2          -0.6206976958       10.1626692506       13.4752754607  CLST         691          1.0000000000
      2072       691  TIP3  H1           -0.5721598386       11.0637195017       13.2566766011  CLST         691          1.0000000000
      2073       691  TIP3  H2           -0.2703494033       10.3152769101       14.3714354100  CLST         691          1.0000000000
      2074       692  TIP3  OH2           1.4825792746       -6.7427502329        8.5520818593  CLST         692          1.0000000000
      2075       692  TIP3  H1            0.5894320551       -7.1140590745        8.2992480758  CLST         692          1.0000000000
      2076       692  TIP3  H2            0.9992127669       -5.9738724938        8.8471051796  CLST         692          1.0000000000
      2077       693  TIP3  OH2          -9.4787362133       -4.3238987236       -2.9509372760  CLST         693          1.0000000000
      2078       693  TIP3  H1           -8.6869829085       -4.0816555312       -2.4450582410  CLST         693          1.0000000000
      2079       693  TIP3  H2           -9.3624944532       -3.5677679940       -3.5814013764  CLST         693          1.0000000000
      2080       694  TIP3  OH2          -1.6001433760       11.6863442149        5.7467269125  CLST         694          1.0000000000
      2081       694  TIP3  H1           -2.0943982472       12.4785465981        5.5346983426  CLST         694          1.0000000000
      2082       694  TIP3  H2           -0.8823544496       12.4169758564        5.5418435237  CLST         694          1.0000000000
      2083       695  TIP3  OH2           1.5241926563       10.5832161998        7.8702895058  CLST         695          1.0000000000
      2084       695  TIP3  H1            1.1631283970       10.2609950944        6.9877447518  CLST         695          1.0000000000
      2085       695  TIP3  H2            0.6994402390       10.2784832061        8.2045316691  CLST         695          1.0000000000
      2086       696  TIP3  OH2          -3.9668958617        3.1960759170       -6.1784106705  CLST         696          1.0000000000
      2087       696  TIP3  H1           -3.2296615859        3.3034891247       -6.7291670847  CLST         696          1.0000000000
      2088       696  TIP3  H2           -3.8610628463        3.8908754176       -5.5490711987  CLST         696          1.0000000000
      2089       697  TIP3  OH2           2.8242746331        5.6099449804       11.8824831496  CLST         697          1.0000000000
      2090       697  TIP3  H1            2.2444626887        6.0038458900       11.3006597399  CLST         697          1.0000000000
      2091       697  TIP3  H2            3.4469145563        5.1737570523       11.3621439267  CLST         697          1.0000000000
      2092       698  TIP3  OH2          -3.4368644756        4.8156881234       -1.0154933070  CLST         698          1.0000000000
      2093       698  TIP3  H1           -4.0652396494        3.9978019035       -1.4684864078  CLST         698          1.0000000000
      2094       698  TIP3  H2           -4.4633155993        4.9056515008       -1.1873551257  CLST         698          1.0000000000
      2095       699  TIP3  OH2          -1.3740175188       -4.6471698172        3.4890927511  CLST         699          1.0000000000
      2096       699  TIP3  H1           -2.3021903500       -4.4340717168        3.3937548556  CLST         699          1.0000000000
      2097       699  TIP3  H2           -1.1287144632       -4.4736344760        2.5071517593  CLST         699          1.0000000000
      2098       700  TIP3  OH2          -4.9865621619       -8.1652516584        8.8450551580  CLST         700          1.0000000000
      2099       700  TIP3  H1           -5.3281436631       -7.8993217657        7.9763200923  CLST         700          1.0000000000
      2100       700  TIP3  H2           -4.2642696311       -8.6793307395        8.5551796753  CLST         700          1.0000000000
      2101       701  TIP3  OH2         -13.9883129000       10.4743385948        0.2082227432  CLST         701          1.0000000000
      2102       701  TIP3  H1          -13.7261909138        9.6547571043       -0.3510008205  CLST         701          1.0000000000
      2103       701  TIP3  H2          -14.9507607192       10.4118039441        0.0483417812  CLST         701          1.0000000000
      2104       702  TIP3  OH2          -5.5412149630       -9.5720326574      -12.5521551868  CLST         702          1.0000000000
      2105       702  TIP3  H1           -5.3405934722       -9.7012888806      -11.5502249368  CLST         702          1.0000000000
      2106       702  TIP3  H2           -6.4761556452       -9.6169330949      -12.2942772559  CLST         702          1.0000000000
      2107       703  TIP3  OH2           3.6446403046        6.2452662053       -4.0674079848  CLST         703          1.0000000000
      2108       703  TIP3  H1            2.7989362136        6.4706146121       -3.6015042125  CLST         703          1.0000000000
      2109       703  TIP3  H2            3.5976165685        7.2878417499       -3.9238977600  CLST         703          1.0000000000
      2110       704  TIP3  OH2         -10.1513830727        5.3294810377       11.7846864798  CLST         704          1.0000000000
      2111       704  TIP3  H1          -10.1573425562        6.1817753742       12.1818856697  CLST         704          1.0000000000
      2112       704  TIP3  H2          -10.0692193634        5.7181158270       10.9309120270  CLST         704          1.0000000000
      2113       705  TIP3  OH2          -1.1410706717       -8.9207356346       -7.4116012117  CLST         705          1.0000000000
      2114       705  TIP3  H1           -0.8078508021       -9.8043683538       -7.5697687601  CLST         705          1.0000000000
      2115       705  TIP3  H2           -0.6070719276       -8.7301546649       -8.1819040063  CLST         705          1.0000000000
      2116       706  TIP3  OH2          -2.1668983354       -1.7110512816        4.2896796921  CLST         706          1.0000000000
      2117       706  TIP3  H1           -1.5235516126       -1.0320406129        4.4788689127  CLST         706          1.0000000000
      2118       706  TIP3  H2           -1.3579916858       -2.2729663343        4.3935714479  CLST         706          1.0000000000
      2119       707  TIP3  OH2           8.6481307706       10.8092789316        7.5285455526  CLST         707          1.0000000000
      2120       707  TIP3  H1            8.5620243844       11.1332147906        6.4763633229  CLST         707          1.0000000000
      2121       707  TIP3  H2            7.7664441237       10.6483549898        6.8139745003  CLST         707          1.0000000000
      2122       708  TIP3  OH2          -1.0003865701       -7.5205010544      -12.3041682551  CLST         708          1.0000000000
      2123       708  TIP3  H1           -1.8682879260       -7.7848819013      -12.5471563533  CLST         708          1.0000000000
      2124       708  TIP3  H2           -0.9897558970       -7.4633105592      -13.2737712545  CLST         708          1.0000000000
      2125       709  TIP3  OH2          -6.1486903134       14.2895940862        0.5712779975  CLST         709          1.0000000000
      2126       709  TIP3  H1           -5.1817454048       14.2742041930        0.9207913447  CLST         709          1.0000000000
      2127       709  TIP3  H2           -6.2529271732       14.7422512948        1.4377076127  CLST         709          1.0000000000
      2128       710  TIP3  OH2          -0.8113888436       13.9705935578      -10.3710026187  CLST         710          1.0000000000
      2129       710  TIP3  H1           -0.3577027523       13.2506732099      -10.7629730932  CLST         710          1.0000000000
      2130       710  TIP3  H2           -1.5189268825       13.3170574256      -10.4756962935  CLST         710          1.0000000000
      2131       711  TIP3  OH2          11.7174302530      -11.1917382183      -11.0865911908  CLST         711          1.0000000000
      2132       711  TIP3  H1           11.9521688276      -12.0719666216      -11.1148646376  CLST         711          1.0000000000
      2133       711  TIP3  H2           12.5466971817      -10.9488794103      -11.2641642692  CLST         711          1.0000000000
      2134       712  TIP3  OH2          -3.3528130118      -10.9704243307       11.4923042472  CLST         712          1.0000000000
      2135       712  TIP3  H1           -3.7502817534      -10.3366474177       10.9351147661  CLST         712          1.0000000000
      2136       712  TIP3  H2           -2.5100611297      -10.6964745928       11.1645678296  CLST         712          1.0000000000
      2137       713  TIP3  OH2           7.0080345186        0.4613055444        6.4681182810  CLST         713          1.0000000000
      2138       713  TIP3  H1            7.5962637644        0.4760290080        7.2866760610  CLST         713          1.0000000000
      2139       713  TIP3  H2            7.3462789060       -0.4747833493        6.4926731992  CLST         713          1.0000000000
      2140       714  TIP3  OH2           5.1408143083       12.2600463235        4.5915598855  CLST         714          1.0000000000
      2141       714  TIP3  H1            4.6332730394       12.6295156782        3.8327147758  CLST         714          1.0000000000
      2142       714  TIP3  H2            4.2466472013       12.6073197426        4.9250346367  CLST         714          1.0000000000
      2143       715  TIP3  OH2          -9.2295981828       -9.4581758484        1.4713724342  CLST         715          1.0000000000
      2144       715  TIP3  H1           -9.8333807766       -8.7301972779        1.7581629817  CLST         715          1.0000000000
      2145       715  TIP3  H2           -9.6826887162       -9.9423634910        2.2171685975  CLST         715          1.0000000000
      2146       716  TIP3  OH2         -13.7856892574      -13.1510056855        0.1931465087  CLST         716          1.0000000000
      2147       716  TIP3  H1          -13.4263824822      -13.1958741647       -0.6729591479  CLST         716          1.0000000000
      2148       716  TIP3  H2          -14.1097535250      -12.1620244504       -0.2972318265  CLST         716          1.0000000000
      2149       717  TIP3  OH2          -6.2470914623      -12.0962081715        2.4630934148  CLST         717          1.0000000000
      2150       717  TIP3  H1           -6.2403196518      -11.3547340306        1.8556118363  CLST         717          1.0000000000
      2151       717  TIP3  H2           -7.0872208637      -12.2462236473        1.9936280011  CLST         717          1.0000000000
      2152       718  TIP3  OH2         -10.9753816546        7.4475953905       13.1883722527  CLST         718          1.0000000000
      2153       718  TIP3  H1          -11.6092989836        8.1082133892       13.5663381812  CLST         718          1.0000000000
      2154       718  TIP3  H2          -10.2556112815        8.1307073888       13.1472655264  CLST         718          1.0000000000
      2155       719  TIP3  OH2          10.3133419139       -7.6070502781        2.8014983341  CLST         719          1.0000000000
      2156       719  TIP3  H1           11.2944372577       -7.7854970430        3.1009219114  CLST         719          1.0000000000
      2157       719  TIP3  H2           10.7044124796       -7.2514938055        2.0180684959  CLST         719          1.0000000000
      2158       720  TIP3  OH2          -4.7393720502       13.0503745450       -8.7277378630  CLST         720          1.0000000000
      2159       720  TIP3  H1           -3.7764523668       13.0227718774       -8.7052155735  CLST         720          1.0000000000
      2160       720  TIP3  H2           -4.7162357204       13.4675766859       -7.8548415048  CLST         720          1.0000000000
      2161       721  TIP3  OH2           4.1734725557       -5.9917042864       -9.9438632731  CLST         721          1.0000000000
      2162       721  TIP3  H1            4.6812327599       -5.6125902272       -8.9538632942  CLST         721          1.0000000000
      2163       721  TIP3  H2            5.2407208913       -6.2428698953       -9.5043086618  CLST         721          1.0000000000
      2164       722  TIP3  OH2          10.3548439841       -2.7413686882        2.1089396358  CLST         722          1.0000000000
      2165       722  TIP3  H1            9.8301808398       -3.0655800005        1.3411073551  CLST         722          1.0000000000
      2166       722  TIP3  H2           11.2326389490       -2.7506114259        1.7354134119  CLST         722          1.0000000000
      2167       723  TIP3  OH2           0.7104101724       13.2729686950        6.0353642578  CLST         723          1.0000000000
      2168       723  TIP3  H1            0.9484430999       14.1725794236        5.6293559621  CLST         723          1.0000000000
      2169       723  TIP3  H2            1.6136683411       12.9128178588        6.1147853748  CLST         723          1.0000000000
      2170       724  TIP3  OH2           8.0915599921       -8.2821496982       -4.2235749067  CLST         724          1.0000000000
      2171       724  TIP3  H1            7.7212328090       -8.7992177322       -4.8156044286  CLST         724          1.0000000000
      2172       724  TIP3  H2            8.3769881090       -8.2180094647       -5.3368261424  CLST         724          1.0000000000
      2173       725  TIP3  OH2          -0.8485804833       -0.4018235034        1.9631914399  CLST         725          1.0000000000
      2174       725  TIP3  H1           -1.7151046789       -0.6134147792        2.2661764109  CLST         725          1.0000000000
      2175       725  TIP3  H2           -1.2093694916        0.1003037379        1.2521038580  CLST         725          1.0000000000
      2176       726  TIP3  OH2         -14.1877261340       10.7637436980        6.0918833711  CLST         726          1.0000000000
      2177       726  TIP3  H1          -14.9470947208       10.9281823125        5.5575842418  CLST         726          1.0000000000
      2178       726  TIP3  H2          -13.7959960390       11.6544894737        5.8243608505  CLST         726          1.0000000000
      2179       727  TIP3  OH2          -4.1636017433      -13.6068604140       -0.2977353309  CLST         727          1.0000000000
      2180       727  TIP3  H1           -3.6482208737      -13.6685451363        0.5436474938  CLST         727          1.0000000000
      2181       727  TIP3  H2           -4.0398631429      -12.6617046945        0.3246592608  CLST         727          1.0000000000
      2182       728  TIP3  OH2          -8.0511486377        3.5436328346       -0.6780337181  CLST         728          1.0000000000
      2183       728  TIP3  H1           -7.5567609117        2.6807275326       -0.5348658880  CLST         728          1.0000000000
      2184       728  TIP3  H2           -8.8376288555        2.9027843542       -0.6538617521  CLST         728          1.0000000000
      2185       729  TIP3  OH2          10.4935461258      -10.6044368148        2.7945843465  CLST         729          1.0000000000
      2186       729  TIP3  H1           11.0725186061      -10.1755245051        3.4614273392  CLST         729          1.0000000000
      2187       729  TIP3  H2           11.3071110144      -10.9443943844        2.3758215084  CLST         729          1.0000000000
      2188       730  TIP3  OH2          -4.3977033541       10.9738480471       -5.0307239460  CLST         730          1.0000000000
      2189       730  TIP3  H1           -4.5514837274       10.1303234623       -5.5359534526  CLST         730          1.0000000000
      2190       730  TIP3  H2           -5.2354727113       11.2504963581       -5.3141804194  CLST         730          1.0000000000
      2191       731  TIP3  OH2          12.9907229548       12.8460428859       -4.5794263675  CLST         731          1.0000000000
      2192       731  TIP3  H1           13.5964233606       13.1617013053       -5.1903312009  CLST         731          1.0000000000
      2193       731  TIP3  H2           12.6866540229       12.1408097845       -5.1544837839  CLST         731          1.0000000000
      2194       732  TIP3  OH2          -2.9623876864       -1.3649325463       -2.0353821230  CLST         732          1.0000000000
      2195       732  TIP3  H1           -3.5908827399       -1.1381500872       -1.3158223874  CLST         732          1.0000000000
      2196       732  TIP3  H2           -3.9036816268       -0.8842688881       -2.5452402903  CLST         732          1.0000000000
      2197       733  TIP3  OH2           5.5845878669        2.4349883052       12.7573852132  CLST         733          1.0000000000
      2198       733  TIP3  H1            5.2985207924        1.6227490006       12.3390969082  CLST         733          1.0000000000
      2199       733  TIP3  H2            4.6103151270        2.3634754316       13.0372160429  CLST         733          1.0000000000
      2200       734  TIP3  OH2           8.4495441417       -2.1098560005        6.0587145313  CLST         734          1.0000000000
      2201       734  TIP3  H1            8.3144279653       -2.7493888252        5.3357029034  CLST         734          1.0000000000
      2202       734  TIP3  H2            9.4363489338       -2.2060232482        5.9619318505  CLST         734          1.0000000000
      2203       735  TIP3  OH2         -10.6840023330      -12.4834357495        1.0270612499  CLST         735          1.0000000000
      2204       735  TIP3  H1          -10.7443492388      -11.7693942084        1.7571105966  CLST         735          1.0000000000
      2205       735  TIP3  H2          -11.6322289349      -12.5219977474        1.0353517964  CLST         735          1.0000000000
      2206       736  TIP3  OH2          13.4139614451        2.7747221190        2.8198226342  CLST         736          1.0000000000
      2207       736  TIP3  H1           13.6060487786        2.5190312975        1.8566499794  CLST         736          1.0000000000
      2208       736  TIP3  H2           12.8465474825        1.9951706424        2.7226779167  CLST         736          1.0000000000
      2209       737  TIP3  OH2          11.5184522847       -2.0592879392        7.8035283011  CLST         737          1.0000000000
      2210       737  TIP3  H1           11.3178603303       -2.2697141837        6.8746588758  CLST         737          1.0000000000
      2211       737  TIP3  H2           11.5958165161       -1.0684335179        7.6558488486  CLST         737          1.0000000000
      2212       738  TIP3  OH2          10.2300510090        1.2196415734       14.4993779448  CLST         738          1.0000000000
      2213       738  TIP3  H1            9.4266214415        1.0684952984       14.0911199083  CLST         738          1.0000000000
      2214       738  TIP3  H2           10.3623368779        0.3158748375       14.6139055279  CLST         738          1.0000000000
      2215       739  TIP3  OH2         -13.0359027911        1.3839701059       10.3285996470  CLST         739          1.0000000000
      2216       739  TIP3  H1          -13.9068028317        1.5658421794       10.6585133911  CLST         739          1.0000000000
      2217       739  TIP3  H2          -13.4052669711        0.5739476406        9.9256874738  CLST         739          1.0000000000
      2218       740  TIP3  OH2           6.1090120439      -14.1309988317       -5.1808385883  CLST         740          1.0000000000
      2219       740  TIP3  H1            5.6772372366      -14.9517617159       -5.5606525456  CLST         740          1.0000000000
      2220       740  TIP3  H2            6.8524398462      -14.4546964325       -5.7371952500  CLST         740          1.0000000000
      2221       741  TIP3  OH2          11.8590586208        5.0323482246        9.2939389123  CLST         741          1.0000000000
      2222       741  TIP3  H1           12.7216574173        4.3860924344        8.8905181770  CLST         741          1.0000000000
      2223       741  TIP3  H2           11.9323289447        3.9267042978        9.2776326581  CLST         741          1.0000000000
      2224       742  TIP3  OH2           8.6031799913       -9.6029697905       -6.4850011127  CLST         742          1.0000000000
      2225       742  TIP3  H1            8.8262090556      -10.5671839514       -6.4647926824  CLST         742          1.0000000000
      2226       742  TIP3  H2            7.9572799191       -9.9171293573       -7.1038201653  CLST         742          1.0000000000
      2227       743  TIP3  OH2          -7.5633198852       -0.2964112702      -10.9310612068  CLST         743          1.0000000000
      2228       743  TIP3  H1           -6.7018940274        0.3915523988      -10.6114746965  CLST         743          1.0000000000
      2229       743  TIP3  H2           -6.7394809624       -0.7403415033      -10.7392888807  CLST         743          1.0000000000
      2230       744  TIP3  OH2          -5.9528038078        3.7841014923        5.1332117847  CLST         744          1.0000000000
      2231       744  TIP3  H1           -5.1907816305        3.3410440379        5.5806193227  CLST         744          1.0000000000
      2232       744  TIP3  H2           -5.7073981067        4.6287319284        5.5360627908  CLST         744          1.0000000000
      2233       745  TIP3  OH2           0.3614793041       -8.4289754710        6.8754612404  CLST         745          1.0000000000
      2234       745  TIP3  H1            0.4713006879       -9.4353088239        7.3480492686  CLST         745          1.0000000000
      2235       745  TIP3  H2            1.1081455876       -8.7174853226        6.9890504762  CLST         745          1.0000000000
      2236       746  TIP3  OH2          -8.0535669102       -4.4990460410       -5.7601563452  CLST         746          1.0000000000
      2237       746  TIP3  H1           -8.1040119266       -5.2124921388       -6.4113011244  CLST         746          1.0000000000
      2238       746  TIP3  H2           -8.3992152909       -3.9074154526       -6.4480750999  CLST         746          1.0000000000
      2239       747  TIP3  OH2          11.1309359739       11.7497851427        2.0767791933  CLST         747          1.0000000000
      2240       747  TIP3  H1           10.7807902238       12.2611383542        2.8102767696  CLST         747          1.0000000000
      2241       747  TIP3  H2           11.4553117885       11.1936077111        2.8437383639  CLST         747          1.0000000000
      2242       748  TIP3  OH2           3.3654321109        5.2949263811        8.3626871025  CLST         748          1.0000000000
      2243       748  TIP3  H1            3.8687902633        5.3614547171        9.1285082478  CLST         748          1.0000000000
      2244       748  TIP3  H2            3.4687181954        6.2415656962        8.3478656661  CLST         748          1.0000000000
      2245       749  TIP3  OH2          10.8463034753        9.4579347707        6.5920465143  CLST         749          1.0000000000
      2246       749  TIP3  H1           10.5582673914        8.7809684416        7.1119095034  CLST         749          1.0000000000
      2247       749  TIP3  H2           10.2415079893        9.6577827795        7.5603706197  CLST         749          1.0000000000
      2248       750  TIP3  OH2         -14.0569735038       12.1362922092       -7.9109899423  CLST         750          1.0000000000
      2249       750  TIP3  H1          -14.9517617159       11.6694418120       -7.9994316620  CLST         750          1.0000000000
      2250       750  TIP3  H2          -13.9642631228       11.7446037741       -8.7627347063  CLST         750          1.0000000000
      2251       751  TIP3  OH2           8.6988429620        4.5475883718       -4.2600106443  CLST         751          1.0000000000
      2252       751  TIP3  H1            8.1676245652        3.7639034686       -4.5377438374  CLST         751          1.0000000000
      2253       751  TIP3  H2            9.2542823581        3.8999282344       -3.8105200670  CLST         751          1.0000000000
      2254       752  TIP3  OH2         -12.0516652305       13.1311460930        2.1851535214  CLST         752          1.0000000000
      2255       752  TIP3  H1          -12.5867672207       13.1148862500        1.3956482530  CLST         752          1.0000000000
      2256       752  TIP3  H2          -12.0305763940       12.1582813684        2.0469100276  CLST         752          1.0000000000
      2257       753  TIP3  OH2           9.0340448877        2.6466285207       -6.9683091056  CLST         753          1.0000000000
      2258       753  TIP3  H1            8.5052614247        3.3736344320       -7.4750299830  CLST         753          1.0000000000
      2259       753  TIP3  H2            8.2686447439        2.6255046713       -6.3502165490  CLST         753          1.0000000000
      2260       754  TIP3  OH2          11.4073127126        2.3160123671       -5.9672579740  CLST         754          1.0000000000
      2261       754  TIP3  H1           10.5217743246        1.9671827712       -5.6789410196  CLST         754          1.0000000000
      2262       754  TIP3  H2           10.7471465050        2.9501344392       -6.4057715373  CLST         754          1.0000000000
      2263       755  TIP3  OH2           7.6089199291       -1.8791090754       -0.1765562355  CLST         755          1.0000000000
      2264       755  TIP3  H1            6.7361657539       -2.1384024836        0.0994591059  CLST         755          1.0000000000
      2265       755  TIP3  H2            7.2603422067       -0.9734122775       -0.2934695852  CLST         755          1.0000000000
      2266       756  TIP3  OH2         -12.7189548470        6.6619215571        5.9615696095  CLST         756          1.0000000000
      2267       756  TIP3  H1          -12.9334237039        5.7740815199        6.3075768282  CLST         756          1.0000000000
      2268       756  TIP3  H2          -12.0635002848        6.6564635140        6.7415291396  CLST         756          1.0000000000
      2269       757  TIP3  OH2          -4.6577112654       -4.9016245416       -2.3011287093  CLST         757          1.0000000000
      2270       757  TIP3  H1           -4.1186280868       -5.1667847393       -3.0651423243  CLST         757          1.0000000000
      2271       757  TIP3  H2           -4.7630462469       -4.0278142338       -2.8115096266  CLST         757          1.0000000000
      2272       758  TIP3  OH2          11.8430271605        4.3332496640       -0.9281851233  CLST         758          1.0000000000
      2273       758  TIP3  H1           12.0806662737        4.4870603455        0.2035260916  CLST         758          1.0000000000
      2274       758  TIP3  H2           12.5408176314        3.7118522601       -0.4473634228  CLST         758          1.0000000000
      2275       759  TIP3  OH2          -7.4247829773       11.6190659150      -11.2848529806  CLST         759          1.0000000000
      2276       759  TIP3  H1           -6.6209137321       12.0927984479      -11.4905519813  CLST         759          1.0000000000
      2277       759  TIP3  H2           -6.8891865971       10.9649704384      -10.8327768140  CLST         759          1.0000000000
      2278       760  TIP3  OH2           8.0290676944       14.4983671854       -6.2638022958  CLST         760          1.0000000000
      2279       760  TIP3  H1            8.1536917124       14.8034945923       -7.1882598088  CLST         760          1.0000000000
      2280       760  TIP3  H2            8.0096084377       13.6018571253       -6.6208887305  CLST         760          1.0000000000
      2281       761  TIP3  OH2          -6.9298016462        8.0602903420      -11.3538949304  CLST         761          1.0000000000
      2282       761  TIP3  H1           -7.7579660617        7.6908293213      -11.7032398113  CLST         761          1.0000000000
      2283       761  TIP3  H2           -7.2681282479        7.8704213923      -10.4525362929  CLST         761          1.0000000000
      2284       762  TIP3  OH2           7.7900848992       -6.3199059943      -12.9425822370  CLST         762          1.0000000000
      2285       762  TIP3  H1            7.0934183578       -6.7169605937      -12.4459096489  CLST         762          1.0000000000
      2286       762  TIP3  H2            7.6723441108       -5.4622329145      -12.4994476663  CLST         762          1.0000000000
      2287       763  TIP3  OH2          -1.3328032256       -5.9912388039        8.8485794993  CLST         763          1.0000000000
      2288       763  TIP3  H1           -1.2540189380       -5.0547965396        8.6368077770  CLST         763          1.0000000000
      2289       763  TIP3  H2           -1.9855904262       -5.7909644491        9.5512046095  CLST         763          1.0000000000
      2290       764  TIP3  OH2           8.8891408260      -11.3168503989        0.5930252396  CLST         764          1.0000000000
      2291       764  TIP3  H1            8.1593749020      -10.7516497698        0.7052991608  CLST         764          1.0000000000
      2292       764  TIP3  H2            9.6029847688      -11.0500349157        1.1881136285  CLST         764          1.0000000000
      2293       765  TIP3  OH2         -14.2949211878      -12.2243180214       12.8166699895  CLST         765          1.0000000000
      2294       765  TIP3  H1          -14.0315726642      -11.7711131945       13.5674078338  CLST         765          1.0000000000
      2295       765  TIP3  H2          -14.9483665239      -11.8286366569       13.0663538675  CLST         765          1.0000000000
      2296       766  TIP3  OH2          11.6362753353       -8.0498418084      -12.0000239108  CLST         766          1.0000000000
      2297       766  TIP3  H1           10.7521783337       -7.9422461082      -12.2531576506  CLST         766          1.0000000000
      2298       766  TIP3  H2           10.9741321647       -9.0176846696      -12.0294230475  CLST         766          1.0000000000
      2299       767  TIP3  OH2           2.3332152019       12.3382483812      -12.5163737959  CLST         767          1.0000000000
      2300       767  TIP3  H1            2.7175826475       12.0526252622      -11.7397511322  CLST         767          1.0000000000
      2301       767  TIP3  H2            2.1333070575       13.2590182126      -12.5044086572  CLST         767          1.0000000000
      2302       768  TIP3  OH2           7.5005415148        7.0979088292        8.0951295663  CLST         768          1.0000000000
      2303       768  TIP3  H1            8.4316578002        7.0997194664        8.3857575025  CLST         768          1.0000000000
      2304       768  TIP3  H2            7.7496155012        6.1368020362        8.1752848867  CLST         768          1.0000000000
      2305       769  TIP3  OH2         -11.8172749380        3.2573524936        0.9373199898  CLST         769          1.0000000000
      2306       769  TIP3  H1          -11.3766183263        3.0057492287        1.6085207430  CLST         769          1.0000000000
      2307       769  TIP3  H2          -12.3896469438        2.9314547701        1.9159623015  CLST         769          1.0000000000
      2308       770  TIP3  OH2          10.3985926536       -4.6581361059       11.4592521720  CLST         770          1.0000000000
      2309       770  TIP3  H1           10.4877544171       -3.8932147772       10.8386636311  CLST         770          1.0000000000
      2310       770  TIP3  H2           11.2479743973       -4.7667326424       10.9706062713  CLST         770          1.0000000000
      2311       771  TIP3  OH2         -10.1998165926        1.3132213557       -5.8627972116  CLST         771          1.0000000000
      2312       771  TIP3  H1           -9.4450919288        1.7877352080       -6.2139368159  CLST         771          1.0000000000
      2313       771  TIP3  H2           -9.7135668504        1.5521418385       -5.0510892323  CLST         771          1.0000000000
      2314       772  TIP3  OH2          12.9126460829      -12.4587847652       -6.6817606248  CLST         772          1.0000000000
      2315       772  TIP3  H1           13.2338680514      -11.5109408302       -6.6937331139  CLST         772          1.0000000000
      2316       772  TIP3  H2           12.4067989303      -12.3947502203       -5.9394005816  CLST         772          1.0000000000
      2317       773  TIP3  OH2          12.7450731905       -4.8182780152        3.8643215961  CLST         773          1.0000000000
      2318       773  TIP3  H1           12.1831598240       -4.1358051647        4.2886673855  CLST         773          1.0000000000
      2319       773  TIP3  H2           12.6239246636       -4.6225259680        2.9391597892  CLST         773          1.0000000000
      2320       774  TIP3  OH2          -7.9823729253       -0.5485695477       -6.0309859773  CLST         774          1.0000000000
      2321       774  TIP3  H1           -6.8323733939       -0.3602719206       -5.6846534023  CLST         774          1.0000000000
      2322       774  TIP3  H2           -7.5312871823        0.2711746273       -6.0448451255  CLST         774          1.0000000000
      2323       775  TIP3  OH2           2.6124492032        1.6697692425        5.7821257676  CLST         775          1.0000000000
      2324       775  TIP3  H1            2.5155182818        1.6042948957        6.7507628818  CLST         775          1.0000000000
      2325       775  TIP3  H2            2.4301681990        2.6276760504        5.9764549499  CLST         775          1.0000000000
      2326       776  TIP3  OH2           0.1536958749        9.6144645931        5.6590749963  CLST         776          1.0000000000
      2327       776  TIP3  H1           -0.6751420880       10.1999281829        5.7715710672  CLST         776          1.0000000000
      2328       776  TIP3  H2           -0.5512844048        8.9776673142        5.4003876476  CLST         776          1.0000000000
      2329       777  TIP3  OH2         -12.9712921857      -10.2799257151        0.1839862999  CLST         777          1.0000000000
      2330       777  TIP3  H1          -12.6918149368       -9.3366092130        0.3839761429  CLST         777          1.0000000000
      2331       777  TIP3  H2          -13.1508953849      -10.3003303709        1.0967120335  CLST         777          1.0000000000
      2332       778  TIP3  OH2         -11.5896316723        5.5351800505       -0.4558657639  CLST         778          1.0000000000
      2333       778  TIP3  H1          -11.4461170150        4.8295689841        0.1861199945  CLST         778          1.0000000000
      2334       778  TIP3  H2          -11.7728938393        4.8730214063       -1.1181772728  CLST         778          1.0000000000
      2335       779  TIP3  OH2          -6.2361932614        5.2826443000       -1.6869659974  CLST         779          1.0000000000
      2336       779  TIP3  H1           -6.8627125600        4.9669521862       -0.9223572382  CLST         779          1.0000000000
      2337       779  TIP3  H2           -6.8781004138        6.0952735980       -1.1415570049  CLST         779          1.0000000000
      2338       780  TIP3  OH2           2.5352350264       14.0079570062       -8.7259558727  CLST         780          1.0000000000
      2339       780  TIP3  H1            2.4418483293       14.7933062737       -9.5404127168  CLST         780          1.0000000000
      2340       780  TIP3  H2            3.1054646549       14.1878964895       -9.6662256853  CLST         780          1.0000000000
      2341       781  TIP3  OH2           9.1943032967       -8.7628004647       -9.6635661481  CLST         781          1.0000000000
      2342       781  TIP3  H1           10.1482816613       -8.6381584840       -9.6083117128  CLST         781          1.0000000000
      2343       781  TIP3  H2            9.4854819682       -9.5964058812       -9.2708995133  CLST         781          1.0000000000
      2344       782  TIP3  OH2           0.1086557935        2.6258041179        4.9034356903  CLST         782          1.0000000000
      2345       782  TIP3  H1           -0.3998884918        1.8493905789        4.8961025200  CLST         782          1.0000000000
      2346       782  TIP3  H2            0.7842267119        2.0674145763        5.3251147482  CLST         782          1.0000000000
      2347       783  TIP3  OH2          -7.2145194665      -12.4755515081      -13.7236830237  CLST         783          1.0000000000
      2348       783  TIP3  H1           -8.1295894561      -12.0891420193      -13.5203412054  CLST         783          1.0000000000
      2349       783  TIP3  H2           -7.6400907919      -12.4425954512      -14.6062710928  CLST         783          1.0000000000
      2350       784  TIP3  OH2          14.5419645669        5.2320854824       -3.9262489298  CLST         784          1.0000000000
      2351       784  TIP3  H1           14.8029689900        5.8193746053       -4.6081930692  CLST         784          1.0000000000
      2352       784  TIP3  H2           14.0139670625        5.5664979208       -3.2471216667  CLST         784          1.0000000000
      2353       785  TIP3  OH2          10.5799673328        7.9521455213        1.0135609482  CLST         785          1.0000000000
      2354       785  TIP3  H1           11.1264273696        8.3342750467        1.6853259307  CLST         785          1.0000000000
      2355       785  TIP3  H2           11.2283125872        8.4187602380        0.4677546040  CLST         785          1.0000000000
      2356       786  TIP3  OH2          12.7925176078        3.6994942426       12.5843918813  CLST         786          1.0000000000
      2357       786  TIP3  H1           13.2109617219        4.4536246556       12.9755406138  CLST         786          1.0000000000
      2358       786  TIP3  H2           11.9376584826        3.6254210474       12.9968470636  CLST         786          1.0000000000
      2359       787  TIP3  OH2          -8.0705514180        0.1157417572       11.5870615438  CLST         787          1.0000000000
      2360       787  TIP3  H1           -8.9163409342        0.2075646101       11.1026978765  CLST         787          1.0000000000
      2361       787  TIP3  H2           -8.5122333255       -0.5810731725       12.0111417867  CLST         787          1.0000000000
      2362       788  TIP3  OH2           2.5502828560      -13.4530462700       10.4841852720  CLST         788          1.0000000000
      2363       788  TIP3  H1            3.4543356261      -13.4428029073       10.7911710387  CLST         788          1.0000000000
      2364       788  TIP3  H2            2.7290072417      -14.3924058826       10.7466289469  CLST         788          1.0000000000
      2365       789  TIP3  OH2          -7.1795900301        0.7535319456       -3.1690815874  CLST         789          1.0000000000
      2366       789  TIP3  H1           -6.6530003964        0.0957808354       -3.1115134813  CLST         789          1.0000000000
      2367       789  TIP3  H2           -6.3390619817        0.8355413255       -3.6218982482  CLST         789          1.0000000000
      2368       790  TIP3  OH2         -10.9421701857       -9.1500610220        5.7608472516  CLST         790          1.0000000000
      2369       790  TIP3  H1          -10.8577898457       -9.6003935682        6.5392821567  CLST         790          1.0000000000
      2370       790  TIP3  H2          -11.3069718603       -8.2697750476        5.8490534010  CLST         790          1.0000000000
      2371       791  TIP3  OH2          -5.1107042565       -5.8222627142      -10.8066326828  CLST         791          1.0000000000
      2372       791  TIP3  H1           -4.2709556561       -6.3040882870      -10.8594523219  CLST         791          1.0000000000
      2373       791  TIP3  H2           -4.5811674321       -5.0509211154      -11.1566306957  CLST         791          1.0000000000
      2374       792  TIP3  OH2           7.0798890663       -3.8603774346       10.1087545863  CLST         792          1.0000000000
      2375       792  TIP3  H1            7.7633322577       -4.4899581472        9.7167250639  CLST         792          1.0000000000
      2376       792  TIP3  H2            7.8111279635       -3.2137607645       10.0593954629  CLST         792          1.0000000000
      2377       793  TIP3  OH2          -3.3917051573       13.0623375823       -3.8397649621  CLST         793          1.0000000000
      2378       793  TIP3  H1           -3.7930529429       12.8602335084       -2.9430290917  CLST         793          1.0000000000
      2379       793  TIP3  H2           -3.5209849954       12.1858485576       -4.1600564647  CLST         793          1.0000000000
      2380       794  TIP3  OH2          -1.1274771667        3.0410557349       -6.6349707901  CLST         794          1.0000000000
      2381       794  TIP3  H1           -0.8582400135        2.5151461421       -7.6688479055  CLST         794          1.0000000000
      2382       794  TIP3  H2           -1.0090296948        3.4516547769       -7.3096333122  CLST         794          1.0000000000
      2383       795  TIP3  OH2          -2.1691801852       -9.2441704863        1.1260067681  CLST         795          1.0000000000
      2384       795  TIP3  H1           -2.7369764527       -9.8383008360        0.6283410321  CLST         795          1.0000000000
      2385       795  TIP3  H2           -1.7721850573       -9.9480257620        1.6745046126  CLST         795          1.0000000000
      2386       796  TIP3  OH2           3.0672505060        4.5515544694        4.8415681002  CLST         796          1.0000000000
      2387       796  TIP3  H1            3.3198603751        4.3151630088        3.8485409328  CLST         796          1.0000000000
      2388       796  TIP3  H2            4.1861182265        4.3675453785        4.7260562516  CLST         796          1.0000000000
      2389       797  TIP3  OH2         -11.8091284466        5.3812800595       -2.9911480604  CLST         797          1.0000000000
      2390       797  TIP3  H1          -12.2077455533        6.0216844852       -3.6402076705  CLST         797          1.0000000000
      2391       797  TIP3  H2          -11.4557919351        5.0219503543       -3.8841819864  CLST         797          1.0000000000
      2392       798  TIP3  OH2         -11.2721644024        9.8890828886       10.5636680531  CLST         798          1.0000000000
      2393       798  TIP3  H1          -11.5531386662       10.7102105641       10.1102328702  CLST         798          1.0000000000
      2394       798  TIP3  H2          -11.3617513851       10.5411559439       11.2974246821  CLST         798          1.0000000000
      2395       799  TIP3  OH2           4.1989210583       -1.8350219100      -12.7905963435  CLST         799          1.0000000000
      2396       799  TIP3  H1            5.1216444260       -1.5205395148      -12.9032531158  CLST         799          1.0000000000
      2397       799  TIP3  H2            4.0047551828       -1.9293561432      -13.6595369901  CLST         799          1.0000000000
      2398       800  TIP3  OH2         -10.3328271809        7.2995694902       10.1484304680  CLST         800          1.0000000000
      2399       800  TIP3  H1          -10.8907161253        8.0745549371       10.3069593376  CLST         800          1.0000000000
      2400       800  TIP3  H2           -9.6604533606        7.8777474439        9.8717319393  CLST         800          1.0000000000
      2401       801  TIP3  OH2           8.2578203820      -11.2557708444      -10.4752833133  CLST         801          1.0000000000
      2402       801  TIP3  H1            8.4123493692      -12.1480595202      -10.7359840748  CLST         801          1.0000000000
      2403       801  TIP3  H2            8.8545691088      -11.0821736344      -11.1974555979  CLST         801          1.0000000000
      2404       802  TIP3  OH2           5.4744333104       -0.0540672570       11.9361558750  CLST         802          1.0000000000
      2405       802  TIP3  H1            5.1122041712        0.2144220224       10.9784834275  CLST         802          1.0000000000
      2406       802  TIP3  H2            6.0969512268       -0.4956094156       11.2891457694  CLST         802          1.0000000000
      2407       803  TIP3  OH2           6.8097116859       -9.6516510344        0.2136908617  CLST         803          1.0000000000
      2408       803  TIP3  H1            6.3183722325      -10.4837957045       -0.0600306378  CLST         803          1.0000000000
      2409       803  TIP3  H2            6.2624477682       -9.6336009877        1.0786932895  CLST         803          1.0000000000
      2410       804  TIP3  OH2           5.4402297583        6.3466967143        2.0017805507  CLST         804          1.0000000000
      2411       804  TIP3  H1            5.3667195019        5.2435934622        1.9914970407  CLST         804          1.0000000000
      2412       804  TIP3  H2            6.1010795697        5.8000862397        1.8711773946  CLST         804          1.0000000000
      2413       805  TIP3  OH2           7.4459627880       -4.4779033216       14.3290932096  CLST         805          1.0000000000
      2414       805  TIP3  H1            8.2817869813       -4.5546891051       13.9208597230  CLST         805          1.0000000000
      2415       805  TIP3  H2            7.9582415030       -4.9990793604       14.9517617159  CLST         805          1.0000000000
      2416       806  TIP3  OH2           8.5526120465       10.5247814574       13.6790334375  CLST         806          1.0000000000
      2417       806  TIP3  H1            7.9113934132       10.1226485298       13.0750938179  CLST         806          1.0000000000
      2418       806  TIP3  H2            8.5683924069       11.2561493271       13.2322004896  CLST         806          1.0000000000
      2419       807  TIP3  OH2          -3.8507039193        8.0890906419        0.9664823076  CLST         807          1.0000000000
      2420       807  TIP3  H1           -3.8160200810        9.0884988332        1.1906860541  CLST         807          1.0000000000
      2421       807  TIP3  H2           -3.7077774783        8.0248877139        1.9400341793  CLST         807          1.0000000000
      2422       808  TIP3  OH2          -3.4739583911       14.0705699552        1.3622438801  CLST         808          1.0000000000
      2423       808  TIP3  H1           -2.8067127551       14.4675153609        1.9461208725  CLST         808          1.0000000000
      2424       808  TIP3  H2           -2.6581196041       13.9149912632        0.8697179529  CLST         808          1.0000000000
      2425       809  TIP3  OH2           2.1322151538       12.8315513354        9.2936720385  CLST         809          1.0000000000
      2426       809  TIP3  H1            1.7769850359       12.0286252109        8.9588515460  CLST         809          1.0000000000
      2427       809  TIP3  H2            1.2726581817       13.1613357211        9.3238016095  CLST         809          1.0000000000
      2428       810  TIP3  OH2          -1.9936669299        8.7144057461        8.9076140613  CLST         810          1.0000000000
      2429       810  TIP3  H1           -1.1838238928        8.3061209052        8.6410489016  CLST         810          1.0000000000
      2430       810  TIP3  H2           -1.6601493465        8.6582631669        9.8200549100  CLST         810          1.0000000000
      2431       811  TIP3  OH2          -3.6491517676      -12.4048112916       -9.3719467426  CLST         811          1.0000000000
      2432       811  TIP3  H1           -3.5074641368      -12.9657604550      -10.1506394555  CLST         811          1.0000000000
      2433       811  TIP3  H2           -4.3764660065      -11.8380707954       -9.6600443638  CLST         811          1.0000000000
      2434       812  TIP3  OH2          10.6379437687        4.2885051902      -13.7520880361  CLST         812          1.0000000000
      2435       812  TIP3  H1           11.2226899510        3.5365187332      -13.9449246784  CLST         812          1.0000000000
      2436       812  TIP3  H2           10.6840806926        4.3370311919      -14.6798192947  CLST         812          1.0000000000
      2437       813  TIP3  OH2          -2.3105411062        0.8176733130      -13.8833145883  CLST         813          1.0000000000
      2438       813  TIP3  H1           -2.2327806235        1.5741373643      -14.5389420611  CLST         813          1.0000000000
      2439       813  TIP3  H2           -3.2304555785        1.2563500741      -13.8855582944  CLST         813          1.0000000000
      2440       814  TIP3  OH2          -7.4081109454        7.9651432373       -8.5672141373  CLST         814          1.0000000000
      2441       814  TIP3  H1           -7.1015970826        8.8583227678       -8.4063577612  CLST         814          1.0000000000
      2442       814  TIP3  H2           -6.7311157431        7.4024234915       -8.2382030218  CLST         814          1.0000000000
      2443       815  TIP3  OH2          -5.2022248131        0.7883645190       -8.5885342272  CLST         815          1.0000000000
      2444       815  TIP3  H1           -5.1276379055        1.5497810478       -8.0263344897  CLST         815          1.0000000000
      2445       815  TIP3  H2           -5.8089813048        1.3589268369       -9.0342372499  CLST         815          1.0000000000
      2446       816  TIP3  OH2          -8.3311641987      -13.5193661341        1.7386554938  CLST         816          1.0000000000
      2447       816  TIP3  H1           -8.6406593080      -14.3764695216        1.9473075395  CLST         816          1.0000000000
      2448       816  TIP3  H2           -9.2209020877      -13.2659442446        1.6638073418  CLST         816          1.0000000000
      2449       817  TIP3  OH2           3.5227848412       14.4197033970       10.8722571042  CLST         817          1.0000000000
      2450       817  TIP3  H1            3.0714781279       13.7294247908       10.4473056257  CLST         817          1.0000000000
      2451       817  TIP3  H2            3.2015150398       14.1792492272       11.7271338121  CLST         817          1.0000000000
      2452       818  TIP3  OH2          11.4316218092       -3.5333416390       -5.7613318581  CLST         818          1.0000000000
      2453       818  TIP3  H1           11.4507010603       -2.6470141020       -5.2985674321  CLST         818          1.0000000000
      2454       818  TIP3  H2           10.5110533487       -3.1976603827       -5.7524499471  CLST         818          1.0000000000
      2455       819  TIP3  OH2           0.0419286401       -0.0459878381      -10.7117507919  CLST         819          1.0000000000
      2456       819  TIP3  H1            0.1659630043       -0.6949238512      -11.4974100079  CLST         819          1.0000000000
      2457       819  TIP3  H2            0.9354516287        0.4087973078      -10.8175873424  CLST         819          1.0000000000
      2458       820  TIP3  OH2         -11.1922058572       -8.0115366949       14.0311471810  CLST         820          1.0000000000
      2459       820  TIP3  H1          -11.3628361557       -8.3748406238       14.9423193009  CLST         820          1.0000000000
      2460       820  TIP3  H2          -11.1521073080       -9.0150720406       13.8719961207  CLST         820          1.0000000000
      2461       821  TIP3  OH2          11.9737971901       -0.9710437720       14.9057221956  CLST         821          1.0000000000
      2462       821  TIP3  H1           12.2967489612       -1.0810877913       13.9834191607  CLST         821          1.0000000000
      2463       821  TIP3  H2           12.0731956237       -1.9367215863       14.6944270543  CLST         821          1.0000000000
      2464       822  TIP3  OH2          -7.3778694533       14.2665495947        9.4026670675  CLST         822          1.0000000000
      2465       822  TIP3  H1           -7.3827978938       14.1509724466        8.4920253853  CLST         822          1.0000000000
      2466       822  TIP3  H2           -6.9513681927       13.3806595639        9.4177423507  CLST         822          1.0000000000
      2467       823  TIP3  OH2          -9.2472878506       -1.6218223259        7.8395236830  CLST         823          1.0000000000
      2468       823  TIP3  H1           -9.4540811377       -2.4260457334        8.3692191865  CLST         823          1.0000000000
      2469       823  TIP3  H2           -8.3560944965       -1.9911065240        7.7417930445  CLST         823          1.0000000000
      2470       824  TIP3  OH2          10.8865060325        0.8141192388        7.1041896338  CLST         824          1.0000000000
      2471       824  TIP3  H1           11.3398212499        1.6065186511        6.5838433344  CLST         824          1.0000000000
      2472       824  TIP3  H2           10.4166754242        1.8151040695        7.1660417373  CLST         824          1.0000000000
      2473       825  TIP3  OH2          -4.6922413245      -11.5489826987      -13.9971079665  CLST         825          1.0000000000
      2474       825  TIP3  H1           -5.5743751618      -11.8533198900      -13.8390676564  CLST         825          1.0000000000
      2475       825  TIP3  H2           -4.8054833813      -11.0048218933      -13.2274595954  CLST         825          1.0000000000
      2476       826  TIP3  OH2           4.4251241230      -14.0097444157        2.2232128510  CLST         826          1.0000000000
      2477       826  TIP3  H1            4.3116674075      -14.9483023026        2.4450732821  CLST         826          1.0000000000
      2478       826  TIP3  H2            5.3857212441      -14.0842275801        2.1803577464  CLST         826          1.0000000000
      2479       827  TIP3  OH2         -10.1833680157        8.4866010243       -6.5382467140  CLST         827          1.0000000000
      2480       827  TIP3  H1           -9.8565347636        8.6504759294       -5.5531219303  CLST         827          1.0000000000
      2481       827  TIP3  H2           -9.5894892726        7.7959554822       -5.9164459264  CLST         827          1.0000000000
      2482       828  TIP3  OH2         -10.0576071892       -7.6686499139       11.3235637365  CLST         828          1.0000000000
      2483       828  TIP3  H1           -9.2898280921       -7.8708501710       11.8411979602  CLST         828          1.0000000000
      2484       828  TIP3  H2           -9.6600139976       -6.7914536627       11.2968390988  CLST         828          1.0000000000
      2485       829  TIP3  OH2           3.0840408216       13.4727461598        6.2076824543  CLST         829          1.0000000000
      2486       829  TIP3  H1            3.8064031741       13.4533506821        6.8759063194  CLST         829          1.0000000000
      2487       829  TIP3  H2            3.1844433732       14.3831297353        6.4448854000  CLST         829          1.0000000000
      2488       830  TIP3  OH2          14.0077560629        3.0542143019        8.9050366433  CLST         830          1.0000000000
      2489       830  TIP3  H1           14.4164190097        3.4881796663        9.7035682637  CLST         830          1.0000000000
      2490       830  TIP3  H2           14.8537885438        3.3952139568        8.5389338401  CLST         830          1.0000000000
      2491       831  TIP3  OH2           2.7666483185        2.3093420456        8.3200606987  CLST         831          1.0000000000
      2492       831  TIP3  H1            3.2359670315        3.3559799809        8.3059561721  CLST         831          1.0000000000
      2493       831  TIP3  H2            2.2057951732        3.2930164243        8.2456325502  CLST         831          1.0000000000
      2494       832  TIP3  OH2         -12.7440587073       -2.5227751708        0.9798396341  CLST         832          1.0000000000
      2495       832  TIP3  H1          -12.5693237977       -1.5785146115        0.8631703878  CLST         832          1.0000000000
      2496       832  TIP3  H2          -13.0038266524       -2.3290659893        1.8911626423  CLST         832          1.0000000000
      2497       833  TIP3  OH2           1.2664826744      -11.4966519797        5.4385254011  CLST         833          1.0000000000
      2498       833  TIP3  H1            1.9825909509      -11.3018433882        6.0376358187  CLST         833          1.0000000000
      2499       833  TIP3  H2            2.0883754287      -11.4928166999        4.8713969309  CLST         833          1.0000000000
      2500       834  TIP3  OH2           3.3074437054       -3.3555552520        4.6406937567  CLST         834          1.0000000000
      2501       834  TIP3  H1            2.6694896255       -3.0289120048        5.3464617235  CLST         834          1.0000000000
      2502       834  TIP3  H2            3.4358259201       -2.3443060855        4.4828534553  CLST         834          1.0000000000
      2503       835  TIP3  OH2           4.5202893507        2.6373406173        0.2649426542  CLST         835          1.0000000000
      2504       835  TIP3  H1            3.9034658026        2.6102052077       -0.7947775319  CLST         835          1.0000000000
      2505       835  TIP3  H2            4.5525245238        1.7710110574       -0.1682472861  CLST         835          1.0000000000
      2506       836  TIP3  OH2           7.5262083081       -5.6246528537       -9.6290983222  CLST         836          1.0000000000
      2507       836  TIP3  H1            7.2577090981       -5.9992357875       -8.7606383722  CLST         836          1.0000000000
      2508       836  TIP3  H2            8.0374142740       -6.4246498839       -9.6858408320  CLST         836          1.0000000000
      2509       837  TIP3  OH2           3.2176670842        6.0813631994       -0.5334517727  CLST         837          1.0000000000
      2510       837  TIP3  H1            2.4276938190        5.5807105279       -0.4726734760  CLST         837          1.0000000000
      2511       837  TIP3  H2            2.6756490014        6.7195719264       -0.0538583623  CLST         837          1.0000000000
      2512       838  TIP3  OH2          -1.5518557265      -13.6156406282      -10.9366911795  CLST         838          1.0000000000
      2513       838  TIP3  H1           -1.1446821784      -14.4839750302      -10.8064326410  CLST         838          1.0000000000
      2514       838  TIP3  H2           -2.2485340039      -14.2540107222      -11.2355274967  CLST         838          1.0000000000
      2515       839  TIP3  OH2           1.5841868403       -7.1701323182       -1.4209610704  CLST         839          1.0000000000
      2516       839  TIP3  H1            1.3307534098       -7.6885074145       -0.6018058891  CLST         839          1.0000000000
      2517       839  TIP3  H2            0.6026173124       -7.0726480213       -1.6210828452  CLST         839          1.0000000000
      2518       840  TIP3  OH2          -7.6963784714       11.8444959024       10.6717670916  CLST         840          1.0000000000
      2519       840  TIP3  H1           -7.7894775675       11.3231807764       11.4708249552  CLST         840          1.0000000000
      2520       840  TIP3  H2           -6.9561753492       11.3251566273       10.3831045112  CLST         840          1.0000000000
      2521       841  TIP3  OH2          -8.5365689578       -7.4897480859       -4.1789277666  CLST         841          1.0000000000
      2522       841  TIP3  H1           -8.0081678918       -7.8452778207       -3.4519905853  CLST         841          1.0000000000
      2523       841  TIP3  H2           -7.7257002558       -7.0588711014       -4.4030792020  CLST         841          1.0000000000
      2524       842  TIP3  OH2          11.4519716067      -14.2154101295        0.2774853216  CLST         842          1.0000000000
      2525       842  TIP3  H1           11.3815367656      -14.8255116754        1.0338386435  CLST         842          1.0000000000
      2526       842  TIP3  H2           10.4569488025      -14.1910183153        0.3612569525  CLST         842          1.0000000000
      2527       843  TIP3  OH2           9.5536725090       13.0903301576        3.6936550410  CLST         843          1.0000000000
      2528       843  TIP3  H1            9.0410282861       12.5672160898        4.1973286237  CLST         843          1.0000000000
      2529       843  TIP3  H2            8.8895783171       13.2771557603        3.0032042899  CLST         843          1.0000000000
      2530       844  TIP3  OH2           1.7447229722      -12.7541008120       -2.0909494645  CLST         844          1.0000000000
      2531       844  TIP3  H1            1.8287870050      -12.9494454258       -1.1769704911  CLST         844          1.0000000000
      2532       844  TIP3  H2            0.8351590459      -12.8118886090       -1.9015162608  CLST         844          1.0000000000
      2533       845  TIP3  OH2         -14.7582957065        4.4679922398       10.7553386378  CLST         845          1.0000000000
      2534       845  TIP3  H1          -14.7634174466        4.2647692259       11.5937618000  CLST         845          1.0000000000
      2535       845  TIP3  H2          -14.0811195350        4.8820734794       11.5563000391  CLST         845          1.0000000000
      2536       846  TIP3  OH2         -11.1358520519       -7.5519710413        2.4272770686  CLST         846          1.0000000000
      2537       846  TIP3  H1          -11.8300258926       -8.0502393899        2.9092175623  CLST         846          1.0000000000
      2538       846  TIP3  H2          -11.7857496638       -6.8141935128        2.4198843229  CLST         846          1.0000000000
      2539       847  TIP3  OH2           4.7484701575        9.5867210230        4.8136153532  CLST         847          1.0000000000
      2540       847  TIP3  H1            5.0152116267       10.4606475540        4.5742313154  CLST         847          1.0000000000
      2541       847  TIP3  H2            5.3349406053        9.7868486112        5.5722347040  CLST         847          1.0000000000
      2542       848  TIP3  OH2          -9.3024637060        6.0158937098       -9.8205909703  CLST         848          1.0000000000
      2543       848  TIP3  H1          -10.1408378003        5.6102443122      -10.2669258977  CLST         848          1.0000000000
      2544       848  TIP3  H2           -9.6632313769        6.8684494693       -9.5008642821  CLST         848          1.0000000000
      2545       849  TIP3  OH2          -1.6787604689        1.8605946222        0.3257222611  CLST         849          1.0000000000
      2546       849  TIP3  H1           -0.6280947025        2.0752638545        0.1365503078  CLST         849          1.0000000000
      2547       849  TIP3  H2           -1.2724996260        2.1208103971       -0.6556860883  CLST         849          1.0000000000
      2548       850  TIP3  OH2           5.5411983841       -6.4269428661        5.7623970014  CLST         850          1.0000000000
      2549       850  TIP3  H1            4.7686154733       -6.3421066346        6.3733999485  CLST         850          1.0000000000
      2550       850  TIP3  H2            5.9703306981       -5.9301146668        6.5334844159  CLST         850          1.0000000000
      2551       851  TIP3  OH2           8.1668207775        6.1074990782        5.2487815994  CLST         851          1.0000000000
      2552       851  TIP3  H1            8.6339670521        6.9238328280        5.5737565724  CLST         851          1.0000000000
      2553       851  TIP3  H2            8.6800133401        6.4825619864        4.4462102872  CLST         851          1.0000000000
      2554       852  TIP3  OH2           9.4039057707        4.1250786645        1.6992180074  CLST         852          1.0000000000
      2555       852  TIP3  H1            9.3398160092        4.5769822633        2.4121588311  CLST         852          1.0000000000
      2556       852  TIP3  H2            8.3523495557        4.4212705848        2.2774335938  CLST         852          1.0000000000
      2557       853  TIP3  OH2           8.8318838002       -5.1690712577       -3.4764974071  CLST         853          1.0000000000
      2558       853  TIP3  H1            7.8569221724       -5.2989107767       -4.1127282932  CLST         853          1.0000000000
      2559       853  TIP3  H2            7.8016934913       -5.0829800307       -3.1466792462  CLST         853          1.0000000000
      2560       854  TIP3  OH2         -10.4331094479       -9.4146421571       -6.0902033341  CLST         854          1.0000000000
      2561       854  TIP3  H1           -9.9328254379       -8.5301186234       -6.0346202199  CLST         854          1.0000000000
      2562       854  TIP3  H2          -10.2841620813       -9.3038762954       -5.1165764298  CLST         854          1.0000000000
      2563       855  TIP3  OH2           2.6015219851       -3.4216275941       -6.8595806407  CLST         855          1.0000000000
      2564       855  TIP3  H1            2.2404701926       -2.8626016073       -6.1111240897  CLST         855          1.0000000000
      2565       855  TIP3  H2            2.8550283500       -2.5667382093       -7.2161891198  CLST         855          1.0000000000
      2566       856  TIP3  OH2           2.9580368456      -12.9423325579        0.1561594309  CLST         856          1.0000000000
      2567       856  TIP3  H1            3.6773312191      -12.2651122712        0.1481374619  CLST         856          1.0000000000
      2568       856  TIP3  H2            3.3788296486      -13.2586390735        0.9580514849  CLST         856          1.0000000000
      2569       857  TIP3  OH2          -3.4753072621       -5.6337155369       11.1221747200  CLST         857          1.0000000000
      2570       857  TIP3  H1           -3.6524063812       -5.7031803487       12.0784979646  CLST         857          1.0000000000
      2571       857  TIP3  H2           -3.1009454509       -4.7271718240       11.1764124402  CLST         857          1.0000000000
      2572       858  TIP3  OH2           5.8060471943      -14.2971118629       12.8907960245  CLST         858          1.0000000000
      2573       858  TIP3  H1            6.0502907838      -14.9517617159       13.5418220451  CLST         858          1.0000000000
      2574       858  TIP3  H2            5.1274686749      -13.9190290763       13.5032444057  CLST         858          1.0000000000
      2575       859  TIP3  OH2          -8.8748186216       -1.5387530921      -13.0334709502  CLST         859          1.0000000000
      2576       859  TIP3  H1           -8.0759336285       -2.1404086858      -12.9805666951  CLST         859          1.0000000000
      2577       859  TIP3  H2           -8.4246936304       -1.2520396407      -12.1601877743  CLST         859          1.0000000000
      2578       860  TIP3  OH2          -9.5874182547       -6.2678283392       -0.6873767659  CLST         860          1.0000000000
      2579       860  TIP3  H1           -9.5812632246       -5.6745616476       -1.4445791641  CLST         860          1.0000000000
      2580       860  TIP3  H2           -9.0044662317       -6.8402552674       -1.2297407498  CLST         860          1.0000000000
      2581       861  TIP3  OH2           4.8561206409      -10.2493753056       -4.6819515357  CLST         861          1.0000000000
      2582       861  TIP3  H1            4.5481771794      -10.0268256682       -3.8074615861  CLST         861          1.0000000000
      2583       861  TIP3  H2            5.0379091144      -11.0820563283       -4.2462866958  CLST         861          1.0000000000
      2584       862  TIP3  OH2         -11.2947595194       -2.6459453801      -12.5998587203  CLST         862          1.0000000000
      2585       862  TIP3  H1          -10.5124397781       -2.3447332779      -13.0744607998  CLST         862          1.0000000000
      2586       862  TIP3  H2          -10.6784163522       -2.4911097473      -11.8595998222  CLST         862          1.0000000000
      2587       863  TIP3  OH2          10.9908521879      -10.3039685210       -8.7478786344  CLST         863          1.0000000000
      2588       863  TIP3  H1           11.6696245226      -10.4670144812       -8.0615093510  CLST         863          1.0000000000
      2589       863  TIP3  H2           11.4883300355      -10.4975757219       -9.4472407517  CLST         863          1.0000000000
      2590       864  TIP3  OH2         -13.6636388102        3.4739126748        2.9193718896  CLST         864          1.0000000000
      2591       864  TIP3  H1          -14.5271144333        3.2335005674        2.9096903234  CLST         864          1.0000000000
      2592       864  TIP3  H2          -13.9206858547        4.3298782802        3.1309733488  CLST         864          1.0000000000
      2593       865  TIP3  OH2          12.4766737673        8.7491850417      -11.1366512529  CLST         865          1.0000000000
      2594       865  TIP3  H1           12.5108686988        7.8225791888      -10.8285898537  CLST         865          1.0000000000
      2595       865  TIP3  H2           13.0208234433        8.9749915691      -10.3788793500  CLST         865          1.0000000000
      2596       866  TIP3  OH2           6.5022350292      -10.1003227782       -8.1338224248  CLST         866          1.0000000000
      2597       866  TIP3  H1            6.2350519804      -10.8640854414       -7.7142970064  CLST         866          1.0000000000
      2598       866  TIP3  H2            6.8140044113      -10.5819881281       -8.8885816590  CLST         866          1.0000000000
      2599       867  TIP3  OH2          -8.2639196232       12.0629501964       -3.2639457617  CLST         867          1.0000000000
      2600       867  TIP3  H1           -8.9277801669       12.0440230517       -2.5324488035  CLST         867          1.0000000000
      2601       867  TIP3  H2           -7.7438298443       12.7511310558       -2.8447176214  CLST         867          1.0000000000
      2602       868  TIP3  OH2          -9.7668133778       13.2137871971       10.0588157237  CLST         868          1.0000000000
      2603       868  TIP3  H1           -9.4506164528       12.3620233520       10.4304983664  CLST         868          1.0000000000
      2604       868  TIP3  H2           -8.8080565095       13.4237617752       10.1767708447  CLST         868          1.0000000000
      2605       869  TIP3  OH2           3.3371457731       -1.5937033798        1.0760303815  CLST         869          1.0000000000
      2606       869  TIP3  H1            2.3426739584       -1.8597217317        0.9516311323  CLST         869          1.0000000000
      2607       869  TIP3  H2            2.9968615715       -1.1203426706        1.8087228016  CLST         869          1.0000000000
      2608       870  TIP3  OH2          -6.9222071983       -3.5280735745      -12.5952941607  CLST         870          1.0000000000
      2609       870  TIP3  H1           -5.9256132682       -3.3894557812      -12.3390424844  CLST         870          1.0000000000
      2610       870  TIP3  H2           -6.4588444429       -4.0054864286      -13.3414069268  CLST         870          1.0000000000
      2611       871  TIP3  OH2          -7.0460034071        2.2683821285       -9.8735974458  CLST         871          1.0000000000
      2612       871  TIP3  H1           -7.5524316614        2.8037241028      -10.5145164916  CLST         871          1.0000000000
      2613       871  TIP3  H2           -7.9818792511        2.3358446078       -9.5221306244  CLST         871          1.0000000000
      2614       872  TIP3  OH2         -12.8506731792       11.5834143945      -10.3814484537  CLST         872          1.0000000000
      2615       872  TIP3  H1          -12.3970642226       11.6346947300      -11.1215809778  CLST         872          1.0000000000
      2616       872  TIP3  H2          -13.1925413347       11.1102023427      -10.9943407899  CLST         872          1.0000000000
      2617       873  TIP3  OH2          11.9475850969       -4.1302835655       -9.7731404425  CLST         873          1.0000000000
      2618       873  TIP3  H1           11.4655269375       -3.3485664344      -10.1011926009  CLST         873          1.0000000000
      2619       873  TIP3  H2           12.2065921220       -4.4163657598      -10.6574988123  CLST         873          1.0000000000
      2620       874  TIP3  OH2          12.9224467490        8.4427534230       -8.7123436214  CLST         874          1.0000000000
      2621       874  TIP3  H1           13.1577240985        7.7923720169       -7.9783062034  CLST         874          1.0000000000
      2622       874  TIP3  H2           11.9709498243        8.1806062789       -8.5194450496  CLST         874          1.0000000000
      2623       875  TIP3  OH2           1.4134045953       -1.2643593158      -12.2282241509  CLST         875          1.0000000000
      2624       875  TIP3  H1            2.2444798878       -1.6066432716      -12.5759086748  CLST         875          1.0000000000
      2625       875  TIP3  H2            0.8870523166       -1.5055086947      -12.9872716374  CLST         875          1.0000000000
      2626       876  TIP3  OH2           9.0643208871        7.2025489303      -12.1911019393  CLST         876          1.0000000000
      2627       876  TIP3  H1            8.6345807311        6.6077996617      -12.8510799235  CLST         876          1.0000000000
      2628       876  TIP3  H2            8.2084015965        7.2471215215      -11.7418505885  CLST         876          1.0000000000
      2629       877  TIP3  OH2          -7.0214025129      -13.6095594403       -5.0415433089  CLST         877          1.0000000000
      2630       877  TIP3  H1           -7.5108924609      -12.7546665187       -4.7246209192  CLST         877          1.0000000000
      2631       877  TIP3  H2           -6.2191958796      -13.0110280229       -5.0054637979  CLST         877          1.0000000000
      2632       878  TIP3  OH2           5.5577534388      -11.0851795955        7.0807343762  CLST         878          1.0000000000
      2633       878  TIP3  H1            5.1537442211      -11.1650204662        6.2207091856  CLST         878          1.0000000000
      2634       878  TIP3  H2            5.4961545317      -10.1379065298        7.0976398697  CLST         878          1.0000000000
      2635       879  TIP3  OH2           3.0271529986        5.0864202078       -7.0689034811  CLST         879          1.0000000000
      2636       879  TIP3  H1            3.8271099863        5.6637929313       -7.2725740498  CLST         879          1.0000000000
      2637       879  TIP3  H2            3.4647474042        5.0647931169       -6.1837677769  CLST         879          1.0000000000
      2638       880  TIP3  OH2          -5.3942704554       -1.7416632452       14.8664979849  CLST         880          1.0000000000
      2639       880  TIP3  H1           -6.1012747509       -2.3618653685       14.7280734512  CLST         880          1.0000000000
      2640       880  TIP3  H2           -5.9105554165       -1.3131917870       14.1690970754  CLST         880          1.0000000000
      2641       881  TIP3  OH2          -0.3641198938       13.4652870304        8.6540996680  CLST         881          1.0000000000
      2642       881  TIP3  H1           -0.4823103168       13.4567578193        7.8321682824  CLST         881          1.0000000000
      2643       881  TIP3  H2           -1.2477469044       13.0413933012        8.2685626945  CLST         881          1.0000000000
      2644       882  TIP3  OH2          11.8775927865       -1.8307814221       -1.4367349036  CLST         882          1.0000000000
      2645       882  TIP3  H1           11.2129472215       -2.4867734163       -1.7581915340  CLST         882          1.0000000000
      2646       882  TIP3  H2           11.5911917015       -2.2155491805       -0.5979833071  CLST         882          1.0000000000
      2647       883  TIP3  OH2           1.6632201201       -9.7358165559       -4.4527367631  CLST         883          1.0000000000
      2648       883  TIP3  H1            2.3152594072       -9.5497002206       -3.8439284991  CLST         883          1.0000000000
      2649       883  TIP3  H2            2.3835774673       -9.7682882583       -5.1252100131  CLST         883          1.0000000000
      2650       884  TIP3  OH2         -14.2170493499       -6.0674508217      -13.0484781023  CLST         884          1.0000000000
      2651       884  TIP3  H1          -13.7356857915       -6.9374593494      -13.0105096268  CLST         884          1.0000000000
      2652       884  TIP3  H2          -14.7079391798       -6.6875798097      -12.4040254722  CLST         884          1.0000000000
      2653       885  TIP3  OH2           1.0352339749       14.4712326023       -0.7645898087  CLST         885          1.0000000000
      2654       885  TIP3  H1            0.1316962547       14.5748756916       -0.3960643613  CLST         885          1.0000000000
      2655       885  TIP3  H2            0.9099035484       13.6648536178       -0.2568938936  CLST         885          1.0000000000
      2656       886  TIP3  OH2          11.7763434245       10.0934798077        4.1488330062  CLST         886          1.0000000000
      2657       886  TIP3  H1           12.1412592166        9.4757922003        4.9876438295  CLST         886          1.0000000000
      2658       886  TIP3  H2           11.5227051215       10.1968902057        5.2240588137  CLST         886          1.0000000000
      2659       887  TIP3  OH2          -7.3121976838       -8.1148595104       -1.8654674126  CLST         887          1.0000000000
      2660       887  TIP3  H1           -6.9001445343       -8.9776462809       -2.0056780311  CLST         887          1.0000000000
      2661       887  TIP3  H2           -6.4480976810       -7.8987586050       -1.4391783127  CLST         887          1.0000000000
      2662       888  TIP3  OH2         -12.7637384767       -2.9691874840       10.3368812594  CLST         888          1.0000000000
      2663       888  TIP3  H1          -13.5567033405       -2.5852486093       10.7153942851  CLST         888          1.0000000000
      2664       888  TIP3  H2          -12.2612235100       -2.2285498616       10.7770477758  CLST         888          1.0000000000
      2665       889  TIP3  OH2           4.9756881642      -12.8273431396        8.5788037687  CLST         889          1.0000000000
      2666       889  TIP3  H1            5.2419735705      -12.7592158103        7.6501105132  CLST         889          1.0000000000
      2667       889  TIP3  H2            5.1214625647      -11.8818481986        8.6351667252  CLST         889          1.0000000000
      2668       890  TIP3  OH2         -13.4222141218        6.3507248421       -9.5793065865  CLST         890          1.0000000000
      2669       890  TIP3  H1          -13.1826162209        7.0702253698      -10.2140034591  CLST         890          1.0000000000
      2670       890  TIP3  H2          -14.2529385923        6.7719338576       -9.7345773692  CLST         890          1.0000000000
      2671       891  TIP3  OH2         -12.6032731994       -5.9678634557       10.9603674604  CLST         891          1.0000000000
      2672       891  TIP3  H1          -12.5947286696       -4.9965525644       10.7780524070  CLST         891          1.0000000000
      2673       891  TIP3  H2          -12.3806675289       -5.9033693617       10.0335626988  CLST         891          1.0000000000
      2674       892  TIP3  OH2           2.8497284963       13.3872641058       13.2983973181  CLST         892          1.0000000000
      2675       892  TIP3  H1            2.7950569976       13.7122314309       14.1796151142  CLST         892          1.0000000000
      2676       892  TIP3  H2            3.0998906024       12.5711286855       13.8652948404  CLST         892          1.0000000000
      2677       893  TIP3  OH2          -0.1898393114        7.1527746955        2.9798370149  CLST         893          1.0000000000
      2678       893  TIP3  H1           -0.4472687543        6.3544431966        2.9334602592  CLST         893          1.0000000000
      2679       893  TIP3  H2           -0.7819878290        6.7828879468        2.1766666323  CLST         893          1.0000000000
      2680       894  TIP3  OH2           9.2456507463       11.1741732666        0.5113157193  CLST         894          1.0000000000
      2681       894  TIP3  H1            9.8444005085       11.6576242318        0.8548120558  CLST         894          1.0000000000
      2682       894  TIP3  H2            8.4806880309       11.5540703252        0.0181608315  CLST         894          1.0000000000
      2683       895  TIP3  OH2          -9.5778500876       10.2956424191      -10.7594001471  CLST         895          1.0000000000
      2684       895  TIP3  H1          -10.1031702251       11.1059561376      -10.4833776121  CLST         895          1.0000000000
      2685       895  TIP3  H2           -8.9966966407       10.9785593829      -11.0360440206  CLST         895          1.0000000000
      2686       896  TIP3  OH2           8.0082991327       -6.6775377946       -0.3278519986  CLST         896          1.0000000000
      2687       896  TIP3  H1            7.4736264911       -7.0896641821       -1.0256824330  CLST         896          1.0000000000
      2688       896  TIP3  H2            8.7064613566       -6.9777874209       -0.9385219978  CLST         896          1.0000000000
      2689       897  TIP3  OH2           9.6714819447       -2.3851289851       -9.1994198199  CLST         897          1.0000000000
      2690       897  TIP3  H1            9.4987217282       -2.7935732339       -8.3344423132  CLST         897          1.0000000000
      2691       897  TIP3  H2            9.6055272477       -1.5545265903       -8.6970903582  CLST         897          1.0000000000
      2692       898  TIP3  OH2          13.8605917884        5.9658477279      -11.7559318546  CLST         898          1.0000000000
      2693       898  TIP3  H1           14.2877965465        5.2508581051      -11.2605200338  CLST         898          1.0000000000
      2694       898  TIP3  H2           12.9785366509        5.8682053038      -11.4213514453  CLST         898          1.0000000000
      2695       899  TIP3  OH2          14.0448368709       -6.5587711852        1.7457537542  CLST         899          1.0000000000
      2696       899  TIP3  H1           14.2519161315       -7.4770490963        1.5065756086  CLST         899          1.0000000000
      2697       899  TIP3  H2           13.7203822264       -6.6474436082        2.6565507952  CLST         899          1.0000000000
      2698       900  TIP3  OH2          -9.8403335755      -10.3397944846       10.1244917377  CLST         900          1.0000000000
      2699       900  TIP3  H1           -9.9452195645       -9.1699809434       10.3919563542  CLST         900          1.0000000000
      2700       900  TIP3  H2           -9.0940425745       -9.6754162825       10.0705243987  CLST         900          1.0000000000
      2701       901  TIP3  OH2          10.1906860621        8.6423112703       -8.6408824956  CLST         901          1.0000000000
      2702       901  TIP3  H1            9.9674516010        9.2208505815       -9.3813324348  CLST         901          1.0000000000
      2703       901  TIP3  H2            9.2299127689        8.7807647547       -8.3384252239  CLST         901          1.0000000000
      2704       902  TIP3  OH2           3.8878434075        0.2504969642        9.6528232408  CLST         902          1.0000000000
      2705       902  TIP3  H1            4.1257645453       -0.3006959485        8.9185690438  CLST         902          1.0000000000
      2706       902  TIP3  H2            3.4866332483        0.9513141318        9.1392513958  CLST         902          1.0000000000
      2707       903  TIP3  OH2          -0.8204527275        0.6999182997       -8.0836150966  CLST         903          1.0000000000
      2708       903  TIP3  H1           -0.5044941745        0.3528227261       -8.9591096160  CLST         903          1.0000000000
      2709       903  TIP3  H2           -0.4441048249       -0.1673121204       -7.8718900635  CLST         903          1.0000000000
