* Geometry rescue: EQUI at step 5000
*
        2709  EXT
         1         1  TIP3  OH2           5.5222645533        0.7255258993       -3.5197187737  CLST           1          1.0000000000
         2         1  TIP3  H1            5.2238033191        0.4297007534       -2.6441293326  CLST           1          1.0000000000
         3         1  TIP3  H2            4.6212470569        0.8416487402       -3.9375836729  CLST           1          1.0000000000
         4         2  TIP3  OH2          14.7437436829       -2.2102127030       -1.2761521243  CLST           2          1.0000000000
         5         2  TIP3  H1           13.7622313228       -2.1668177803       -1.2578287753  CLST           2          1.0000000000
         6         2  TIP3  H2           14.9391371020       -3.1552050216       -1.3950555167  CLST           2          1.0000000000
         7         3  TIP3  OH2          -8.5344635108       -6.5447987739       -7.6656327445  CLST           3          1.0000000000
         8         3  TIP3  H1           -9.4633445467       -6.2204525973       -7.6341066721  CLST           3          1.0000000000
         9         3  TIP3  H2           -8.3308925243       -6.7246945340       -8.5879875835  CLST           3          1.0000000000
        10         4  TIP3  OH2          -9.4507612749       -4.0554423131       13.0527966171  CLST           4          1.0000000000
        11         4  TIP3  H1          -10.1812588860       -4.6735889460       13.3159049376  CLST           4          1.0000000000
        12         4  TIP3  H2           -9.2135179391       -4.3842600809       12.1459866899  CLST           4          1.0000000000
        13         5  TIP3  OH2          -3.5414798371      -10.3678150737       14.3134644336  CLST           5          1.0000000000
        14         5  TIP3  H1           -3.8922528434      -11.1856065494       14.7860427164  CLST           5          1.0000000000
        15         5  TIP3  H2           -3.9138504801      -10.5693259854       13.4265649066  CLST           5          1.0000000000
        16         6  TIP3  OH2          -3.3085994078        9.5625805174       13.9812659580  CLST           6          1.0000000000
        17         6  TIP3  H1           -2.3616659613        9.8480927034       13.8250859604  CLST           6          1.0000000000
        18         6  TIP3  H2           -3.2480145662        9.4684920355       14.9391371020  CLST           6          1.0000000000
        19         7  TIP3  OH2          -4.9926165113       -1.5051330131        8.7630134362  CLST           7          1.0000000000
        20         7  TIP3  H1           -4.3919421667       -1.5226953837        7.9887814595  CLST           7          1.0000000000
        21         7  TIP3  H2           -5.5781965451       -2.2437961058        8.4400967235  CLST           7          1.0000000000
        22         8  TIP3  OH2          -7.1554529738       -4.9075309354       -1.0600219968  CLST           8          1.0000000000
        23         8  TIP3  H1           -6.9028217692       -5.0819609698       -0.1358026711  CLST           8          1.0000000000
        24         8  TIP3  H2           -6.2889788774       -4.9503518575       -1.5266476758  CLST           8          1.0000000000
        25         9  TIP3  OH2         -13.2471292419       -5.2995339551        0.3122011375  CLST           9          1.0000000000
        26         9  TIP3  H1          -14.1847430938       -5.0890866997        0.0937545087  CLST           9          1.0000000000
        27         9  TIP3  H2          -12.9299762939       -4.3609448895        0.2737578572  CLST           9          1.0000000000
        28        10  TIP3  OH2          -4.4463930722        8.0833536476       -8.4362800059  CLST          10          1.0000000000
        29        10  TIP3  H1           -4.8077219770        8.9583948350       -8.5395790700  CLST          10          1.0000000000
        30        10  TIP3  H2           -3.6368659031        7.8676248803       -8.9512963220  CLST          10          1.0000000000
        31        11  TIP3  OH2           6.0040733881       12.6248086156       10.6934879107  CLST          11          1.0000000000
        32        11  TIP3  H1            5.2168895447       13.2101620565       10.7864446693  CLST          11          1.0000000000
        33        11  TIP3  H2            5.6335839855       11.7488076683       10.9185966611  CLST          11          1.0000000000
        34        12  TIP3  OH2         -11.6722625939      -13.4159206360       -3.3898278516  CLST          12          1.0000000000
        35        12  TIP3  H1          -12.3595419119      -12.8637255709       -2.9725756548  CLST          12          1.0000000000
        36        12  TIP3  H2          -11.9785579905      -13.5692297893       -4.2885938003  CLST          12          1.0000000000
        37        13  TIP3  OH2          -0.6948776562      -10.9631435977        3.0747109699  CLST          13          1.0000000000
        38        13  TIP3  H1            0.2083493196      -11.3331929097        3.2174946055  CLST          13          1.0000000000
        39        13  TIP3  H2           -0.5813969712      -10.0563390253        3.4210664363  CLST          13          1.0000000000
        40        14  TIP3  OH2          -1.8974342744        5.0189336409        7.9380440888  CLST          14          1.0000000000
        41        14  TIP3  H1           -1.7594557673        4.9315318349        8.8768555290  CLST          14          1.0000000000
        42        14  TIP3  H2           -1.0152591534        4.7797896168        7.4991674739  CLST          14          1.0000000000
        43        15  TIP3  OH2           1.2705593898       -1.3378083243       -4.8075453724  CLST          15          1.0000000000
        44        15  TIP3  H1            0.5787392806       -0.8782772340       -4.2628353377  CLST          15          1.0000000000
        45        15  TIP3  H2            1.3129190107       -2.1955492676       -4.3107257731  CLST          15          1.0000000000
        46        16  TIP3  OH2          -4.4193651173       -6.2103082475       13.4946541420  CLST          16          1.0000000000
        47        16  TIP3  H1           -3.7236509421       -6.9000182501       13.6600461784  CLST          16          1.0000000000
        48        16  TIP3  H2           -5.0617750842       -6.3612328034       14.2150416924  CLST          16          1.0000000000
        49        17  TIP3  OH2           8.5091179545       -0.5027377149        2.6645084464  CLST          17          1.0000000000
        50        17  TIP3  H1            7.6904578642       -0.9626030105        2.9708149174  CLST          17          1.0000000000
        51        17  TIP3  H2            9.0194426072       -1.2401463807        2.3028967719  CLST          17          1.0000000000
        52        18  TIP3  OH2           2.6009775889       -8.5302448082       -8.6248926631  CLST          18          1.0000000000
        53        18  TIP3  H1            3.0370737289       -7.8369808154       -8.0987190766  CLST          18          1.0000000000
        54        18  TIP3  H2            2.6531777995       -9.2145529808       -7.8920511284  CLST          18          1.0000000000
        55        19  TIP3  OH2           6.4578053004        8.1015236072       14.3192787353  CLST          19          1.0000000000
        56        19  TIP3  H1            7.2730447619        7.6211099538       14.3455991769  CLST          19          1.0000000000
        57        19  TIP3  H2            6.6078473133        8.8906471351       14.9391371020  CLST          19          1.0000000000
        58        20  TIP3  OH2           4.1069043152        9.2638112720        8.9011762806  CLST          20          1.0000000000
        59        20  TIP3  H1            3.3189653316        9.8559919836        8.7573902460  CLST          20          1.0000000000
        60        20  TIP3  H2            3.7935959788        8.5679205070        8.2873640921  CLST          20          1.0000000000
        61        21  TIP3  OH2           0.5594331992       -8.3524427839        0.9968801723  CLST          21          1.0000000000
        62        21  TIP3  H1            0.6215021020       -8.1515731324        1.9778765049  CLST          21          1.0000000000
        63        21  TIP3  H2           -0.3341232788       -8.8175147147        1.0939376387  CLST          21          1.0000000000
        64        22  TIP3  OH2          11.3279670008       -9.8197312767       10.2734285703  CLST          22          1.0000000000
        65        22  TIP3  H1           10.8246367038       -9.4786370374        9.4986282583  CLST          22          1.0000000000
        66        22  TIP3  H2           11.1824780260      -10.7865369735       10.1125065918  CLST          22          1.0000000000
        67        23  TIP3  OH2          12.4180179169      -14.1588006907      -10.8972135443  CLST          23          1.0000000000
        68        23  TIP3  H1           12.1637376807      -14.9391371020      -10.3582594700  CLST          23          1.0000000000
        69        23  TIP3  H2           13.2858575431      -14.0707425159      -10.5544147799  CLST          23          1.0000000000
        70        24  TIP3  OH2          13.1759677885       -7.6641580607       14.2703419326  CLST          24          1.0000000000
        71        24  TIP3  H1           12.5447669141       -7.4218679721       13.5838710253  CLST          24          1.0000000000
        72        24  TIP3  H2           12.5325601419       -8.0596098818       14.8661568090  CLST          24          1.0000000000
        73        25  TIP3  OH2           0.1547863271       -5.7061823447        5.6261447249  CLST          25          1.0000000000
        74        25  TIP3  H1           -0.4269888991       -5.2555207324        4.9681922300  CLST          25          1.0000000000
        75        25  TIP3  H2           -0.4834495373       -6.3354622403        6.0514700084  CLST          25          1.0000000000
        76        26  TIP3  OH2          -5.3209834249       -5.6240616261       -8.0369676547  CLST          26          1.0000000000
        77        26  TIP3  H1           -6.0268525413       -6.3036447701       -8.1513629516  CLST          26          1.0000000000
        78        26  TIP3  H2           -4.8500752995       -5.7651091394       -8.8906093810  CLST          26          1.0000000000
        79        27  TIP3  OH2           3.8101636222       12.3753729216       -0.7636814049  CLST          27          1.0000000000
        80        27  TIP3  H1            4.7396754332       12.2424952257       -0.4063487511  CLST          27          1.0000000000
        81        27  TIP3  H2            3.8286206153       13.3352172324       -0.9316801164  CLST          27          1.0000000000
        82        28  TIP3  OH2          -5.0825086487       -6.2287762671        6.8001171500  CLST          28          1.0000000000
        83        28  TIP3  H1           -4.1137151029       -6.5060778649        6.7149943348  CLST          28          1.0000000000
        84        28  TIP3  H2           -5.3297920584       -6.6172308054        5.9044825088  CLST          28          1.0000000000
        85        29  TIP3  OH2           3.9516820991      -10.1725376401       12.9774871707  CLST          29          1.0000000000
        86        29  TIP3  H1            4.8472782486       -9.8598195755       13.1476319137  CLST          29          1.0000000000
        87        29  TIP3  H2            3.3744646384       -9.4385677582       13.1852074981  CLST          29          1.0000000000
        88        30  TIP3  OH2          -0.9582724893       -3.3992352962       11.8854750914  CLST          30          1.0000000000
        89        30  TIP3  H1           -1.3094613432       -4.1122123414       12.4644906293  CLST          30          1.0000000000
        90        30  TIP3  H2           -0.4671428175       -2.8718259321       12.5373557190  CLST          30          1.0000000000
        91        31  TIP3  OH2          -5.4714338051      -10.0973034067       -9.7798506383  CLST          31          1.0000000000
        92        31  TIP3  H1           -6.4272499016      -10.0082050072       -9.5773884324  CLST          31          1.0000000000
        93        31  TIP3  H2           -5.1312612835       -9.4339748710       -9.1694634858  CLST          31          1.0000000000
        94        32  TIP3  OH2           4.0923668248        6.7323114323       14.7700111451  CLST          32          1.0000000000
        95        32  TIP3  H1            4.8959125377        7.1713224721       14.4843841656  CLST          32          1.0000000000
        96        32  TIP3  H2            3.4266938798        6.6186264532       14.0725902282  CLST          32          1.0000000000
        97        33  TIP3  OH2           1.8473422563       -5.4164572348       11.8553984206  CLST          33          1.0000000000
        98        33  TIP3  H1            1.6295798810       -4.7423480578       12.5400532082  CLST          33          1.0000000000
        99        33  TIP3  H2            1.8623368631       -4.8230380978       11.0538435841  CLST          33          1.0000000000
       100        34  TIP3  OH2         -12.5380541302       -6.6155924866        5.7384204404  CLST          34          1.0000000000
       101        34  TIP3  H1          -12.6797150604       -6.1803716496        4.8429889394  CLST          34          1.0000000000
       102        34  TIP3  H2          -13.4723854774       -6.8023203804        5.9227818435  CLST          34          1.0000000000
       103        35  TIP3  OH2         -12.6079925130        9.1348674382       14.0589040653  CLST          35          1.0000000000
       104        35  TIP3  H1          -13.1742270795        9.8439170549       13.6113757420  CLST          35          1.0000000000
       105        35  TIP3  H2          -12.6554303162        9.5213581087       14.9391371020  CLST          35          1.0000000000
       106        36  TIP3  OH2           6.5170031144       -8.5177918796      -11.7625874238  CLST          36          1.0000000000
       107        36  TIP3  H1            7.0996926653       -8.4567133977      -10.9729317490  CLST          36          1.0000000000
       108        36  TIP3  H2            7.0002941899       -9.2723272946      -12.1632077386  CLST          36          1.0000000000
       109        37  TIP3  OH2          10.4687767340      -11.8091243361        6.7112101845  CLST          37          1.0000000000
       110        37  TIP3  H1            9.6367961692      -11.6694496663        7.2324274380  CLST          37          1.0000000000
       111        37  TIP3  H2           10.8956975750      -12.4061536767        7.4220620925  CLST          37          1.0000000000
       112        38  TIP3  OH2           5.8225630476      -12.2319075607       -0.7424976856  CLST          38          1.0000000000
       113        38  TIP3  H1            6.5781288748      -12.7478271789       -0.3753074404  CLST          38          1.0000000000
       114        38  TIP3  H2            5.8375801365      -12.5311745728       -1.6667173867  CLST          38          1.0000000000
       115        39  TIP3  OH2          13.3061551338        6.5363464269       -6.8224821966  CLST          39          1.0000000000
       116        39  TIP3  H1           13.4023312511        5.6538521595       -7.2392351056  CLST          39          1.0000000000
       117        39  TIP3  H2           12.5045747606        6.3359763309       -6.2702177795  CLST          39          1.0000000000
       118        40  TIP3  OH2          -4.9470873546       14.3285018411       -6.0271472240  CLST          40          1.0000000000
       119        40  TIP3  H1           -5.6488875243       14.4959020761       -5.3612584458  CLST          40          1.0000000000
       120        40  TIP3  H2           -4.4670841552       13.6644321216       -5.4860767518  CLST          40          1.0000000000
       121        41  TIP3  OH2          11.1475564219        5.5376647437      -11.0329734828  CLST          41          1.0000000000
       122        41  TIP3  H1           11.1221928700        4.9013700624      -11.7865101017  CLST          41          1.0000000000
       123        41  TIP3  H2           10.5211165510        6.2292131694      -11.3669523768  CLST          41          1.0000000000
       124        42  TIP3  OH2          -1.2430025567       -6.7439589013       -2.0652456838  CLST          42          1.0000000000
       125        42  TIP3  H1           -1.4055128558       -5.8551895810       -2.4328290466  CLST          42          1.0000000000
       126        42  TIP3  H2           -1.2520652498       -7.2557638573       -2.9025675385  CLST          42          1.0000000000
       127        43  TIP3  OH2           9.9690339362      -10.9083343787       -1.9518949127  CLST          43          1.0000000000
       128        43  TIP3  H1            9.5069942034      -11.2105853948       -1.1394485064  CLST          43          1.0000000000
       129        43  TIP3  H2            9.9004609939      -11.7144226969       -2.4866343327  CLST          43          1.0000000000
       130        44  TIP3  OH2           0.4299432238       -3.1475428240        6.6840100417  CLST          44          1.0000000000
       131        44  TIP3  H1           -0.3462985227       -2.9123525698        7.2536291257  CLST          44          1.0000000000
       132        44  TIP3  H2            0.2950512688       -4.1178769732        6.7803889199  CLST          44          1.0000000000
       133        45  TIP3  OH2           4.8913413710       -6.5084019047        9.2857066808  CLST          45          1.0000000000
       134        45  TIP3  H1            4.6966314582       -5.5563590367        9.1147377309  CLST          45          1.0000000000
       135        45  TIP3  H2            5.0132513402       -6.4778456191       10.2527306629  CLST          45          1.0000000000
       136        46  TIP3  OH2           7.8071832636        4.6216331338       -8.0419159395  CLST          46          1.0000000000
       137        46  TIP3  H1            7.1102669999        5.1798660475       -7.6921332994  CLST          46          1.0000000000
       138        46  TIP3  H2            7.3791385503        4.4510618690       -8.9208643868  CLST          46          1.0000000000
       139        47  TIP3  OH2         -11.1551151909      -11.0535593376        3.1387498031  CLST          47          1.0000000000
       140        47  TIP3  H1          -11.3305910091      -10.3073488303        3.7715411468  CLST          47          1.0000000000
       141        47  TIP3  H2          -10.8241378436      -11.6595856815        3.9105068780  CLST          47          1.0000000000
       142        48  TIP3  OH2         -14.5442863838        9.4097759006        8.6442118807  CLST          48          1.0000000000
       143        48  TIP3  H1          -14.5278680947        9.6016432785        7.6903477374  CLST          48          1.0000000000
       144        48  TIP3  H2          -13.7731040083        9.9489724645        8.8664271538  CLST          48          1.0000000000
       145        49  TIP3  OH2           8.7809940569       -4.6062507986        4.2139162027  CLST          49          1.0000000000
       146        49  TIP3  H1            8.0230954378       -4.8652466239        3.6478277947  CLST          49          1.0000000000
       147        49  TIP3  H2            9.5621111859       -4.6669689524        3.6205275312  CLST          49          1.0000000000
       148        50  TIP3  OH2          11.1497400626        5.7868334398       -5.2078658850  CLST          50          1.0000000000
       149        50  TIP3  H1           11.3793685834        5.2386605021       -4.4165320530  CLST          50          1.0000000000
       150        50  TIP3  H2           10.2165652811        5.4652206806       -5.1724732923  CLST          50          1.0000000000
       151        51  TIP3  OH2          12.8767254256       -1.2980481885      -10.6233307453  CLST          51          1.0000000000
       152        51  TIP3  H1           13.1533879354       -2.0594114820      -11.1837591983  CLST          51          1.0000000000
       153        51  TIP3  H2           12.4911743162       -0.7329695083      -11.3553297440  CLST          51          1.0000000000
       154        52  TIP3  OH2          -1.6836163616       -1.3514563447       10.2394922344  CLST          52          1.0000000000
       155        52  TIP3  H1           -2.5576721486       -0.9872945810       10.5165365471  CLST          52          1.0000000000
       156        52  TIP3  H2           -1.4976794154       -1.9682339373       10.9910065805  CLST          52          1.0000000000
       157        53  TIP3  OH2         -11.1511231897       14.0858064119       -6.5979965786  CLST          53          1.0000000000
       158        53  TIP3  H1          -11.6206715896       14.9391371020       -6.3783095509  CLST          53          1.0000000000
       159        53  TIP3  H2          -10.2559919986       14.4177420342       -6.6846912144  CLST          53          1.0000000000
       160        54  TIP3  OH2         -13.7539320382       -5.2582008743       -8.2851362199  CLST          54          1.0000000000
       161        54  TIP3  H1          -12.7818924591       -5.3533527529       -8.3435537343  CLST          54          1.0000000000
       162        54  TIP3  H2          -14.0233107028       -4.7089521536       -9.0694788822  CLST          54          1.0000000000
       163        55  TIP3  OH2           0.3365099411        9.4399544188      -10.5821129568  CLST          55          1.0000000000
       164        55  TIP3  H1           -0.5666390260        9.7248831584      -10.8169935766  CLST          55          1.0000000000
       165        55  TIP3  H2            0.6463081772       10.2228554579      -10.0007004358  CLST          55          1.0000000000
       166        56  TIP3  OH2          -1.4536764191       -5.1441256710       14.0129442122  CLST          56          1.0000000000
       167        56  TIP3  H1           -2.0498163143       -4.6731289533       14.5645172979  CLST          56          1.0000000000
       168        56  TIP3  H2           -1.7395146184       -6.0639834865       14.0180356376  CLST          56          1.0000000000
       169        57  TIP3  OH2         -10.5394064721       11.2368640217       -1.6826911895  CLST          57          1.0000000000
       170        57  TIP3  H1          -10.8218217035       11.3878192691       -0.7548262968  CLST          57          1.0000000000
       171        57  TIP3  H2          -11.4736297728       11.3753188515       -2.0364653602  CLST          57          1.0000000000
       172        58  TIP3  OH2           9.6175965522        1.4256441138        0.1583697108  CLST          58          1.0000000000
       173        58  TIP3  H1            8.7065328313        1.0888648812        0.1327290237  CLST          58          1.0000000000
       174        58  TIP3  H2            9.4238454351        2.2847880272        0.6199243932  CLST          58          1.0000000000
       175        59  TIP3  OH2         -13.1052878774       12.9763795653        5.2056503741  CLST          59          1.0000000000
       176        59  TIP3  H1          -12.9958861814       13.1364646962        4.2329328924  CLST          59          1.0000000000
       177        59  TIP3  H2          -12.2025393255       12.6733115767        5.3246956093  CLST          59          1.0000000000
       178        60  TIP3  OH2          -3.8897231924        3.3056194604        7.1520345352  CLST          60          1.0000000000
       179        60  TIP3  H1           -3.3224865956        2.5474098464        7.3691822548  CLST          60          1.0000000000
       180        60  TIP3  H2           -3.2579592145        4.0338364791        7.3938426926  CLST          60          1.0000000000
       181        61  TIP3  OH2           0.8061925730       -2.0450443938        0.5458740151  CLST          61          1.0000000000
       182        61  TIP3  H1            0.3279621812       -1.4405164866        1.1735839203  CLST          61          1.0000000000
       183        61  TIP3  H2            0.1270237887       -2.7478537928        0.4717433122  CLST          61          1.0000000000
       184        62  TIP3  OH2          -3.7663531885        8.9065190734        4.3926463364  CLST          62          1.0000000000
       185        62  TIP3  H1           -3.2299126378        8.2042693218        4.8440382093  CLST          62          1.0000000000
       186        62  TIP3  H2           -3.0565740166        9.5182357488        4.0803981709  CLST          62          1.0000000000
       187        63  TIP3  OH2          -0.2517167204        7.7638610778       -2.8110794684  CLST          63          1.0000000000
       188        63  TIP3  H1           -0.6199808292        8.3887157252       -3.5201613958  CLST          63          1.0000000000
       189        63  TIP3  H2           -0.8600881601        8.0849383948       -2.0724880978  CLST          63          1.0000000000
       190        64  TIP3  OH2         -13.5598362524        3.4127133320       -3.6493955289  CLST          64          1.0000000000
       191        64  TIP3  H1          -12.9195018614        4.1282783834       -3.4404329119  CLST          64          1.0000000000
       192        64  TIP3  H2          -14.3590604974        3.9335244868       -3.6219696455  CLST          64          1.0000000000
       193        65  TIP3  OH2          -9.4710484154      -12.0527230633      -11.8291856862  CLST          65          1.0000000000
       194        65  TIP3  H1           -9.4391953921      -12.3951836774      -10.9420594850  CLST          65          1.0000000000
       195        65  TIP3  H2          -10.4350885151      -11.8214259401      -11.9235850099  CLST          65          1.0000000000
       196        66  TIP3  OH2          13.0407695339       -7.9692871557        3.6463075310  CLST          66          1.0000000000
       197        66  TIP3  H1           13.1906961315       -8.6653511517        2.9710648005  CLST          66          1.0000000000
       198        66  TIP3  H2           12.7123253362       -8.5859273044        4.3450871588  CLST          66          1.0000000000
       199        67  TIP3  OH2           7.5132357569       -0.5159660800       -6.3597234719  CLST          67          1.0000000000
       200        67  TIP3  H1            7.9898435382       -1.2299882622       -5.8645455704  CLST          67          1.0000000000
       201        67  TIP3  H2            8.2117821129       -0.2093222025       -6.9319445006  CLST          67          1.0000000000
       202        68  TIP3  OH2          -6.9750746949        1.3198547192        0.8648785452  CLST          68          1.0000000000
       203        68  TIP3  H1           -7.5966525542        0.6989331727        1.3237683231  CLST          68          1.0000000000
       204        68  TIP3  H2           -7.0971032833        2.0575040228        1.5481184467  CLST          68          1.0000000000
       205        69  TIP3  OH2         -11.7309710117       -0.6197188625        7.0923977230  CLST          69          1.0000000000
       206        69  TIP3  H1          -10.7710588183       -0.7615970641        7.2969567569  CLST          69          1.0000000000
       207        69  TIP3  H2          -11.7357802052        0.3536144713        7.3541453086  CLST          69          1.0000000000
       208        70  TIP3  OH2          -1.7657185465        7.4161696599       -8.2813483683  CLST          70          1.0000000000
       209        70  TIP3  H1           -0.8005224165        7.2680651734       -8.5134742507  CLST          70          1.0000000000
       210        70  TIP3  H2           -1.5778844106        8.2884406423       -7.8245296063  CLST          70          1.0000000000
       211        71  TIP3  OH2         -13.5142183509       -1.6699830929       -5.4876610662  CLST          71          1.0000000000
       212        71  TIP3  H1          -12.9710339996       -1.4790078058       -4.6346805955  CLST          71          1.0000000000
       213        71  TIP3  H2          -13.3554420795       -0.7345719208       -5.8083118558  CLST          71          1.0000000000
       214        72  TIP3  OH2          11.0414107759       -2.4833388636        4.8536146762  CLST          72          1.0000000000
       215        72  TIP3  H1           10.5476514996       -2.4921455770        3.9907314680  CLST          72          1.0000000000
       216        72  TIP3  H2           11.4326344560       -1.5775612313        4.7250639950  CLST          72          1.0000000000
       217        73  TIP3  OH2          -3.2642590873      -13.7215842257       -6.8380191435  CLST          73          1.0000000000
       218        73  TIP3  H1           -3.7406463677      -13.3999988142       -7.6416818483  CLST          73          1.0000000000
       219        73  TIP3  H2           -3.9529085879      -14.3897297602       -6.4469127628  CLST          73          1.0000000000
       220        74  TIP3  OH2          -4.7199785987       12.3675613747       -1.5130881922  CLST          74          1.0000000000
       221        74  TIP3  H1           -5.2523480376       11.5853126794       -1.7759967839  CLST          74          1.0000000000
       222        74  TIP3  H2           -5.4236939623       13.0243738548       -1.3639957984  CLST          74          1.0000000000
       223        75  TIP3  OH2          -9.5872969668        5.0228210109        5.5539482138  CLST          75          1.0000000000
       224        75  TIP3  H1           -8.6753301253        5.2778036956        5.8251110471  CLST          75          1.0000000000
       225        75  TIP3  H2          -10.0885734121        5.3622744230        6.3043663829  CLST          75          1.0000000000
       226        76  TIP3  OH2           8.4330788802       13.4239282208       -9.1614220170  CLST          76          1.0000000000
       227        76  TIP3  H1            8.7350163921       13.7794243244      -10.0526440410  CLST          76          1.0000000000
       228        76  TIP3  H2            9.3952508892       13.1034902099       -9.0027914551  CLST          76          1.0000000000
       229        77  TIP3  OH2           0.4921076136       -5.0516947645       -5.4494525030  CLST          77          1.0000000000
       230        77  TIP3  H1            0.7609558496       -4.9229350686       -6.3967253934  CLST          77          1.0000000000
       231        77  TIP3  H2           -0.3420436200       -5.5237613533       -5.7380310183  CLST          77          1.0000000000
       232        78  TIP3  OH2          -5.6361203745       -7.9824348771        1.6146458472  CLST          78          1.0000000000
       233        78  TIP3  H1           -5.3218505653       -7.6074423078        0.7420197430  CLST          78          1.0000000000
       234        78  TIP3  H2           -6.1385906834       -8.7525106355        1.2686021838  CLST          78          1.0000000000
       235        79  TIP3  OH2           6.7522860371      -14.5152820034       10.1901283464  CLST          79          1.0000000000
       236        79  TIP3  H1            6.4543313802      -14.5361049330       11.1485008169  CLST          79          1.0000000000
       237        79  TIP3  H2            6.0015256624      -13.9838070841        9.7611966807  CLST          79          1.0000000000
       238        80  TIP3  OH2           6.5707437028       -0.4269103571      -13.0385111518  CLST          80          1.0000000000
       239        80  TIP3  H1            6.6629607916       -0.0365317270      -13.9347489804  CLST          80          1.0000000000
       240        80  TIP3  H2            7.4832244883       -0.7033063370      -12.7957130585  CLST          80          1.0000000000
       241        81  TIP3  OH2          -7.3630401184        0.8268417158        5.8574804327  CLST          81          1.0000000000
       242        81  TIP3  H1           -8.2681139723        1.2010139880        5.8333143751  CLST          81          1.0000000000
       243        81  TIP3  H2           -6.9352319140        1.6956329642        5.6178552109  CLST          81          1.0000000000
       244        82  TIP3  OH2           2.3366446196       -1.9263995644       10.5967374615  CLST          82          1.0000000000
       245        82  TIP3  H1            2.6762640821       -1.0567675240       10.2856885187  CLST          82          1.0000000000
       246        82  TIP3  H2            3.1933762889       -2.4292791834       10.5524822887  CLST          82          1.0000000000
       247        83  TIP3  OH2          10.2775722840        8.4029447133       -5.1595183215  CLST          83          1.0000000000
       248        83  TIP3  H1           10.6685814963        7.5210911352       -5.4153850994  CLST          83          1.0000000000
       249        83  TIP3  H2           10.5896408321        8.4108781730       -4.2210199249  CLST          83          1.0000000000
       250        84  TIP3  OH2         -13.4315923752        8.3176788161       -1.3264156287  CLST          84          1.0000000000
       251        84  TIP3  H1          -14.0181629420        7.6273095451       -0.9475975215  CLST          84          1.0000000000
       252        84  TIP3  H2          -12.5872536355        7.8092128525       -1.3089142864  CLST          84          1.0000000000
       253        85  TIP3  OH2           2.6011793160       -1.5844903889        7.5596634317  CLST          85          1.0000000000
       254        85  TIP3  H1            1.8796652167       -2.1602224665        7.1525939513  CLST          85          1.0000000000
       255        85  TIP3  H2            3.1473211740       -2.2886895988        8.0068466728  CLST          85          1.0000000000
       256        86  TIP3  OH2           7.9988653520       -9.2324104199        9.8082987385  CLST          86          1.0000000000
       257        86  TIP3  H1            8.1226661368       -8.4263747926       10.3883011833  CLST          86          1.0000000000
       258        86  TIP3  H2            7.6146468349       -9.8889381274       10.4400261103  CLST          86          1.0000000000
       259        87  TIP3  OH2           0.7205604763       -1.4272273079       12.8860632791  CLST          87          1.0000000000
       260        87  TIP3  H1            1.1180585645       -1.6276327974       11.9922300884  CLST          87          1.0000000000
       261        87  TIP3  H2            0.3689855675       -0.5206657518       12.7463433800  CLST          87          1.0000000000
       262        88  TIP3  OH2          14.2830304892      -11.0980669596        7.8679461229  CLST          88          1.0000000000
       263        88  TIP3  H1           13.4176180053      -11.3312431088        8.2521469774  CLST          88          1.0000000000
       264        88  TIP3  H2           14.7538739370      -11.8346017433        8.3009535108  CLST          88          1.0000000000
       265        89  TIP3  OH2           6.8689169370       11.8654251195       -3.9659924203  CLST          89          1.0000000000
       266        89  TIP3  H1            5.8993483969       11.8096012520       -3.8011154983  CLST          89          1.0000000000
       267        89  TIP3  H2            7.0658999073       10.9777730776       -3.5570063387  CLST          89          1.0000000000
       268        90  TIP3  OH2          14.3803359361       -4.8513060214       -0.3200823222  CLST          90          1.0000000000
       269        90  TIP3  H1           13.9305117627       -5.2125653892       -1.1117916204  CLST          90          1.0000000000
       270        90  TIP3  H2           14.0697461733       -5.4862100929        0.3615280743  CLST          90          1.0000000000
       271        91  TIP3  OH2          11.2826049747       10.9237263327       -5.6678861222  CLST          91          1.0000000000
       272        91  TIP3  H1           10.9359122291       10.0121976324       -5.5032808741  CLST          91          1.0000000000
       273        91  TIP3  H2           10.6294605975       11.4081431268       -5.1710982648  CLST          91          1.0000000000
       274        92  TIP3  OH2          -6.0876865186        3.4782857121        8.9136665073  CLST          92          1.0000000000
       275        92  TIP3  H1           -5.3930953879        3.3594595077        8.2375495670  CLST          92          1.0000000000
       276        92  TIP3  H2           -6.3667482106        2.5289048890        9.0030393894  CLST          92          1.0000000000
       277        93  TIP3  OH2           5.1550620443       -6.7334519468       12.1198403374  CLST          93          1.0000000000
       278        93  TIP3  H1            5.0934620016       -5.8911474510       12.5769730196  CLST          93          1.0000000000
       279        93  TIP3  H2            5.8351247706       -7.2877301867       12.5016167442  CLST          93          1.0000000000
       280        94  TIP3  OH2          -5.9163871222       11.8866873720        4.7033069124  CLST          94          1.0000000000
       281        94  TIP3  H1           -6.1744080834       11.8737382774        3.7440291148  CLST          94          1.0000000000
       282        94  TIP3  H2           -6.1508935879       10.9340235149        4.8674939780  CLST          94          1.0000000000
       283        95  TIP3  OH2           6.2774351242       11.3457007037       -0.2871844014  CLST          95          1.0000000000
       284        95  TIP3  H1            6.6895400893       10.8587037713       -1.0273541687  CLST          95          1.0000000000
       285        95  TIP3  H2            6.0880016507       10.5521721972        0.2733857494  CLST          95          1.0000000000
       286        96  TIP3  OH2          14.9391371020       -1.0030065913       11.3231070212  CLST          96          1.0000000000
       287        96  TIP3  H1           14.8297137671       -1.5525255572       12.1356529592  CLST          96          1.0000000000
       288        96  TIP3  H2           14.0835032902       -1.2513498449       10.9454065199  CLST          96          1.0000000000
       289        97  TIP3  OH2          -8.6526820336        9.5409531814       12.7624167796  CLST          97          1.0000000000
       290        97  TIP3  H1           -8.4986875037        9.0919663492       11.8897149273  CLST          97          1.0000000000
       291        97  TIP3  H2           -7.7092531358        9.3595850836       13.0643909192  CLST          97          1.0000000000
       292        98  TIP3  OH2           1.4950797712        4.1812945621       13.9327188880  CLST          98          1.0000000000
       293        98  TIP3  H1            2.1104068471        4.7093348357       13.3719886760  CLST          98          1.0000000000
       294        98  TIP3  H2            2.0602538910        3.3972673654       14.1222968038  CLST          98          1.0000000000
       295        99  TIP3  OH2         -12.5968920732       12.0744211840       -5.2975105794  CLST          99          1.0000000000
       296        99  TIP3  H1          -13.1899824277       12.1475520102       -6.0874815295  CLST          99          1.0000000000
       297        99  TIP3  H2          -11.9705436787       12.8233378068       -5.6805563239  CLST          99          1.0000000000
       298       100  TIP3  OH2           9.0127021581       -3.8579259861       -6.8252270207  CLST         100          1.0000000000
       299       100  TIP3  H1            8.1953449242       -3.7436182600       -6.3323899540  CLST         100          1.0000000000
       300       100  TIP3  H2            9.1556882643       -4.5915805910       -6.2506454819  CLST         100          1.0000000000
       301       101  TIP3  OH2          11.6696383387        2.2354112240      -10.3339258740  CLST         101          1.0000000000
       302       101  TIP3  H1           11.0801323669        2.9124615986       -9.9851943785  CLST         101          1.0000000000
       303       101  TIP3  H2           11.8350572348        1.9636845754       -9.4388015800  CLST         101          1.0000000000
       304       102  TIP3  OH2          -7.0363210650        2.5846684659      -13.0592904955  CLST         102          1.0000000000
       305       102  TIP3  H1           -7.8850989154        2.1565703041      -13.4403165507  CLST         102          1.0000000000
       306       102  TIP3  H2           -7.4445506505        3.4341220381      -12.7492765792  CLST         102          1.0000000000
       307       103  TIP3  OH2          -4.1420402769      -14.2197204100      -11.3029641463  CLST         103          1.0000000000
       308       103  TIP3  H1           -4.5135446022      -14.9279520696      -11.7950142756  CLST         103          1.0000000000
       309       103  TIP3  H2           -4.9520808098      -13.7709387039      -11.6579612227  CLST         103          1.0000000000
       310       104  TIP3  OH2         -11.0164402688      -11.5989651838        7.8206467159  CLST         104          1.0000000000
       311       104  TIP3  H1          -10.1571623266      -10.7764209677        7.7502292534  CLST         104          1.0000000000
       312       104  TIP3  H2          -10.8477286277      -11.1156768152        8.6261344176  CLST         104          1.0000000000
       313       105  TIP3  OH2           4.4694644776       -0.4002698316       14.1855408497  CLST         105          1.0000000000
       314       105  TIP3  H1            4.1226273215       -1.2847212326       14.3217676847  CLST         105          1.0000000000
       315       105  TIP3  H2            4.8243414411       -0.8484680810       13.3881966365  CLST         105          1.0000000000
       316       106  TIP3  OH2          14.4899371225       -1.4447137378        4.5803937512  CLST         106          1.0000000000
       317       106  TIP3  H1           14.8434736135       -0.7246291489        5.1098360795  CLST         106          1.0000000000
       318       106  TIP3  H2           13.7120886821       -0.8902991155        4.5823445689  CLST         106          1.0000000000
       319       107  TIP3  OH2           1.5425545658      -12.4614503824       -7.2777779885  CLST         107          1.0000000000
       320       107  TIP3  H1            0.9167049643      -11.7702769798       -7.1161663382  CLST         107          1.0000000000
       321       107  TIP3  H2            1.4137738543      -12.5951202088       -6.3325405081  CLST         107          1.0000000000
       322       108  TIP3  OH2          -6.9760035500       -3.8894864702       14.2626016587  CLST         108          1.0000000000
       323       108  TIP3  H1           -6.9082280961       -3.9016839230       13.2830445058  CLST         108          1.0000000000
       324       108  TIP3  H2           -7.9977768690       -4.0091063037       14.1228050988  CLST         108          1.0000000000
       325       109  TIP3  OH2          -4.2362333896       -1.0495254310       11.4543815537  CLST         109          1.0000000000
       326       109  TIP3  H1           -4.4676104928       -1.9776752833       11.6804890159  CLST         109          1.0000000000
       327       109  TIP3  H2           -4.6188592177       -1.0313903162       10.5442197368  CLST         109          1.0000000000
       328       110  TIP3  OH2           1.3436075271       -3.7554621730       -3.1359804963  CLST         110          1.0000000000
       329       110  TIP3  H1            1.0791649070       -4.3352016152       -3.9129825980  CLST         110          1.0000000000
       330       110  TIP3  H2            0.4511577497       -3.6991308449       -2.7615917004  CLST         110          1.0000000000
       331       111  TIP3  OH2          -4.9190566615       -0.7907622842       -6.0905639488  CLST         111          1.0000000000
       332       111  TIP3  H1           -4.4966926415       -0.2860330656       -6.9878097012  CLST         111          1.0000000000
       333       111  TIP3  H2           -4.5025546637       -1.4029042399       -6.7085513231  CLST         111          1.0000000000
       334       112  TIP3  OH2           1.7788788965      -12.3760653633       -4.6760362439  CLST         112          1.0000000000
       335       112  TIP3  H1            1.8432963862      -12.7181660743       -3.7787407457  CLST         112          1.0000000000
       336       112  TIP3  H2            1.6312482074      -11.5815198750       -4.1054552630  CLST         112          1.0000000000
       337       113  TIP3  OH2          13.8155161900        5.7242475310       12.4550558075  CLST         113          1.0000000000
       338       113  TIP3  H1           13.5313571922        6.5021896239       11.9799651641  CLST         113          1.0000000000
       339       113  TIP3  H2           14.5872074076        5.8415249825       11.8198581573  CLST         113          1.0000000000
       340       114  TIP3  OH2          -5.1105670712      -11.2371922460       -4.6967000324  CLST         114          1.0000000000
       341       114  TIP3  H1           -5.1223918142      -10.2828048700       -4.7870374522  CLST         114          1.0000000000
       342       114  TIP3  H2           -4.1974716236      -11.0864506647       -4.9811034871  CLST         114          1.0000000000
       343       115  TIP3  OH2           4.7732588393      -13.9731591836       -8.9758521585  CLST         115          1.0000000000
       344       115  TIP3  H1            4.4920541012      -14.7885260154       -9.4694452190  CLST         115          1.0000000000
       345       115  TIP3  H2            4.0460620454      -13.8701343604       -9.8392191407  CLST         115          1.0000000000
       346       116  TIP3  OH2           8.3177284822        5.8951986709      -14.0159364087  CLST         116          1.0000000000
       347       116  TIP3  H1            9.0952992884        5.3569909617      -14.0698937604  CLST         116          1.0000000000
       348       116  TIP3  H2            7.9566248464        5.3776754055      -13.3383089154  CLST         116          1.0000000000
       349       117  TIP3  OH2          -0.4630788874        1.3019122761       13.1007366406  CLST         117          1.0000000000
       350       117  TIP3  H1           -0.7251933575        1.5461399249       14.0072075282  CLST         117          1.0000000000
       351       117  TIP3  H2           -0.3097721430        2.2266168015       12.9214370922  CLST         117          1.0000000000
       352       118  TIP3  OH2          12.5265959926       -9.9052459536       -6.8120823636  CLST         118          1.0000000000
       353       118  TIP3  H1           11.7870121364       -9.5297986890       -6.3037233800  CLST         118          1.0000000000
       354       118  TIP3  H2           12.9556998049       -9.2399427550       -6.2172794034  CLST         118          1.0000000000
       355       119  TIP3  OH2         -12.2476835668       -1.1639521630        4.4441062585  CLST         119          1.0000000000
       356       119  TIP3  H1          -11.3436628848       -1.3973938476        4.2281944677  CLST         119          1.0000000000
       357       119  TIP3  H2          -11.9369707965       -1.0252132380        5.3622089143  CLST         119          1.0000000000
       358       120  TIP3  OH2         -11.5205203700        4.1481302299       -7.9561969037  CLST         120          1.0000000000
       359       120  TIP3  H1          -12.2689737189        4.6405448341       -8.4198805983  CLST         120          1.0000000000
       360       120  TIP3  H2          -12.4334111313        3.9069354716       -7.5029864557  CLST         120          1.0000000000
       361       121  TIP3  OH2          -5.9181942544       -7.2976447252        4.3202947364  CLST         121          1.0000000000
       362       121  TIP3  H1           -5.7335471942       -7.4199004375        3.3556833643  CLST         121          1.0000000000
       363       121  TIP3  H2           -6.7914050135       -6.9018206761        4.0431860363  CLST         121          1.0000000000
       364       122  TIP3  OH2           9.4113431250       -7.3821831680       -6.3855637210  CLST         122          1.0000000000
       365       122  TIP3  H1            8.9581060115       -8.0513870699       -6.9840386824  CLST         122          1.0000000000
       366       122  TIP3  H2            9.9261217788       -7.3697449813       -7.2774959345  CLST         122          1.0000000000
       367       123  TIP3  OH2          -6.9442660682      -10.3890716349        0.5477071814  CLST         123          1.0000000000
       368       123  TIP3  H1           -7.3755428888      -10.4481341047       -0.3141599392  CLST         123          1.0000000000
       369       123  TIP3  H2           -7.8011625539      -10.3264537899        0.9422745877  CLST         123          1.0000000000
       370       124  TIP3  OH2         -12.9905788905       -2.2117925003       -9.6170385343  CLST         124          1.0000000000
       371       124  TIP3  H1          -13.8769122051       -2.5827656600       -9.6850880630  CLST         124          1.0000000000
       372       124  TIP3  H2          -12.7580574712       -3.0011165881      -10.0609562335  CLST         124          1.0000000000
       373       125  TIP3  OH2           6.6444249830        2.6988803750       -5.3053333364  CLST         125          1.0000000000
       374       125  TIP3  H1            6.3571936568        1.8842115432       -4.8116489544  CLST         125          1.0000000000
       375       125  TIP3  H2            6.0869046181        2.4069787590       -6.0552055822  CLST         125          1.0000000000
       376       126  TIP3  OH2          12.4039833685       -9.8972685520        5.5106870012  CLST         126          1.0000000000
       377       126  TIP3  H1           13.2743642369      -10.1880765254        5.8826820054  CLST         126          1.0000000000
       378       126  TIP3  H2           11.9304996479      -10.6520006004        5.9648979432  CLST         126          1.0000000000
       379       127  TIP3  OH2         -10.4308207584       -6.1263047719       -5.0733832633  CLST         127          1.0000000000
       380       127  TIP3  H1          -10.1878298555       -5.7809057433       -4.1922787805  CLST         127          1.0000000000
       381       127  TIP3  H2           -9.5302670090       -6.4622679908       -5.0685207662  CLST         127          1.0000000000
       382       128  TIP3  OH2          -5.9414929417       -3.3576617155        6.9586344896  CLST         128          1.0000000000
       383       128  TIP3  H1           -5.4932865897       -4.2363097987        7.1819793750  CLST         128          1.0000000000
       384       128  TIP3  H2           -5.6183728507       -3.0775226949        6.0969544267  CLST         128          1.0000000000
       385       129  TIP3  OH2         -11.8167117323      -14.4969970157      -10.6018564901  CLST         129          1.0000000000
       386       129  TIP3  H1          -10.9507529702      -14.2766221443      -10.4024399221  CLST         129          1.0000000000
       387       129  TIP3  H2          -11.9672811772      -14.9064486101       -9.7459140996  CLST         129          1.0000000000
       388       130  TIP3  OH2           9.0225421538       -0.7825944675       13.6497335836  CLST         130          1.0000000000
       389       130  TIP3  H1            8.4123353414       -1.4084765195       14.0762015078  CLST         130          1.0000000000
       390       130  TIP3  H2            8.0536017489       -0.4438292532       13.5054235274  CLST         130          1.0000000000
       391       131  TIP3  OH2          -9.7295047765      -11.1336985157       -1.1864681889  CLST         131          1.0000000000
       392       131  TIP3  H1           -9.0832295421      -11.7991369388       -0.8131773200  CLST         131          1.0000000000
       393       131  TIP3  H2          -10.2554249837      -11.5275780982       -0.4424652616  CLST         131          1.0000000000
       394       132  TIP3  OH2           9.3344131223       -2.5116630726        9.6028464467  CLST         132          1.0000000000
       395       132  TIP3  H1           10.1295418594       -2.2503994671        9.0989477205  CLST         132          1.0000000000
       396       132  TIP3  H2            9.4187616240       -1.5413307775        9.8376804275  CLST         132          1.0000000000
       397       133  TIP3  OH2          -9.5141547418       -8.1386711593        7.5169812374  CLST         133          1.0000000000
       398       133  TIP3  H1           -8.5439730099       -8.1720658532        7.7244797291  CLST         133          1.0000000000
       399       133  TIP3  H2           -9.1190553369       -7.6697085956        6.7292374936  CLST         133          1.0000000000
       400       134  TIP3  OH2          -8.9352584191      -12.2533462608       14.4958596602  CLST         134          1.0000000000
       401       134  TIP3  H1           -9.2002360836      -12.1250082169       13.7115154518  CLST         134          1.0000000000
       402       134  TIP3  H2           -9.0135385875      -11.1274144354       14.1829609832  CLST         134          1.0000000000
       403       135  TIP3  OH2          -8.9707307759       10.6347886188        3.5653566992  CLST         135          1.0000000000
       404       135  TIP3  H1           -8.9303561801       10.0806541535        2.6939385878  CLST         135          1.0000000000
       405       135  TIP3  H2           -8.0769893529       10.2753136599        3.6701659992  CLST         135          1.0000000000
       406       136  TIP3  OH2          -5.5458019821       13.0254314258      -11.3327218939  CLST         136          1.0000000000
       407       136  TIP3  H1           -5.3200320822       13.3436074845      -10.4364307097  CLST         136          1.0000000000
       408       136  TIP3  H2           -6.0550289401       13.8465409254      -11.3084779127  CLST         136          1.0000000000
       409       137  TIP3  OH2          -5.5879607157      -10.8577635563        7.5969767903  CLST         137          1.0000000000
       410       137  TIP3  H1           -5.2549697229      -11.2651835406        6.9816124734  CLST         137          1.0000000000
       411       137  TIP3  H2           -4.5136980544      -11.4334314375        7.6156887196  CLST         137          1.0000000000
       412       138  TIP3  OH2           9.7129905478        8.4741660322       10.8712132739  CLST         138          1.0000000000
       413       138  TIP3  H1            9.8188845363        8.1997780812       12.0323388080  CLST         138          1.0000000000
       414       138  TIP3  H2           10.3038485702        9.0887941200       11.4101946826  CLST         138          1.0000000000
       415       139  TIP3  OH2           2.1757146893        9.8931792851       12.1965344815  CLST         139          1.0000000000
       416       139  TIP3  H1            3.2078752715        9.8749350977       12.1330929695  CLST         139          1.0000000000
       417       139  TIP3  H2            2.3887578372        8.9911422677       12.5989762457  CLST         139          1.0000000000
       418       140  TIP3  OH2          -3.2206059556       -1.4166969897       -8.2234116329  CLST         140          1.0000000000
       419       140  TIP3  H1           -2.7210085509       -0.6704814522       -7.9016223785  CLST         140          1.0000000000
       420       140  TIP3  H2           -2.6576037829       -2.1550305672       -8.0413088458  CLST         140          1.0000000000
       421       141  TIP3  OH2         -12.8562479341        5.3130182679       12.5440434079  CLST         141          1.0000000000
       422       141  TIP3  H1          -12.2163082578        6.0961089287       12.4515809574  CLST         141          1.0000000000
       423       141  TIP3  H2          -12.2466110500        5.4387911087       13.0592135633  CLST         141          1.0000000000
       424       142  TIP3  OH2          14.9391371020       -6.5838737254        5.3608270511  CLST         142          1.0000000000
       425       142  TIP3  H1           14.2294034992       -7.0207987658        4.8105529458  CLST         142          1.0000000000
       426       142  TIP3  H2           14.7639292335       -7.1769675491        6.1190621030  CLST         142          1.0000000000
       427       143  TIP3  OH2           6.5265154165       -6.7467844449        1.8090718170  CLST         143          1.0000000000
       428       143  TIP3  H1            6.8518502756       -6.6823793796        0.8775551795  CLST         143          1.0000000000
       429       143  TIP3  H2            5.7045106791       -6.8557746671        1.2310462700  CLST         143          1.0000000000
       430       144  TIP3  OH2          -1.2976694726      -13.9495321477        7.8830114561  CLST         144          1.0000000000
       431       144  TIP3  H1           -0.8792838069      -14.1849494373        6.9729609212  CLST         144          1.0000000000
       432       144  TIP3  H2           -0.8857783732      -14.8113935196        8.1303798151  CLST         144          1.0000000000
       433       145  TIP3  OH2           1.7201157867        7.3514588772       13.4779131817  CLST         145          1.0000000000
       434       145  TIP3  H1            0.9545550445        7.5977552234       13.9890950080  CLST         145          1.0000000000
       435       145  TIP3  H2            1.1826835978        6.8714225335       12.8645491414  CLST         145          1.0000000000
       436       146  TIP3  OH2          -5.9785663311       10.4339199125       -8.5046011100  CLST         146          1.0000000000
       437       146  TIP3  H1           -5.6004589869       11.3227159925       -8.6130547091  CLST         146          1.0000000000
       438       146  TIP3  H2           -6.6104956989       10.9185493929       -7.9157168795  CLST         146          1.0000000000
       439       147  TIP3  OH2           1.1166676551        2.8901530983       -4.2217704507  CLST         147          1.0000000000
       440       147  TIP3  H1            0.2074430719        2.8432024718       -3.8816945191  CLST         147          1.0000000000
       441       147  TIP3  H2            0.5941677908        3.3699328782       -4.9354109454  CLST         147          1.0000000000
       442       148  TIP3  OH2           7.6745951183        6.7096284774       -3.2717916358  CLST         148          1.0000000000
       443       148  TIP3  H1            8.2423473148        5.8679316838       -3.4020473163  CLST         148          1.0000000000
       444       148  TIP3  H2            7.1450042441        5.9961079246       -2.7673181277  CLST         148          1.0000000000
       445       149  TIP3  OH2          -4.2930278803      -13.4252046430       11.0410293014  CLST         149          1.0000000000
       446       149  TIP3  H1           -4.4258722152      -12.4558156593       11.2064398567  CLST         149          1.0000000000
       447       149  TIP3  H2           -3.7606132155      -13.2911411848       11.8276590631  CLST         149          1.0000000000
       448       150  TIP3  OH2          11.0198195479        1.0965736998       -2.4718223590  CLST         150          1.0000000000
       449       150  TIP3  H1           10.5842116594        1.1486013104       -1.5785372320  CLST         150          1.0000000000
       450       150  TIP3  H2           10.0599736969        0.9860537844       -2.7631942254  CLST         150          1.0000000000
       451       151  TIP3  OH2           3.7772181746      -12.2642565839        4.1028434430  CLST         151          1.0000000000
       452       151  TIP3  H1            3.9177840089      -13.0913241694        3.6619513688  CLST         151          1.0000000000
       453       151  TIP3  H2            3.2312589449      -11.7043972456        3.4585605808  CLST         151          1.0000000000
       454       152  TIP3  OH2           0.5190335395        6.0855799150       -5.7029085383  CLST         152          1.0000000000
       455       152  TIP3  H1            0.7095700952        6.9554438132       -6.1336335952  CLST         152          1.0000000000
       456       152  TIP3  H2            1.3666815916        5.8793709053       -6.0680623796  CLST         152          1.0000000000
       457       153  TIP3  OH2          -1.4083749450       10.1317362408       -7.4911771590  CLST         153          1.0000000000
       458       153  TIP3  H1           -2.0940018698       10.8275738764       -7.4831666577  CLST         153          1.0000000000
       459       153  TIP3  H2           -0.7216763797       10.7515645251       -7.3195202080  CLST         153          1.0000000000
       460       154  TIP3  OH2         -11.8578014184       -7.8798464965       -0.4839106010  CLST         154          1.0000000000
       461       154  TIP3  H1          -12.3206954485       -7.0469076773       -0.1516315058  CLST         154          1.0000000000
       462       154  TIP3  H2          -11.0705324677       -7.2963166260       -0.4234486353  CLST         154          1.0000000000
       463       155  TIP3  OH2          10.2802133339       -4.9357708264       14.2521897743  CLST         155          1.0000000000
       464       155  TIP3  H1           10.8243838270       -4.1875381896       14.5043301323  CLST         155          1.0000000000
       465       155  TIP3  H2           10.4246386052       -4.9421276195       13.3046656225  CLST         155          1.0000000000
       466       156  TIP3  OH2          14.0462716857        2.1761556795        0.1394845168  CLST         156          1.0000000000
       467       156  TIP3  H1           14.7319901819        1.4060935878        0.2539240995  CLST         156          1.0000000000
       468       156  TIP3  H2           14.1298283658        1.9127579623       -0.7831867142  CLST         156          1.0000000000
       469       157  TIP3  OH2           0.1079475267       -5.0763370526       -8.1060465050  CLST         157          1.0000000000
       470       157  TIP3  H1            0.7412101718       -4.6833636439       -8.6748069935  CLST         157          1.0000000000
       471       157  TIP3  H2            0.2138286774       -5.9220142831       -8.4908891476  CLST         157          1.0000000000
       472       158  TIP3  OH2          -6.6720733570       -1.3901503950       -2.4425608191  CLST         158          1.0000000000
       473       158  TIP3  H1           -7.5095616509       -1.8357384771       -2.4039358679  CLST         158          1.0000000000
       474       158  TIP3  H2           -6.5692971060       -2.0273325837       -3.1899855750  CLST         158          1.0000000000
       475       159  TIP3  OH2           8.1104673415      -11.4169056687        8.1725821585  CLST         159          1.0000000000
       476       159  TIP3  H1            7.2098631182      -11.4073956175        7.8326040004  CLST         159          1.0000000000
       477       159  TIP3  H2            8.1504207297      -10.4985764807        8.4874092772  CLST         159          1.0000000000
       478       160  TIP3  OH2           4.4260454815       -9.3233631585        1.8592558839  CLST         160          1.0000000000
       479       160  TIP3  H1            4.1191066102       -8.8082145645        2.5477172754  CLST         160          1.0000000000
       480       160  TIP3  H2            4.8129325497       -9.8347976072        2.5867508191  CLST         160          1.0000000000
       481       161  TIP3  OH2           3.9476000989       -6.8067133329       -2.9561335947  CLST         161          1.0000000000
       482       161  TIP3  H1            4.7173527432       -7.1964041251       -2.5706123868  CLST         161          1.0000000000
       483       161  TIP3  H2            3.3620947309       -7.2149527164       -2.2986204036  CLST         161          1.0000000000
       484       162  TIP3  OH2           6.4382088799      -10.3900325744        3.0673075603  CLST         162          1.0000000000
       485       162  TIP3  H1            7.3505720300      -10.6902112182        3.0327967719  CLST         162          1.0000000000
       486       162  TIP3  H2            6.7782281599       -9.5994809525        3.4251410941  CLST         162          1.0000000000
       487       163  TIP3  OH2         -13.2171429773        0.5705361815        2.5971737029  CLST         163          1.0000000000
       488       163  TIP3  H1          -13.5011530838        1.3431684441        3.1231683480  CLST         163          1.0000000000
       489       163  TIP3  H2          -12.9788144041        0.3102387441        3.5468434968  CLST         163          1.0000000000
       490       164  TIP3  OH2           8.4622703825        2.8020860653       10.2276574144  CLST         164          1.0000000000
       491       164  TIP3  H1            8.2735844286        3.6893531382        9.5776630348  CLST         164          1.0000000000
       492       164  TIP3  H2            9.2661007277        3.2688845442        9.6177434137  CLST         164          1.0000000000
       493       165  TIP3  OH2          14.5542014314        3.8149520015        4.9354789508  CLST         165          1.0000000000
       494       165  TIP3  H1           13.7364577020        4.3426525625        5.0300539212  CLST         165          1.0000000000
       495       165  TIP3  H2           14.0725859834        3.4185905997        4.1917999762  CLST         165          1.0000000000
       496       166  TIP3  OH2          -6.1035809903      -12.7396235864        5.0385381888  CLST         166          1.0000000000
       497       166  TIP3  H1           -6.4072175496      -12.4668379917        4.1663510369  CLST         166          1.0000000000
       498       166  TIP3  H2           -6.6172993900      -11.9033462593        5.2646122194  CLST         166          1.0000000000
       499       167  TIP3  OH2           0.0479446055       -7.8620931534       -9.5237829608  CLST         167          1.0000000000
       500       167  TIP3  H1            0.0817920642       -8.0130036313      -10.4424823862  CLST         167          1.0000000000
       501       167  TIP3  H2            0.9528062757       -8.1172449171       -9.3145875846  CLST         167          1.0000000000
       502       168  TIP3  OH2          -2.7803773000       -2.3726738171        1.5458069532  CLST         168          1.0000000000
       503       168  TIP3  H1           -3.0076827538       -3.2911243926        1.7874597178  CLST         168          1.0000000000
       504       168  TIP3  H2           -3.0433326357       -2.6819051925        0.6645789115  CLST         168          1.0000000000
       505       169  TIP3  OH2           0.7123492738       12.2135927566       12.5953384489  CLST         169          1.0000000000
       506       169  TIP3  H1            1.6268669474       11.5642297086       12.1670882143  CLST         169          1.0000000000
       507       169  TIP3  H2            1.5190955297       12.3777612264       12.7492004753  CLST         169          1.0000000000
       508       170  TIP3  OH2         -14.5505842109      -12.0468173245        4.7912251238  CLST         170          1.0000000000
       509       170  TIP3  H1          -13.9891195387      -12.7923201576        5.0066013369  CLST         170          1.0000000000
       510       170  TIP3  H2          -14.2670288935      -11.8216606960        5.7621385810  CLST         170          1.0000000000
       511       171  TIP3  OH2          -9.8734367496        2.8286431280        2.6408180217  CLST         171          1.0000000000
       512       171  TIP3  H1           -9.0098643679        3.2339769816        2.7161858846  CLST         171          1.0000000000
       513       171  TIP3  H2           -9.5374018064        2.2931441465        3.3887420030  CLST         171          1.0000000000
       514       172  TIP3  OH2          14.0305413188       -6.9690741298      -11.8746328594  CLST         172          1.0000000000
       515       172  TIP3  H1           14.0042057535       -7.0093601188      -10.9376126328  CLST         172          1.0000000000
       516       172  TIP3  H2           13.5095013900       -7.7717719452      -11.8158640596  CLST         172          1.0000000000
       517       173  TIP3  OH2         -12.7890613298       -5.3859569705        3.1344046418  CLST         173          1.0000000000
       518       173  TIP3  H1          -13.1764710175       -4.5684647073        3.2644528286  CLST         173          1.0000000000
       519       173  TIP3  H2          -13.1095171424       -5.4125546730        2.1715331650  CLST         173          1.0000000000
       520       174  TIP3  OH2           5.8688714068      -14.3424534597        5.6202295212  CLST         174          1.0000000000
       521       174  TIP3  H1            5.5755670977      -13.4979837826        5.9787831622  CLST         174          1.0000000000
       522       174  TIP3  H2            5.4213533378      -14.6578160448        6.4336853711  CLST         174          1.0000000000
       523       175  TIP3  OH2           4.3354318646       -3.7266068261        7.9984160459  CLST         175          1.0000000000
       524       175  TIP3  H1            3.8279783555       -4.2103865053        7.3356737657  CLST         175          1.0000000000
       525       175  TIP3  H2            5.1821952234       -3.8868129864        7.5339464658  CLST         175          1.0000000000
       526       176  TIP3  OH2           8.2628040544        2.7055583237      -10.8644842045  CLST         176          1.0000000000
       527       176  TIP3  H1            8.7511933970        1.9349921309      -10.4727582404  CLST         176          1.0000000000
       528       176  TIP3  H2            8.7945931306        2.3607067687      -11.6865021964  CLST         176          1.0000000000
       529       177  TIP3  OH2          -3.9453908369       10.7371581305        7.6655507441  CLST         177          1.0000000000
       530       177  TIP3  H1           -3.1111454723       10.5367227596        7.1273402720  CLST         177          1.0000000000
       531       177  TIP3  H2           -4.1531016150        9.8043670656        7.3851000621  CLST         177          1.0000000000
       532       178  TIP3  OH2           4.0109507085       -6.4755903151        0.6888507264  CLST         178          1.0000000000
       533       178  TIP3  H1            3.2625967834       -5.8788639852        0.7259363852  CLST         178          1.0000000000
       534       178  TIP3  H2            3.3010030414       -7.1063682876        0.9812101976  CLST         178          1.0000000000
       535       179  TIP3  OH2           2.5554834685      -10.0392501922       -0.1090130754  CLST         179          1.0000000000
       536       179  TIP3  H1            1.9090664234       -9.4218851592        0.2998469832  CLST         179          1.0000000000
       537       179  TIP3  H2            3.1797061055       -9.7857551350        0.6069612741  CLST         179          1.0000000000
       538       180  TIP3  OH2          -1.7663685903       -3.4869678769        8.2931299218  CLST         180          1.0000000000
       539       180  TIP3  H1           -1.8406710700       -2.6973657841        8.8818134500  CLST         180          1.0000000000
       540       180  TIP3  H2           -2.4082392905       -3.1524674397        7.6160938268  CLST         180          1.0000000000
       541       181  TIP3  OH2         -12.3411026159       -0.0005465759      -10.9593866972  CLST         181          1.0000000000
       542       181  TIP3  H1          -11.4753531279       -0.1839105161      -10.4963859506  CLST         181          1.0000000000
       543       181  TIP3  H2          -12.6396623201       -0.6309782636      -10.3877904021  CLST         181          1.0000000000
       544       182  TIP3  OH2         -10.6116711816      -12.5442732604        5.4841436270  CLST         182          1.0000000000
       545       182  TIP3  H1          -11.1348682393      -12.1215438902        6.1281223125  CLST         182          1.0000000000
       546       182  TIP3  H2           -9.8975523418      -12.3204853628        6.0820146285  CLST         182          1.0000000000
       547       183  TIP3  OH2          11.9042473409        5.3225524627        4.1701046144  CLST         183          1.0000000000
       548       183  TIP3  H1           11.8212502357        5.3926729611        3.1921754924  CLST         183          1.0000000000
       549       183  TIP3  H2           11.8801656929        6.2400273679        4.0010958808  CLST         183          1.0000000000
       550       184  TIP3  OH2          -0.4622159925       -0.7691582762        7.9996598011  CLST         184          1.0000000000
       551       184  TIP3  H1            0.4247177451       -0.5291352807        7.8056731500  CLST         184          1.0000000000
       552       184  TIP3  H2           -0.6428905992       -0.9861451510        8.9094170193  CLST         184          1.0000000000
       553       185  TIP3  OH2           9.5142340983       12.7968647112       -3.9807148096  CLST         185          1.0000000000
       554       185  TIP3  H1            8.5463823353       12.5746995115       -3.9282978866  CLST         185          1.0000000000
       555       185  TIP3  H2            9.5822700456       13.5973397428       -4.2996724127  CLST         185          1.0000000000
       556       186  TIP3  OH2          11.9769419002        0.0424603354        4.2766643868  CLST         186          1.0000000000
       557       186  TIP3  H1           12.1272944187        0.0375893100        3.3325135856  CLST         186          1.0000000000
       558       186  TIP3  H2           11.2793522781        0.7051800677        4.0550147337  CLST         186          1.0000000000
       559       187  TIP3  OH2         -10.2397641608       -7.6165063862      -11.3064398519  CLST         187          1.0000000000
       560       187  TIP3  H1          -10.5288498819       -7.3205535386      -10.3824282437  CLST         187          1.0000000000
       561       187  TIP3  H2          -10.0183649404       -6.6323374393      -11.3040562532  CLST         187          1.0000000000
       562       188  TIP3  OH2         -14.8109971268       -0.1862685547        0.5636061550  CLST         188          1.0000000000
       563       188  TIP3  H1          -14.8933485470       -0.3673478418        1.4562515993  CLST         188          1.0000000000
       564       188  TIP3  H2          -14.9391371020       -0.9509005116        0.0153817405  CLST         188          1.0000000000
       565       189  TIP3  OH2          13.9899564252        1.2445182221       14.7243829131  CLST         189          1.0000000000
       566       189  TIP3  H1           13.6928226543        1.8534253334       14.2293313824  CLST         189          1.0000000000
       567       189  TIP3  H2           14.9250141919        1.3324725329       14.9391371020  CLST         189          1.0000000000
       568       190  TIP3  OH2           0.3484653264       -7.9565484575        3.7462882747  CLST         190          1.0000000000
       569       190  TIP3  H1            0.8507155313       -8.2562977693        4.5330960751  CLST         190          1.0000000000
       570       190  TIP3  H2            0.6043382880       -7.0419510315        4.0668013405  CLST         190          1.0000000000
       571       191  TIP3  OH2          -0.8502596705       14.0505227051       -4.0241915262  CLST         191          1.0000000000
       572       191  TIP3  H1           -1.6718353069       13.7554021593       -4.4362986763  CLST         191          1.0000000000
       573       191  TIP3  H2           -1.1486388391       14.9298553216       -4.1314572399  CLST         191          1.0000000000
       574       192  TIP3  OH2          -4.9712965498       -0.0918745404       -0.8485532196  CLST         192          1.0000000000
       575       192  TIP3  H1           -5.6542791400       -0.4345250818       -1.4022261558  CLST         192          1.0000000000
       576       192  TIP3  H2           -5.6108280350        0.5793725208       -0.4688698881  CLST         192          1.0000000000
       577       193  TIP3  OH2         -13.1790205839      -13.0621238947        7.1443117915  CLST         193          1.0000000000
       578       193  TIP3  H1          -12.3686058318      -13.6423742180        7.1570667552  CLST         193          1.0000000000
       579       193  TIP3  H2          -12.5252128847      -12.6107503683        7.7077921886  CLST         193          1.0000000000
       580       194  TIP3  OH2          12.5954254846       12.4450081488      -11.3173983508  CLST         194          1.0000000000
       581       194  TIP3  H1           12.7526197023       12.8930652619      -12.1466966938  CLST         194          1.0000000000
       582       194  TIP3  H2           13.5400687100       12.2539561965      -11.3913551321  CLST         194          1.0000000000
       583       195  TIP3  OH2           5.1322279237        2.5775079310        3.6006004161  CLST         195          1.0000000000
       584       195  TIP3  H1            4.3039963779        2.6195995817        2.9761189105  CLST         195          1.0000000000
       585       195  TIP3  H2            4.6291965347        1.6418513565        3.3150027240  CLST         195          1.0000000000
       586       196  TIP3  OH2           7.4184153829        6.0440943403       10.9899147096  CLST         196          1.0000000000
       587       196  TIP3  H1            8.4344098978        5.5498244975       11.3718125310  CLST         196          1.0000000000
       588       196  TIP3  H2            8.1648048605        6.4192806263       10.9290583020  CLST         196          1.0000000000
       589       197  TIP3  OH2          -4.4297976789       -9.5842448372        3.6957915892  CLST         197          1.0000000000
       590       197  TIP3  H1           -4.9217668260       -9.0109182240        3.0182013795  CLST         197          1.0000000000
       591       197  TIP3  H2           -3.7027958839       -8.9417704884        3.5776232524  CLST         197          1.0000000000
       592       198  TIP3  OH2          -4.4395781285       -9.1782404019       -6.0493172927  CLST         198          1.0000000000
       593       198  TIP3  H1           -3.7232910026       -9.2201486182       -6.6543880456  CLST         198          1.0000000000
       594       198  TIP3  H2           -5.0108657408       -9.0194627571       -6.8277765892  CLST         198          1.0000000000
       595       199  TIP3  OH2          11.2442636950        7.8695927457       -2.4254073806  CLST         199          1.0000000000
       596       199  TIP3  H1           10.7684103346        8.5041023912       -1.8702185022  CLST         199          1.0000000000
       597       199  TIP3  H2           12.0475692349        7.6918261515       -1.9247279224  CLST         199          1.0000000000
       598       200  TIP3  OH2          -4.9258709214       -7.3627470042       -1.0667423011  CLST         200          1.0000000000
       599       200  TIP3  H1           -3.9838816929       -7.6743109601       -1.2237073679  CLST         200          1.0000000000
       600       200  TIP3  H2           -4.5799314650       -6.4799592237       -1.3994685787  CLST         200          1.0000000000
       601       201  TIP3  OH2          13.9121669644      -10.5772494110       11.7881966096  CLST         201          1.0000000000
       602       201  TIP3  H1           14.2737308357       -9.8594667219       12.2676812071  CLST         201          1.0000000000
       603       201  TIP3  H2           13.0839337134      -10.2573050559       11.3637104988  CLST         201          1.0000000000
       604       202  TIP3  OH2          -2.9790780010       -9.4577680464        7.8516705246  CLST         202          1.0000000000
       605       202  TIP3  H1           -2.1669395550      -10.1164891379        8.2215271449  CLST         202          1.0000000000
       606       202  TIP3  H2           -2.7311442755      -10.4398000677        7.4165228787  CLST         202          1.0000000000
       607       203  TIP3  OH2          10.4104880278        4.4387404908       13.9137539467  CLST         203          1.0000000000
       608       203  TIP3  H1            9.7812793334        3.8392151563       13.1161368447  CLST         203          1.0000000000
       609       203  TIP3  H2            9.7289768285        3.6370793327       14.0483508128  CLST         203          1.0000000000
       610       204  TIP3  OH2          -5.3164978335        6.1596841371        5.8829899144  CLST         204          1.0000000000
       611       204  TIP3  H1           -6.1833860070        6.5476471594        5.9872660467  CLST         204          1.0000000000
       612       204  TIP3  H2           -4.9631401100        6.8248772956        6.5333477910  CLST         204          1.0000000000
       613       205  TIP3  OH2          -2.3366515643        1.2260914788       -4.9710778438  CLST         205          1.0000000000
       614       205  TIP3  H1           -1.6117927958        1.6237908907       -5.5790885456  CLST         205          1.0000000000
       615       205  TIP3  H2           -2.8429094891        1.8080406313       -5.5803048383  CLST         205          1.0000000000
       616       206  TIP3  OH2          -8.4540788767       -1.2859742519        4.5007026816  CLST         206          1.0000000000
       617       206  TIP3  H1           -8.6831103363       -1.4041927740        5.4389486590  CLST         206          1.0000000000
       618       206  TIP3  H2           -7.8043140395       -0.6177428374        4.8717260661  CLST         206          1.0000000000
       619       207  TIP3  OH2          -7.6357317221        9.3939887222        0.4337699848  CLST         207          1.0000000000
       620       207  TIP3  H1           -7.0178333347        8.6868963206        0.3659341522  CLST         207          1.0000000000
       621       207  TIP3  H2           -7.9005930668        8.7463461821        1.0808725443  CLST         207          1.0000000000
       622       208  TIP3  OH2           9.5027612406       14.3246961168      -11.5853254280  CLST         208          1.0000000000
       623       208  TIP3  H1            9.6362778658       13.9569241665      -12.4392157390  CLST         208          1.0000000000
       624       208  TIP3  H2           10.2209033569       14.9391371020      -11.6526822307  CLST         208          1.0000000000
       625       209  TIP3  OH2          -6.6829561389       -6.4782734187      -14.5274202521  CLST         209          1.0000000000
       626       209  TIP3  H1           -7.4155529076       -5.9751657672      -14.8071764637  CLST         209          1.0000000000
       627       209  TIP3  H2           -7.2631083245       -7.1337575234      -14.0759414559  CLST         209          1.0000000000
       628       210  TIP3  OH2          -2.4023355480        0.9466180176        8.0789684990  CLST         210          1.0000000000
       629       210  TIP3  H1           -2.0267818491        0.0871815401        8.3089624030  CLST         210          1.0000000000
       630       210  TIP3  H2           -2.2451953797        1.2457414829        8.9768568950  CLST         210          1.0000000000
       631       211  TIP3  OH2          -0.6658288901       -0.0058895002       -3.1709022939  CLST         211          1.0000000000
       632       211  TIP3  H1           -1.4998785094       -0.3900641569       -2.8611322876  CLST         211          1.0000000000
       633       211  TIP3  H2           -1.2671963358        0.4988624485       -3.7423377431  CLST         211          1.0000000000
       634       212  TIP3  OH2           6.9679243628        3.2993346246        5.7536949329  CLST         212          1.0000000000
       635       212  TIP3  H1            6.6311768488        2.4017494166        5.7999392531  CLST         212          1.0000000000
       636       212  TIP3  H2            5.9963324532        3.0978059129        5.1941361419  CLST         212          1.0000000000
       637       213  TIP3  OH2           2.0745332057       -5.0784283026       -0.2154892220  CLST         213          1.0000000000
       638       213  TIP3  H1            2.0090246927       -4.3084804833       -0.8534233964  CLST         213          1.0000000000
       639       213  TIP3  H2            2.4426045378       -5.5347348253       -1.0194053948  CLST         213          1.0000000000
       640       214  TIP3  OH2           2.4574294940       -6.9645420443      -11.8093301660  CLST         214          1.0000000000
       641       214  TIP3  H1            2.7002021414       -7.8932520848      -11.6613270837  CLST         214          1.0000000000
       642       214  TIP3  H2            3.1313426528       -6.8032925272      -11.1109281539  CLST         214          1.0000000000
       643       215  TIP3  OH2         -12.5731529247        2.7828496306      -11.0241327953  CLST         215          1.0000000000
       644       215  TIP3  H1          -12.8539936157        2.0065247541      -10.6253569115  CLST         215          1.0000000000
       645       215  TIP3  H2          -12.8767296683        1.9133051292      -11.6526728071  CLST         215          1.0000000000
       646       216  TIP3  OH2          11.6833178033       -6.3601776372       -4.6186853221  CLST         216          1.0000000000
       647       216  TIP3  H1           10.9692935080       -7.0552673187       -4.8016103179  CLST         216          1.0000000000
       648       216  TIP3  H2           10.9186298508       -5.8295569183       -4.9846606641  CLST         216          1.0000000000
       649       217  TIP3  OH2          -6.7688972019        9.1846977714        3.9437321469  CLST         217          1.0000000000
       650       217  TIP3  H1           -5.8523944810        8.8784707443        3.9812164624  CLST         217          1.0000000000
       651       217  TIP3  H2           -7.0682437283        8.3614506661        3.6392190383  CLST         217          1.0000000000
       652       218  TIP3  OH2           5.8879179021       -7.6520852053       -8.4003248103  CLST         218          1.0000000000
       653       218  TIP3  H1            5.9557559002       -8.6342733785       -8.3038575330  CLST         218          1.0000000000
       654       218  TIP3  H2            5.8139600636       -7.7534407365       -7.3919067542  CLST         218          1.0000000000
       655       219  TIP3  OH2           2.6092159526      -13.2162182619        7.3826498368  CLST         219          1.0000000000
       656       219  TIP3  H1            2.4358729528      -12.6665257089        8.1332408035  CLST         219          1.0000000000
       657       219  TIP3  H2            3.3307169782      -13.6925409574        7.8386283166  CLST         219          1.0000000000
       658       220  TIP3  OH2           2.6579957526        1.3015694704      -11.2976079046  CLST         220          1.0000000000
       659       220  TIP3  H1            2.8654937668        1.5676673376      -12.1724142990  CLST         220          1.0000000000
       660       220  TIP3  H2            3.4657876076        0.8078656843      -11.3286813559  CLST         220          1.0000000000
       661       221  TIP3  OH2           1.9309678335       -0.3637500292        2.9371046357  CLST         221          1.0000000000
       662       221  TIP3  H1            1.0235852901       -0.1439104921        2.8000576456  CLST         221          1.0000000000
       663       221  TIP3  H2            2.0523227200        0.4729349066        3.4031503464  CLST         221          1.0000000000
       664       222  TIP3  OH2          11.9421251488        0.3529879087        1.5975360267  CLST         222          1.0000000000
       665       222  TIP3  H1           12.0174698979       -0.3805403030        0.9552289160  CLST         222          1.0000000000
       666       222  TIP3  H2           11.0061265211        0.5310380084        1.2303766212  CLST         222          1.0000000000
       667       223  TIP3  OH2           1.2992235054      -10.6119036676      -13.0570860459  CLST         223          1.0000000000
       668       223  TIP3  H1            0.9686197440      -11.0533848914      -12.2413776191  CLST         223          1.0000000000
       669       223  TIP3  H2            0.6335487333       -9.9843190976      -12.8393716717  CLST         223          1.0000000000
       670       224  TIP3  OH2          -9.2208166274        6.7917669814      -12.7261984372  CLST         224          1.0000000000
       671       224  TIP3  H1           -9.9502429113        5.8359808564      -12.4956053895  CLST         224          1.0000000000
       672       224  TIP3  H2           -9.0982610706        5.8618601407      -12.9024975264  CLST         224          1.0000000000
       673       225  TIP3  OH2          13.1846963294        3.8420440628       -7.6056785140  CLST         225          1.0000000000
       674       225  TIP3  H1           12.1892316030        3.7067298971       -7.9152684153  CLST         225          1.0000000000
       675       225  TIP3  H2           12.8796532488        3.2536455388       -6.9047238043  CLST         225          1.0000000000
       676       226  TIP3  OH2           4.9943212711        4.8795228691       10.8264602098  CLST         226          1.0000000000
       677       226  TIP3  H1            5.7394690697        5.4683727556       10.4611684751  CLST         226          1.0000000000
       678       226  TIP3  H2            5.4420555737        5.1770272942       11.6426247184  CLST         226          1.0000000000
       679       227  TIP3  OH2          -6.3183841042        0.8287401906        9.7232135051  CLST         227          1.0000000000
       680       227  TIP3  H1           -6.6684289749        0.5016371177       10.5481591224  CLST         227          1.0000000000
       681       227  TIP3  H2           -5.7642841565        0.1383506070        9.4213613007  CLST         227          1.0000000000
       682       228  TIP3  OH2          -8.6306784315       -5.2275372809       10.5606586005  CLST         228          1.0000000000
       683       228  TIP3  H1           -8.8884770585       -4.9081987365        9.7314626592  CLST         228          1.0000000000
       684       228  TIP3  H2           -7.7088860990       -5.4108466499       10.5453047884  CLST         228          1.0000000000
       685       229  TIP3  OH2          11.0654943535        8.2360288847      -14.9391371020  CLST         229          1.0000000000
       686       229  TIP3  H1           11.2709641264        8.1389878318      -14.1365182870  CLST         229          1.0000000000
       687       229  TIP3  H2           11.8014768033        7.3772902589      -14.5652510254  CLST         229          1.0000000000
       688       230  TIP3  OH2         -10.6489295608       -3.5331647246        8.7248010861  CLST         230          1.0000000000
       689       230  TIP3  H1          -11.0046370155       -4.3485690813        8.4597201484  CLST         230          1.0000000000
       690       230  TIP3  H2          -11.3817066199       -3.1969120750        9.2178905157  CLST         230          1.0000000000
       691       231  TIP3  OH2          -0.4892077589        2.8303595716      -11.7588803068  CLST         231          1.0000000000
       692       231  TIP3  H1            0.0844521696        2.2649885513      -11.1545863315  CLST         231          1.0000000000
       693       231  TIP3  H2           -0.0530858046        2.4764878344      -12.4822659393  CLST         231          1.0000000000
       694       232  TIP3  OH2           1.6595487651      -14.9391371020      -12.0872016701  CLST         232          1.0000000000
       695       232  TIP3  H1            1.9094066128      -13.9936185473      -11.5728925445  CLST         232          1.0000000000
       696       232  TIP3  H2            1.8000244923      -14.2627273176      -12.5099369394  CLST         232          1.0000000000
       697       233  TIP3  OH2         -11.9765947137        9.8253607609        2.1016095384  CLST         233          1.0000000000
       698       233  TIP3  H1          -12.3981807356        9.6919104317        3.0034020197  CLST         233          1.0000000000
       699       233  TIP3  H2          -12.9058531721        9.9286799997        1.8711516638  CLST         233          1.0000000000
       700       234  TIP3  OH2          -2.2998538707        4.5588140516       -8.0655338804  CLST         234          1.0000000000
       701       234  TIP3  H1           -2.2759880890        5.5745592006       -8.1567469133  CLST         234          1.0000000000
       702       234  TIP3  H2           -2.5529710649        4.6334592277       -9.0023987265  CLST         234          1.0000000000
       703       235  TIP3  OH2         -10.3093024995        5.2181221830       -5.5300145401  CLST         235          1.0000000000
       704       235  TIP3  H1          -10.6255876782        4.7856397822       -6.3477412060  CLST         235          1.0000000000
       705       235  TIP3  H2           -9.4491538427        4.9440047849       -6.0755933482  CLST         235          1.0000000000
       706       236  TIP3  OH2         -12.0961152644      -10.4457868534       13.8275670161  CLST         236          1.0000000000
       707       236  TIP3  H1          -11.4342221455      -10.8301725921       13.0983538340  CLST         236          1.0000000000
       708       236  TIP3  H2          -11.8918815375       -9.8875862655       12.8370089210  CLST         236          1.0000000000
       709       237  TIP3  OH2          -6.2200576949       -6.2541462713       10.6645378479  CLST         237          1.0000000000
       710       237  TIP3  H1           -5.7375637407       -6.8043315052       10.0496116987  CLST         237          1.0000000000
       711       237  TIP3  H2           -5.6548368347       -6.7082071075       11.2826876217  CLST         237          1.0000000000
       712       238  TIP3  OH2          -1.0045663742        3.4967673382       -2.7311050987  CLST         238          1.0000000000
       713       238  TIP3  H1           -1.6069467097        4.1447821030       -3.1261565415  CLST         238          1.0000000000
       714       238  TIP3  H2           -1.8617944620        3.0015326783       -2.5495766669  CLST         238          1.0000000000
       715       239  TIP3  OH2           8.1712308723        7.8080648187       -0.0810544611  CLST         239          1.0000000000
       716       239  TIP3  H1            8.7962869948        6.8657348220       -0.4242664298  CLST         239          1.0000000000
       717       239  TIP3  H2            8.9754612337        7.6888979219        0.1726903601  CLST         239          1.0000000000
       718       240  TIP3  OH2          -9.5706444860        8.5437965856        1.7454180386  CLST         240          1.0000000000
       719       240  TIP3  H1          -10.4989943054        8.8787699122        1.6756064713  CLST         240          1.0000000000
       720       240  TIP3  H2          -10.1094279182        7.6975180195        1.9040625497  CLST         240          1.0000000000
       721       241  TIP3  OH2          10.9557015285       -4.5001442911       -1.4722379180  CLST         241          1.0000000000
       722       241  TIP3  H1           10.2804912250       -4.4213142107       -2.2331913136  CLST         241          1.0000000000
       723       241  TIP3  H2           11.5457009601       -4.5136278774       -2.2326142710  CLST         241          1.0000000000
       724       242  TIP3  OH2           9.6714304410       -1.4926817098       -4.3337521089  CLST         242          1.0000000000
       725       242  TIP3  H1           10.3086718330       -1.2605883363       -3.9119059743  CLST         242          1.0000000000
       726       242  TIP3  H2            9.7481022383       -2.1477968189       -3.8296591281  CLST         242          1.0000000000
       727       243  TIP3  OH2           5.3417653055        9.2899612240      -12.0227566716  CLST         243          1.0000000000
       728       243  TIP3  H1            4.7710602306       10.0536419936      -11.6909591174  CLST         243          1.0000000000
       729       243  TIP3  H2            5.1003276540        8.5890477291      -11.3768419688  CLST         243          1.0000000000
       730       244  TIP3  OH2          -8.9913030850       -6.5813300495      -14.2899743164  CLST         244          1.0000000000
       731       244  TIP3  H1           -9.2756373316       -6.2614957301      -13.4391350768  CLST         244          1.0000000000
       732       244  TIP3  H2           -9.9088737216       -6.5775831305      -14.5373234144  CLST         244          1.0000000000
       733       245  TIP3  OH2         -13.0680111331        6.1065739044        2.4335693577  CLST         245          1.0000000000
       734       245  TIP3  H1          -12.8691949944        6.6662591476        2.9690671652  CLST         245          1.0000000000
       735       245  TIP3  H2          -12.1917394169        5.9105830667        3.1714339527  CLST         245          1.0000000000
       736       246  TIP3  OH2          -9.2591596458        6.2119098410       -1.6648026025  CLST         246          1.0000000000
       737       246  TIP3  H1          -10.2669609021        6.1753383056       -2.0178111300  CLST         246          1.0000000000
       738       246  TIP3  H2           -9.3193135546        7.1143907509       -2.0270295271  CLST         246          1.0000000000
       739       247  TIP3  OH2          -4.3936303037        8.0129955277        7.9057400084  CLST         247          1.0000000000
       740       247  TIP3  H1           -3.4579538086        7.9395364174        8.2644571833  CLST         247          1.0000000000
       741       247  TIP3  H2           -4.5951580499        7.6178188152        8.7321695830  CLST         247          1.0000000000
       742       248  TIP3  OH2           9.9612850159       -7.9709933324        7.9171279102  CLST         248          1.0000000000
       743       248  TIP3  H1            9.1509015088       -8.4866574081        7.8918344775  CLST         248          1.0000000000
       744       248  TIP3  H2            9.8617682281       -7.7161721906        6.9886274591  CLST         248          1.0000000000
       745       249  TIP3  OH2           9.9917809578        5.7937434800       -1.1170058389  CLST         249          1.0000000000
       746       249  TIP3  H1           10.7112405523        5.1681003550       -1.0471879795  CLST         249          1.0000000000
       747       249  TIP3  H2           10.4987653428        6.2061657929       -1.8282111075  CLST         249          1.0000000000
       748       250  TIP3  OH2           5.6219028051       -4.6358598763        3.4369276647  CLST         250          1.0000000000
       749       250  TIP3  H1            5.5285130171       -5.5728746225        3.0970799777  CLST         250          1.0000000000
       750       250  TIP3  H2            4.6722018539       -4.7522397148        3.6571751668  CLST         250          1.0000000000
       751       251  TIP3  OH2         -14.6205505046      -11.5896543559        1.9398056998  CLST         251          1.0000000000
       752       251  TIP3  H1          -14.5107135394      -12.2172075924        1.2497303368  CLST         251          1.0000000000
       753       251  TIP3  H2          -14.0787012317      -11.9370975255        2.5995959686  CLST         251          1.0000000000
       754       252  TIP3  OH2          -6.9847576631      -14.8338207466      -11.7098399935  CLST         252          1.0000000000
       755       252  TIP3  H1           -7.8604798683      -14.3430117059      -11.4596424219  CLST         252          1.0000000000
       756       252  TIP3  H2           -7.1773547318      -14.3884546163      -12.6156021750  CLST         252          1.0000000000
       757       253  TIP3  OH2           0.5777219276        7.2090010322        7.8426846615  CLST         253          1.0000000000
       758       253  TIP3  H1            0.7530738625        6.9657572766        6.9287524307  CLST         253          1.0000000000
       759       253  TIP3  H2            1.5407185616        7.3684303628        7.8922732559  CLST         253          1.0000000000
       760       254  TIP3  OH2         -11.5219972982        0.9928358999      -14.3545658447  CLST         254          1.0000000000
       761       254  TIP3  H1          -11.8536298905        0.5463607521      -13.5549635959  CLST         254          1.0000000000
       762       254  TIP3  H2          -12.3088806098        0.4766269948      -14.6367559996  CLST         254          1.0000000000
       763       255  TIP3  OH2           4.0968692148        0.1805724215       -0.7654236999  CLST         255          1.0000000000
       764       255  TIP3  H1            3.5728226545       -0.3242759641       -0.1233218624  CLST         255          1.0000000000
       765       255  TIP3  H2            3.2762351575        0.2688877714       -1.2340535692  CLST         255          1.0000000000
       766       256  TIP3  OH2          14.0344635290       -3.4307843310      -12.2158138275  CLST         256          1.0000000000
       767       256  TIP3  H1           14.4843163134       -3.0876880885      -13.0068772845  CLST         256          1.0000000000
       768       256  TIP3  H2           13.6262143738       -4.1052529998      -12.7148480042  CLST         256          1.0000000000
       769       257  TIP3  OH2          -6.6656647162      -13.3590681037       10.4350101344  CLST         257          1.0000000000
       770       257  TIP3  H1           -6.8545354227      -14.3301614071       10.2651856050  CLST         257          1.0000000000
       771       257  TIP3  H2           -5.8322809587      -13.8096086867       10.4964280393  CLST         257          1.0000000000
       772       258  TIP3  OH2         -10.3130462474      -11.8420833354       -6.4784306462  CLST         258          1.0000000000
       773       258  TIP3  H1           -9.9258884890      -11.5598158265       -5.6381067503  CLST         258          1.0000000000
       774       258  TIP3  H2          -10.1869615404      -10.9152715536       -6.7277295083  CLST         258          1.0000000000
       775       259  TIP3  OH2           3.1591458151        1.7000544109       14.0183511377  CLST         259          1.0000000000
       776       259  TIP3  H1            3.3199148623        0.7886372685       13.8057414241  CLST         259          1.0000000000
       777       259  TIP3  H2            3.2286767402        1.3575983376       14.9212015101  CLST         259          1.0000000000
       778       260  TIP3  OH2         -10.6898645241      -10.0310712382       -9.7697634535  CLST         260          1.0000000000
       779       260  TIP3  H1          -11.3592372260      -10.6084230540      -10.0750920627  CLST         260          1.0000000000
       780       260  TIP3  H2          -11.1707748977       -9.2417153131       -9.7174256836  CLST         260          1.0000000000
       781       261  TIP3  OH2           6.8552040245        1.0061040820       -0.4221773476  CLST         261          1.0000000000
       782       261  TIP3  H1            6.7083372289        1.5423311881       -1.2528876214  CLST         261          1.0000000000
       783       261  TIP3  H2            5.9376044430        1.0688760720       -0.2474254042  CLST         261          1.0000000000
       784       262  TIP3  OH2          -1.6628903472       14.2817783899        3.0112817673  CLST         262          1.0000000000
       785       262  TIP3  H1           -2.0539568560       14.0870820419        3.8441135283  CLST         262          1.0000000000
       786       262  TIP3  H2           -1.1802033928       13.4486164782        3.1026178185  CLST         262          1.0000000000
       787       263  TIP3  OH2           6.6166735385        3.9843284531        1.9595766156  CLST         263          1.0000000000
       788       263  TIP3  H1            6.3016427298        3.2123544732        1.5077750551  CLST         263          1.0000000000
       789       263  TIP3  H2            6.3857707915        3.5038743197        2.7363023789  CLST         263          1.0000000000
       790       264  TIP3  OH2          -3.1763883577       10.3739005943       10.1946810947  CLST         264          1.0000000000
       791       264  TIP3  H1           -2.3130963613       10.7847117825       10.4160728580  CLST         264          1.0000000000
       792       264  TIP3  H2           -2.6761601400       10.3327971889        9.3420267735  CLST         264          1.0000000000
       793       265  TIP3  OH2         -12.6980689135       12.9151945532       -0.2151564406  CLST         265          1.0000000000
       794       265  TIP3  H1          -12.8406755007       13.3232756882       -1.0318033509  CLST         265          1.0000000000
       795       265  TIP3  H2          -13.2644224485       12.1432078038       -0.3050273639  CLST         265          1.0000000000
       796       266  TIP3  OH2          -3.8231275725        1.7165056243        4.1162619361  CLST         266          1.0000000000
       797       266  TIP3  H1           -3.6863602516        1.1399912357        3.2630741553  CLST         266          1.0000000000
       798       266  TIP3  H2           -4.0181564657        2.3319756648        3.3796849953  CLST         266          1.0000000000
       799       267  TIP3  OH2          -6.9870970060       11.4690390123       -5.3819010623  CLST         267          1.0000000000
       800       267  TIP3  H1           -7.4636687454       11.0771168489       -6.1125820920  CLST         267          1.0000000000
       801       267  TIP3  H2           -7.8429855055       11.6298666624       -4.9613178667  CLST         267          1.0000000000
       802       268  TIP3  OH2           4.8156152803        3.6672151407      -13.8921255106  CLST         268          1.0000000000
       803       268  TIP3  H1            5.5501597479        3.9602176897      -13.3145994537  CLST         268          1.0000000000
       804       268  TIP3  H2            5.0485514301        4.5312787152      -14.3392991305  CLST         268          1.0000000000
       805       269  TIP3  OH2           9.5459236537       -0.3085376316       11.0458311671  CLST         269          1.0000000000
       806       269  TIP3  H1           10.5491730208       -0.2236118909       11.2082158312  CLST         269          1.0000000000
       807       269  TIP3  H2            9.6385173239       -0.5418211233       11.9761113092  CLST         269          1.0000000000
       808       270  TIP3  OH2          -8.0597891464       -6.2233292127        6.2260217410  CLST         270          1.0000000000
       809       270  TIP3  H1           -8.2105695235       -5.9216467664        5.3531235208  CLST         270          1.0000000000
       810       270  TIP3  H2           -7.3798430940       -5.6161250327        6.3798491343  CLST         270          1.0000000000
       811       271  TIP3  OH2         -11.8595121414       11.8785072481       11.4967857781  CLST         271          1.0000000000
       812       271  TIP3  H1          -11.3995074504       12.4209537644       12.2444159694  CLST         271          1.0000000000
       813       271  TIP3  H2          -11.5231985802       12.6839538598       11.0360401290  CLST         271          1.0000000000
       814       272  TIP3  OH2           6.8638531495      -14.2991675760        3.2345779709  CLST         272          1.0000000000
       815       272  TIP3  H1            7.4683878446      -13.5437947632        3.4238626595  CLST         272          1.0000000000
       816       272  TIP3  H2            6.9755568055      -14.4219417861        4.2227631313  CLST         272          1.0000000000
       817       273  TIP3  OH2          -8.4069337919       10.8338552823       -7.6656290311  CLST         273          1.0000000000
       818       273  TIP3  H1           -9.2762679992       11.2496641191       -8.0243164932  CLST         273          1.0000000000
       819       273  TIP3  H2           -8.9036553801       10.0591881693       -8.0825051881  CLST         273          1.0000000000
       820       274  TIP3  OH2          -6.5595188228        0.4842626700       13.7715811473  CLST         274          1.0000000000
       821       274  TIP3  H1           -7.1741580802        0.8162738512       14.4526507196  CLST         274          1.0000000000
       822       274  TIP3  H2           -7.1401486679        0.2117086439       13.0576612330  CLST         274          1.0000000000
       823       275  TIP3  OH2           3.9349312668      -14.9391371020       -0.8637300493  CLST         275          1.0000000000
       824       275  TIP3  H1            3.1080396321      -14.3292534712       -0.7939427437  CLST         275          1.0000000000
       825       275  TIP3  H2            4.3422991289      -14.2624548550       -1.3634890785  CLST         275          1.0000000000
       826       276  TIP3  OH2           2.3964418123       -9.9172749011        7.4623184703  CLST         276          1.0000000000
       827       276  TIP3  H1            2.1499625606       -9.9247394448        8.3511937340  CLST         276          1.0000000000
       828       276  TIP3  H2            3.0682520533       -9.3451945843        7.8862985258  CLST         276          1.0000000000
       829       277  TIP3  OH2          -7.1544494222        6.8888114694        2.8426575759  CLST         277          1.0000000000
       830       277  TIP3  H1           -7.8464270083        6.6346139297        2.2625735533  CLST         277          1.0000000000
       831       277  TIP3  H2           -6.7322130082        6.2613362102        2.2730636844  CLST         277          1.0000000000
       832       278  TIP3  OH2           5.2455905959      -10.6219236595       10.1146293989  CLST         278          1.0000000000
       833       278  TIP3  H1            5.4812728391       -9.9230762688        9.4951849726  CLST         278          1.0000000000
       834       278  TIP3  H2            4.7363065031      -10.0020769201       10.6784392202  CLST         278          1.0000000000
       835       279  TIP3  OH2          12.0760885471       -5.4544241574        7.4683743849  CLST         279          1.0000000000
       836       279  TIP3  H1           11.7063190088       -5.9521483914        6.7062688707  CLST         279          1.0000000000
       837       279  TIP3  H2           12.1598839596       -4.7830604548        6.7526740168  CLST         279          1.0000000000
       838       280  TIP3  OH2           7.1079052891       -8.8093016107       12.9427318461  CLST         280          1.0000000000
       839       280  TIP3  H1            7.2313113575       -9.7017999584       12.7562517192  CLST         280          1.0000000000
       840       280  TIP3  H2            7.8368034204       -8.3252716632       12.6075389400  CLST         280          1.0000000000
       841       281  TIP3  OH2          -1.5992542758        4.4303919108       10.5900621479  CLST         281          1.0000000000
       842       281  TIP3  H1           -2.2356635763        3.6452321732       10.6442974781  CLST         281          1.0000000000
       843       281  TIP3  H2           -1.5712504446        4.3921451925       11.5176633130  CLST         281          1.0000000000
       844       282  TIP3  OH2          10.4457520058       10.7817290406      -10.9887829702  CLST         282          1.0000000000
       845       282  TIP3  H1           10.9817575557       10.1522883660      -11.4773380947  CLST         282          1.0000000000
       846       282  TIP3  H2           11.2170596024       11.2955497741      -11.1834600959  CLST         282          1.0000000000
       847       283  TIP3  OH2          -2.9745044841       -4.2566776368       -0.0433576911  CLST         283          1.0000000000
       848       283  TIP3  H1           -3.6122247348       -4.7198590787       -0.6485760296  CLST         283          1.0000000000
       849       283  TIP3  H2           -2.7849027355       -5.1774611493        0.2012282455  CLST         283          1.0000000000
       850       284  TIP3  OH2           4.0297655641       10.7963313044        2.2992274121  CLST         284          1.0000000000
       851       284  TIP3  H1            4.0570918160        9.8096468660        2.3372230986  CLST         284          1.0000000000
       852       284  TIP3  H2            3.6985150277       10.7346074779        3.1505211158  CLST         284          1.0000000000
       853       285  TIP3  OH2         -11.3039981779       -6.2221280722        8.2797442260  CLST         285          1.0000000000
       854       285  TIP3  H1          -10.4279598984       -6.6040248804        8.0021557608  CLST         285          1.0000000000
       855       285  TIP3  H2          -11.6168811314       -6.3472313901        7.3385990448  CLST         285          1.0000000000
       856       286  TIP3  OH2          -2.4933689236       -9.6312973424      -10.6996270253  CLST         286          1.0000000000
       857       286  TIP3  H1           -2.6490930935       -9.3709387524      -11.5938994183  CLST         286          1.0000000000
       858       286  TIP3  H2           -3.3678266108       -9.9469456260      -10.5733787167  CLST         286          1.0000000000
       859       287  TIP3  OH2           2.8302079438       -0.7260785454       -7.9223602126  CLST         287          1.0000000000
       860       287  TIP3  H1            2.6035267548        0.2054187012       -7.9791439163  CLST         287          1.0000000000
       861       287  TIP3  H2            3.7079012219       -0.3988136610       -8.0668993166  CLST         287          1.0000000000
       862       288  TIP3  OH2          13.7990544487      -14.3962185449       -8.5102237306  CLST         288          1.0000000000
       863       288  TIP3  H1           13.1828244999      -13.8711873035       -7.9160886684  CLST         288          1.0000000000
       864       288  TIP3  H2           14.4155435061      -14.1568473636       -7.8511639398  CLST         288          1.0000000000
       865       289  TIP3  OH2          14.0450084052        3.6183904762      -10.3611439916  CLST         289          1.0000000000
       866       289  TIP3  H1           13.8527434412        3.7289585063       -9.3422014727  CLST         289          1.0000000000
       867       289  TIP3  H2           14.8576170732        3.3335297980      -10.0443135720  CLST         289          1.0000000000
       868       290  TIP3  OH2          11.6330920121        0.9903899448       12.0154738601  CLST         290          1.0000000000
       869       290  TIP3  H1           11.6479547678        1.1107563297       12.9446333612  CLST         290          1.0000000000
       870       290  TIP3  H2           11.3771152546        1.9053390101       12.0345358288  CLST         290          1.0000000000
       871       291  TIP3  OH2         -11.1556615678       -9.2566851735       -2.6909646149  CLST         291          1.0000000000
       872       291  TIP3  H1          -10.8009511714       -9.7648059624       -1.8944472272  CLST         291          1.0000000000
       873       291  TIP3  H2          -11.5055946825       -8.7832324388       -1.9327155229  CLST         291          1.0000000000
       874       292  TIP3  OH2           9.0278671417       -1.8495851320      -11.8067813065  CLST         292          1.0000000000
       875       292  TIP3  H1            8.7818245965       -2.7923748871      -11.6139995903  CLST         292          1.0000000000
       876       292  TIP3  H2            9.2139313224       -1.9400003376      -10.8442517918  CLST         292          1.0000000000
       877       293  TIP3  OH2           2.3019203835        2.7837140505      -13.4211069184  CLST         293          1.0000000000
       878       293  TIP3  H1            1.8863529056        3.6230453243      -13.6502643000  CLST         293          1.0000000000
       879       293  TIP3  H2            3.1426448307        3.1777331401      -13.7360946624  CLST         293          1.0000000000
       880       294  TIP3  OH2           1.6880354618        7.9346989147        1.0225220279  CLST         294          1.0000000000
       881       294  TIP3  H1            1.3335479960        7.4939530721        1.8535482701  CLST         294          1.0000000000
       882       294  TIP3  H2            2.2513355765        7.9602047509        2.0798127547  CLST         294          1.0000000000
       883       295  TIP3  OH2           3.8876661408       12.7894361595       -4.5094023799  CLST         295          1.0000000000
       884       295  TIP3  H1            3.3147654741       13.2425032137       -3.9221192350  CLST         295          1.0000000000
       885       295  TIP3  H2            4.2010329959       13.5064563219       -4.9921846446  CLST         295          1.0000000000
       886       296  TIP3  OH2           2.6625531037        5.6152673357      -11.0420269028  CLST         296          1.0000000000
       887       296  TIP3  H1            2.6989250606        5.2062590425      -11.9410574950  CLST         296          1.0000000000
       888       296  TIP3  H2            1.7633451869        5.1652631646      -11.5795496034  CLST         296          1.0000000000
       889       297  TIP3  OH2          13.4775004946       -0.0308924524        8.7900277168  CLST         297          1.0000000000
       890       297  TIP3  H1           13.7388566939        0.8990891116        8.8853603042  CLST         297          1.0000000000
       891       297  TIP3  H2           14.4195773106       -0.2023905746        8.8732410943  CLST         297          1.0000000000
       892       298  TIP3  OH2          12.1532586455       -5.0393096162      -12.3572584226  CLST         298          1.0000000000
       893       298  TIP3  H1           11.5775880346       -5.8621254531      -12.5379035691  CLST         298          1.0000000000
       894       298  TIP3  H2           12.7813778045       -5.7722097575      -12.3352686582  CLST         298          1.0000000000
       895       299  TIP3  OH2           3.3589549391       -5.8174806579       -7.2423470669  CLST         299          1.0000000000
       896       299  TIP3  H1            3.0999098527       -4.9121500963       -7.1780711849  CLST         299          1.0000000000
       897       299  TIP3  H2            3.9707763574       -5.6989337906       -6.5561018939  CLST         299          1.0000000000
       898       300  TIP3  OH2          10.5174048338       -6.7027427229      -13.6617791089  CLST         300          1.0000000000
       899       300  TIP3  H1           10.2783453489       -6.1744319896      -14.5154973280  CLST         300          1.0000000000
       900       300  TIP3  H2            9.4322076951       -6.2665201247      -13.8890330187  CLST         300          1.0000000000
       901       301  TIP3  OH2          10.9825099086       -6.6165328183        0.3123145123  CLST         301          1.0000000000
       902       301  TIP3  H1           11.1819242844       -5.9479806009       -0.3247570898  CLST         301          1.0000000000
       903       301  TIP3  H2           10.7771035611       -7.1050393056       -0.5339100718  CLST         301          1.0000000000
       904       302  TIP3  OH2          11.1960191120       -7.1842426423       11.4261150643  CLST         302          1.0000000000
       905       302  TIP3  H1           11.7969061071       -6.6620907018       10.9833858365  CLST         302          1.0000000000
       906       302  TIP3  H2           11.3819984128       -8.0768484945       11.0777445566  CLST         302          1.0000000000
       907       303  TIP3  OH2          -8.6377907845       11.9424941835        6.8347045362  CLST         303          1.0000000000
       908       303  TIP3  H1           -9.1322278546       12.3679706831        6.0860603471  CLST         303          1.0000000000
       909       303  TIP3  H2           -8.1013489827       12.7296018474        6.6939655811  CLST         303          1.0000000000
       910       304  TIP3  OH2          -1.9367833222        8.3926433990       -0.6742688882  CLST         304          1.0000000000
       911       304  TIP3  H1           -2.4388129803        7.6835072000       -0.2015197455  CLST         304          1.0000000000
       912       304  TIP3  H2           -2.7110100399        8.7871854626       -0.7397179223  CLST         304          1.0000000000
       913       305  TIP3  OH2          -2.2552712822       -6.1784754306      -10.4270455222  CLST         305          1.0000000000
       914       305  TIP3  H1           -1.8025599644       -5.1816011345      -10.9651628515  CLST         305          1.0000000000
       915       305  TIP3  H2           -1.3130085183       -6.0141655117      -10.8243846861  CLST         305          1.0000000000
       916       306  TIP3  OH2          -8.3742493995      -14.1352618391       -7.0916028495  CLST         306          1.0000000000
       917       306  TIP3  H1           -7.5571460973      -14.5354566262       -6.6825569687  CLST         306          1.0000000000
       918       306  TIP3  H2           -8.4421236387      -13.7741957816       -6.2253592801  CLST         306          1.0000000000
       919       307  TIP3  OH2           0.7165006151       10.0062118273      -14.1258067754  CLST         307          1.0000000000
       920       307  TIP3  H1            1.4228492897       10.3052320824      -13.5035871559  CLST         307          1.0000000000
       921       307  TIP3  H2            1.2641425295        9.1995458240      -14.0551699857  CLST         307          1.0000000000
       922       308  TIP3  OH2          12.4856452445       -3.3446287313       13.1090694132  CLST         308          1.0000000000
       923       308  TIP3  H1           12.4701792153       -3.2677031860       12.1261195880  CLST         308          1.0000000000
       924       308  TIP3  H2           13.3062855458       -3.7350923689       13.1826520114  CLST         308          1.0000000000
       925       309  TIP3  OH2          12.7869318343       12.5640950747       14.9391371020  CLST         309          1.0000000000
       926       309  TIP3  H1           12.3558602267       11.7691923723       14.7660285301  CLST         309          1.0000000000
       927       309  TIP3  H2           13.0349672899       12.6968502594       14.0337054987  CLST         309          1.0000000000
       928       310  TIP3  OH2           4.3655768834       14.5759585708       -6.6795221964  CLST         310          1.0000000000
       929       310  TIP3  H1            4.9643535843       14.7308392852       -7.4127650115  CLST         310          1.0000000000
       930       310  TIP3  H2            3.4878464641       14.4263402694       -7.1395147538  CLST         310          1.0000000000
       931       311  TIP3  OH2          -5.8395285218        5.9627104009       -5.2753807999  CLST         311          1.0000000000
       932       311  TIP3  H1           -6.6750455958        5.4385748376       -5.2343491179  CLST         311          1.0000000000
       933       311  TIP3  H2           -5.9539974253        5.7332838846       -6.2386570890  CLST         311          1.0000000000
       934       312  TIP3  OH2           4.9696383856       -8.9499263248        7.8946183019  CLST         312          1.0000000000
       935       312  TIP3  H1            4.9059039058       -8.0805758730        8.3837370019  CLST         312          1.0000000000
       936       312  TIP3  H2            5.8180515736       -8.6202742377        7.4527061954  CLST         312          1.0000000000
       937       313  TIP3  OH2          -2.2441188187        7.9735177420       10.9676897079  CLST         313          1.0000000000
       938       313  TIP3  H1           -3.0073954575        8.5675217424       10.7059597675  CLST         313          1.0000000000
       939       313  TIP3  H2           -2.9595135515        7.3238940459       10.8694798888  CLST         313          1.0000000000
       940       314  TIP3  OH2           9.7058850053       -2.6418901692       -1.9215662224  CLST         314          1.0000000000
       941       314  TIP3  H1            9.2313769373       -3.3474009704       -1.1895729270  CLST         314          1.0000000000
       942       314  TIP3  H2            8.6009513596       -2.5748906191       -1.6282580912  CLST         314          1.0000000000
       943       315  TIP3  OH2           4.4465490762       10.2728607055       -2.9570387405  CLST         315          1.0000000000
       944       315  TIP3  H1            3.6705555878        9.6805517444       -2.8725078348  CLST         315          1.0000000000
       945       315  TIP3  H2            4.1433127518       10.8839146002       -2.2230686478  CLST         315          1.0000000000
       946       316  TIP3  OH2          13.8448370953       -6.9042191389       -6.0988105028  CLST         316          1.0000000000
       947       316  TIP3  H1           13.0318217955       -6.4683714750       -5.8007065484  CLST         316          1.0000000000
       948       316  TIP3  H2           13.7597627611       -6.2589744899       -6.7857175071  CLST         316          1.0000000000
       949       317  TIP3  OH2          -2.8493619902      -10.1820097453       -2.6021312979  CLST         317          1.0000000000
       950       317  TIP3  H1           -2.7370320685       -9.8944910224       -3.5096083990  CLST         317          1.0000000000
       951       317  TIP3  H2           -2.1283646373       -9.5676461692       -2.4114179053  CLST         317          1.0000000000
       952       318  TIP3  OH2          -1.3019229443        9.8370380528       -4.9089543292  CLST         318          1.0000000000
       953       318  TIP3  H1           -2.1401946806        9.5246894811       -5.2655615957  CLST         318          1.0000000000
       954       318  TIP3  H2           -1.6300128744       10.6255475296       -5.3817544936  CLST         318          1.0000000000
       955       319  TIP3  OH2           6.2775002512       -7.8134999181       -2.0647623082  CLST         319          1.0000000000
       956       319  TIP3  H1            6.8960120984       -8.2612713826       -2.7350760162  CLST         319          1.0000000000
       957       319  TIP3  H2            6.4478266787       -8.6065032557       -1.5019228609  CLST         319          1.0000000000
       958       320  TIP3  OH2           5.7173776317       12.8816831170      -12.4280454653  CLST         320          1.0000000000
       959       320  TIP3  H1            5.7590743558       12.2690191912      -13.1532255739  CLST         320          1.0000000000
       960       320  TIP3  H2            6.4382121923       12.2538369118      -12.2596653085  CLST         320          1.0000000000
       961       321  TIP3  OH2           1.5542681085      -11.3482604319        9.3990889416  CLST         321          1.0000000000
       962       321  TIP3  H1            1.7840103308      -12.0840368182        9.9654227686  CLST         321          1.0000000000
       963       321  TIP3  H2            1.8570051363      -10.7839650733       10.0524717480  CLST         321          1.0000000000
       964       322  TIP3  OH2           0.8711438688        5.7454066254        9.8796915266  CLST         322          1.0000000000
       965       322  TIP3  H1            0.2897342054        6.2070232503        9.3029116810  CLST         322          1.0000000000
       966       322  TIP3  H2            0.1202931638        5.1377415427       10.0844016114  CLST         322          1.0000000000
       967       323  TIP3  OH2           8.1962116610        3.0266715182       12.9273763465  CLST         323          1.0000000000
       968       323  TIP3  H1            7.3706301543        2.5873391567       12.6677997181  CLST         323          1.0000000000
       969       323  TIP3  H2            8.3284065921        2.8050817221       11.9586098776  CLST         323          1.0000000000
       970       324  TIP3  OH2           6.0348736634        3.0567696158       -1.7852710183  CLST         324          1.0000000000
       971       324  TIP3  H1            5.9691281055        3.9867928092       -1.6148630990  CLST         324          1.0000000000
       972       324  TIP3  H2            5.5613866051        3.2743998739       -2.5866311224  CLST         324          1.0000000000
       973       325  TIP3  OH2         -12.3144067809       -8.0644298078       11.7591712441  CLST         325          1.0000000000
       974       325  TIP3  H1          -12.9199483739       -7.6659517555       11.0678962978  CLST         325          1.0000000000
       975       325  TIP3  H2          -11.6600314305       -7.5384396185       11.2995465600  CLST         325          1.0000000000
       976       326  TIP3  OH2         -12.4659823051        9.3030039406       -5.4549967605  CLST         326          1.0000000000
       977       326  TIP3  H1          -12.5536001044       10.2183545377       -5.1446098596  CLST         326          1.0000000000
       978       326  TIP3  H2          -11.8470533588        9.2431053771       -6.1594687829  CLST         326          1.0000000000
       979       327  TIP3  OH2          12.4921401157       -5.5507467158        9.8019745743  CLST         327          1.0000000000
       980       327  TIP3  H1           12.4741841668       -6.2187870416        9.1102467030  CLST         327          1.0000000000
       981       327  TIP3  H2           12.4790935196       -4.9469626527        9.1239902906  CLST         327          1.0000000000
       982       328  TIP3  OH2         -12.5524939544       -7.9401329405      -12.8085700109  CLST         328          1.0000000000
       983       328  TIP3  H1          -11.8850614082       -7.8834449987      -12.1038594307  CLST         328          1.0000000000
       984       328  TIP3  H2          -11.9716793490       -8.7483542837      -13.0566853984  CLST         328          1.0000000000
       985       329  TIP3  OH2           6.9846572357       -4.5510325513       -1.6264038824  CLST         329          1.0000000000
       986       329  TIP3  H1            6.5889724200       -3.6501584079       -0.9732457152  CLST         329          1.0000000000
       987       329  TIP3  H2            6.1155554048       -4.2486119449       -1.6232812256  CLST         329          1.0000000000
       988       330  TIP3  OH2          12.8154752993        6.0624270211      -14.2781344084  CLST         330          1.0000000000
       989       330  TIP3  H1           13.4982754520        6.2096350233      -14.8576631707  CLST         330          1.0000000000
       990       330  TIP3  H2           13.3658388984        5.8300957162      -13.5675598259  CLST         330          1.0000000000
       991       331  TIP3  OH2          -4.5911461193        0.0471803153        6.0849031276  CLST         331          1.0000000000
       992       331  TIP3  H1           -4.3545543313        0.7436141448        5.5035842039  CLST         331          1.0000000000
       993       331  TIP3  H2           -5.5246297662        0.2922656590        6.1048033842  CLST         331          1.0000000000
       994       332  TIP3  OH2          -8.7706507246        8.8888757032       -2.0713567922  CLST         332          1.0000000000
       995       332  TIP3  H1           -9.3789401677        9.7062488251       -1.9003943022  CLST         332          1.0000000000
       996       332  TIP3  H2           -8.3714309967        9.2008485325       -1.2351983066  CLST         332          1.0000000000
       997       333  TIP3  OH2          -6.6899225953       -8.4951032635       -6.9429657220  CLST         333          1.0000000000
       998       333  TIP3  H1           -7.1751511494       -9.0187222837       -7.6312055480  CLST         333          1.0000000000
       999       333  TIP3  H2           -7.4925258007       -7.9466379916       -6.7885882602  CLST         333          1.0000000000
      1000       334  TIP3  OH2         -10.6693875345        8.2626526877       -9.5086319195  CLST         334          1.0000000000
      1001       334  TIP3  H1          -10.0591410868        8.9695864043       -9.5829482094  CLST         334          1.0000000000
      1002       334  TIP3  H2          -10.5274149727        8.3924589706       -8.5874521483  CLST         334          1.0000000000
      1003       335  TIP3  OH2           1.4916856991        0.3372371811       -1.1264609266  CLST         335          1.0000000000
      1004       335  TIP3  H1            1.3009685437       -0.5898598767       -0.7194643238  CLST         335          1.0000000000
      1005       335  TIP3  H2            0.7833639743        0.1128928145       -1.7589221098  CLST         335          1.0000000000
      1006       336  TIP3  OH2          11.4921548549        5.4868787070        1.4813725819  CLST         336          1.0000000000
      1007       336  TIP3  H1           10.6740359211        5.1708883562        1.0223160284  CLST         336          1.0000000000
      1008       336  TIP3  H2           11.0798816776        6.3024372279        1.2337025236  CLST         336          1.0000000000
      1009       337  TIP3  OH2           2.0978957191      -14.8248317425        5.3762019826  CLST         337          1.0000000000
      1010       337  TIP3  H1            2.2276860495      -13.7935008575        5.6917247731  CLST         337          1.0000000000
      1011       337  TIP3  H2            2.1424482506      -13.9392321113        4.6956113912  CLST         337          1.0000000000
      1012       338  TIP3  OH2          -4.3746269997        2.6122425452      -11.5625016341  CLST         338          1.0000000000
      1013       338  TIP3  H1           -5.0979787664        3.0766430756      -11.9845255162  CLST         338          1.0000000000
      1014       338  TIP3  H2           -4.9494612697        1.9323113626      -11.8487377745  CLST         338          1.0000000000
      1015       339  TIP3  OH2           4.8396634821        2.3115070069       -7.8805964158  CLST         339          1.0000000000
      1016       339  TIP3  H1            3.8637867156        2.6077971210       -8.0250778328  CLST         339          1.0000000000
      1017       339  TIP3  H2            4.9375888030        3.1586602470       -8.3768315275  CLST         339          1.0000000000
      1018       340  TIP3  OH2         -10.7552842033       11.8620364923       -8.8155531094  CLST         340          1.0000000000
      1019       340  TIP3  H1          -11.6376481642       11.5627799240       -9.0082402516  CLST         340          1.0000000000
      1020       340  TIP3  H2          -11.0378855394       12.7057078927       -8.3178235686  CLST         340          1.0000000000
      1021       341  TIP3  OH2          -1.6765843563       13.8721844237       -0.6586069591  CLST         341          1.0000000000
      1022       341  TIP3  H1           -1.3170599102       12.9538737066       -0.6668740543  CLST         341          1.0000000000
      1023       341  TIP3  H2           -1.4124616496       13.8836141374       -1.5997707355  CLST         341          1.0000000000
      1024       342  TIP3  OH2         -11.8102284491        3.6328087047        9.5779580811  CLST         342          1.0000000000
      1025       342  TIP3  H1          -12.2435667911        2.8359406941        9.9165444738  CLST         342          1.0000000000
      1026       342  TIP3  H2          -11.3950649977        3.8099600016       10.4413742057  CLST         342          1.0000000000
      1027       343  TIP3  OH2          -0.7309277803       -1.5205362674      -14.0309619362  CLST         343          1.0000000000
      1028       343  TIP3  H1           -0.9559197176       -0.7405318355      -13.5348004797  CLST         343          1.0000000000
      1029       343  TIP3  H2           -1.0405336204       -1.0402371978      -14.8050106735  CLST         343          1.0000000000
      1030       344  TIP3  OH2           8.9640012935        3.9426937311        4.2367384327  CLST         344          1.0000000000
      1031       344  TIP3  H1            8.4245935014        4.9509740293        4.4359359780  CLST         344          1.0000000000
      1032       344  TIP3  H2            8.1624510332        3.9365540844        4.5235376308  CLST         344          1.0000000000
      1033       345  TIP3  OH2           0.0978657188        9.8450787607       -0.2242003559  CLST         345          1.0000000000
      1034       345  TIP3  H1            0.7675204877        9.1811938341        0.0697711536  CLST         345          1.0000000000
      1035       345  TIP3  H2           -0.5131992985        9.1826436397        0.0477977572  CLST         345          1.0000000000
      1036       346  TIP3  OH2          -4.8422818339      -14.9051212838        6.4344866048  CLST         346          1.0000000000
      1037       346  TIP3  H1           -5.0886809416      -14.0469373131        6.0013795046  CLST         346          1.0000000000
      1038       346  TIP3  H2           -4.4522679913      -14.0839916654        7.1391164595  CLST         346          1.0000000000
      1039       347  TIP3  OH2         -13.6829438334      -11.7137051450       -2.1874849411  CLST         347          1.0000000000
      1040       347  TIP3  H1          -13.8585608940      -11.1637639211       -3.0298318057  CLST         347          1.0000000000
      1041       347  TIP3  H2          -13.5027337410      -10.9505322023       -1.7245001615  CLST         347          1.0000000000
      1042       348  TIP3  OH2           4.2613531430        7.7866067254       -7.4287052024  CLST         348          1.0000000000
      1043       348  TIP3  H1            5.3022006136        7.5493433776       -7.3238329353  CLST         348          1.0000000000
      1044       348  TIP3  H2            4.8770321148        7.7119067800       -6.4321422308  CLST         348          1.0000000000
      1045       349  TIP3  OH2           8.1904644227        9.8916673628        2.5287511744  CLST         349          1.0000000000
      1046       349  TIP3  H1            8.4070856973       10.0614574549        1.5997165177  CLST         349          1.0000000000
      1047       349  TIP3  H2            7.4594882924        9.4133312200        2.1867165073  CLST         349          1.0000000000
      1048       350  TIP3  OH2          -8.7599655173        1.0250258508      -14.4799403247  CLST         350          1.0000000000
      1049       350  TIP3  H1           -8.9558191175        0.0851887964      -14.3091448665  CLST         350          1.0000000000
      1050       350  TIP3  H2           -9.7316047503        1.0463951512      -14.7121411973  CLST         350          1.0000000000
      1051       351  TIP3  OH2          10.2474221041        3.5577089436        6.0230636031  CLST         351          1.0000000000
      1052       351  TIP3  H1           10.6037405670        4.0061423236        5.2245598432  CLST         351          1.0000000000
      1053       351  TIP3  H2            9.9360164614        2.9934742070        5.3176107486  CLST         351          1.0000000000
      1054       352  TIP3  OH2           5.4157925104       -0.3836095450       -8.2662896716  CLST         352          1.0000000000
      1055       352  TIP3  H1            6.1150041031       -0.4914932301       -7.4852397532  CLST         352          1.0000000000
      1056       352  TIP3  H2            5.4022211862        0.5629694284       -7.9828544665  CLST         352          1.0000000000
      1057       353  TIP3  OH2          -1.6349418254        9.5769209649      -12.7005076047  CLST         353          1.0000000000
      1058       353  TIP3  H1           -0.9524549234        9.7791346656      -13.3122989078  CLST         353          1.0000000000
      1059       353  TIP3  H2           -1.5627462659        8.6224884306      -12.7554503704  CLST         353          1.0000000000
      1060       354  TIP3  OH2         -11.8755044548      -10.7195957531      -13.9671556771  CLST         354          1.0000000000
      1061       354  TIP3  H1          -12.3068491187      -10.4910364154      -14.8019775284  CLST         354          1.0000000000
      1062       354  TIP3  H2          -11.3247642727      -11.1839470555      -14.5889443237  CLST         354          1.0000000000
      1063       355  TIP3  OH2           2.0245716961      -13.7185707013       -9.6813005217  CLST         355          1.0000000000
      1064       355  TIP3  H1            1.7515141750      -13.4136923845       -8.7691071738  CLST         355          1.0000000000
      1065       355  TIP3  H2            1.3759573896      -12.9760810500       -9.8843612618  CLST         355          1.0000000000
      1066       356  TIP3  OH2         -12.8591749277       -4.9705146838       -3.0359821076  CLST         356          1.0000000000
      1067       356  TIP3  H1          -13.1024798065       -5.8481722433       -3.0754425087  CLST         356          1.0000000000
      1068       356  TIP3  H2          -13.2324671055       -4.7453680205       -3.8635197178  CLST         356          1.0000000000
      1069       357  TIP3  OH2          -6.8102676820       -9.8352222363        4.8913644197  CLST         357          1.0000000000
      1070       357  TIP3  H1           -5.8192876823       -9.9619067144        4.8161053059  CLST         357          1.0000000000
      1071       357  TIP3  H2           -6.4951085199       -8.9339464990        4.6765741361  CLST         357          1.0000000000
      1072       358  TIP3  OH2          -2.3709507359       -7.8086169385        3.9765482159  CLST         358          1.0000000000
      1073       358  TIP3  H1           -1.4950565558       -7.3463406036        3.9219862469  CLST         358          1.0000000000
      1074       358  TIP3  H2           -2.3994458581       -7.4257115784        4.8704669030  CLST         358          1.0000000000
      1075       359  TIP3  OH2          10.4165743410        9.9893483015       -1.9267662522  CLST         359          1.0000000000
      1076       359  TIP3  H1           10.2594839949       10.6519924805       -0.9933158176  CLST         359          1.0000000000
      1077       359  TIP3  H2           10.7465871223       10.8879201823       -2.0188594992  CLST         359          1.0000000000
      1078       360  TIP3  OH2           7.6693851566       12.8720825077       12.8840077741  CLST         360          1.0000000000
      1079       360  TIP3  H1            8.2203843858       13.5810566652       12.7264152958  CLST         360          1.0000000000
      1080       360  TIP3  H2            7.2151481748       12.8737088695       11.9782753265  CLST         360          1.0000000000
      1081       361  TIP3  OH2          -6.2528601965      -10.8236272203       10.2807038621  CLST         361          1.0000000000
      1082       361  TIP3  H1           -5.9599830493      -11.3400662084        9.4980344823  CLST         361          1.0000000000
      1083       361  TIP3  H2           -6.6672068644      -11.6442250456       10.5055847690  CLST         361          1.0000000000
      1084       362  TIP3  OH2           4.6995588298       -3.3777837108       10.2422415252  CLST         362          1.0000000000
      1085       362  TIP3  H1            5.2017328299       -3.2354658932        9.4401815998  CLST         362          1.0000000000
      1086       362  TIP3  H2            5.4095133953       -3.9594924409       10.5638668205  CLST         362          1.0000000000
      1087       363  TIP3  OH2           4.7992490605       -4.3744034956       13.9553006223  CLST         363          1.0000000000
      1088       363  TIP3  H1            4.6701909596       -4.6439763420       14.8474921938  CLST         363          1.0000000000
      1089       363  TIP3  H2            5.6172088340       -3.9877585873       14.2860874077  CLST         363          1.0000000000
      1090       364  TIP3  OH2          -1.1479974280        4.7181848090       13.2082871726  CLST         364          1.0000000000
      1091       364  TIP3  H1           -0.3222652682        4.4210685125       13.5864258566  CLST         364          1.0000000000
      1092       364  TIP3  H2           -0.9039176179        5.6501616758       13.1566147581  CLST         364          1.0000000000
      1093       365  TIP3  OH2          -7.7395827036        4.9166013863      -11.8832109841  CLST         365          1.0000000000
      1094       365  TIP3  H1           -8.0808490784        5.4069369538      -11.0812270016  CLST         365          1.0000000000
      1095       365  TIP3  H2           -6.9554399887        5.4728763090      -11.5617346656  CLST         365          1.0000000000
      1096       366  TIP3  OH2         -10.1998175425       -2.6580295489        0.5222005029  CLST         366          1.0000000000
      1097       366  TIP3  H1          -11.0941660958       -3.0394188222        0.3243457444  CLST         366          1.0000000000
      1098       366  TIP3  H2          -10.3452457581       -2.4080179169       -0.3839330992  CLST         366          1.0000000000
      1099       367  TIP3  OH2          13.5824342360       10.8594129480       11.7714043814  CLST         367          1.0000000000
      1100       367  TIP3  H1           12.9266358983       11.5719502885       11.5484784633  CLST         367          1.0000000000
      1101       367  TIP3  H2           13.1723849256       10.5560298285       12.5963091375  CLST         367          1.0000000000
      1102       368  TIP3  OH2          -9.7228089229       -1.3489108713       12.9294775503  CLST         368          1.0000000000
      1103       368  TIP3  H1          -10.6346577162       -1.2423827004       12.6518340000  CLST         368          1.0000000000
      1104       368  TIP3  H2           -9.6670077377       -2.3154594908       13.0439130463  CLST         368          1.0000000000
      1105       369  TIP3  OH2           7.8802932311        9.4790966740       -2.5901440593  CLST         369          1.0000000000
      1106       369  TIP3  H1            8.8066614980        9.5182865784       -2.4722450926  CLST         369          1.0000000000
      1107       369  TIP3  H2            7.9230679714        8.6474262618       -2.0454759418  CLST         369          1.0000000000
      1108       370  TIP3  OH2          -6.8799111419      -12.7366320705       -0.9039339411  CLST         370          1.0000000000
      1109       370  TIP3  H1           -5.9635820305      -13.0759855868       -0.7907741235  CLST         370          1.0000000000
      1110       370  TIP3  H2           -6.8919514549      -13.1454497436        0.0209652705  CLST         370          1.0000000000
      1111       371  TIP3  OH2           8.7568141689       12.2703931767        9.6571412682  CLST         371          1.0000000000
      1112       371  TIP3  H1            8.7780632468       11.6016817045        8.9328363369  CLST         371          1.0000000000
      1113       371  TIP3  H2            7.8049781602       12.3408793084        9.6276815420  CLST         371          1.0000000000
      1114       372  TIP3  OH2          -0.9797751553       11.6429377361       -1.8987709054  CLST         372          1.0000000000
      1115       372  TIP3  H1           -1.7490486575       11.1794735399       -2.2065290111  CLST         372          1.0000000000
      1116       372  TIP3  H2           -0.8651689492       10.8304464560       -1.3856248130  CLST         372          1.0000000000
      1117       373  TIP3  OH2           8.8060124022       -5.4775283887        8.1384485239  CLST         373          1.0000000000
      1118       373  TIP3  H1            8.6927741010       -6.3292854105        8.6074395178  CLST         373          1.0000000000
      1119       373  TIP3  H2            9.6741627336       -5.8591765357        7.8387534573  CLST         373          1.0000000000
      1120       374  TIP3  OH2          11.2547228982      -10.0708578750       -4.6945139880  CLST         374          1.0000000000
      1121       374  TIP3  H1           10.5246482187      -10.2255732776       -4.0813324886  CLST         374          1.0000000000
      1122       374  TIP3  H2           11.6255796779      -10.9422382839       -4.3781664878  CLST         374          1.0000000000
      1123       375  TIP3  OH2           1.4707935970       13.6858775494       -2.7268710680  CLST         375          1.0000000000
      1124       375  TIP3  H1            1.2377243029       14.2368781049       -2.0297169482  CLST         375          1.0000000000
      1125       375  TIP3  H2            0.6538872719       13.8035839653       -3.1156426312  CLST         375          1.0000000000
      1126       376  TIP3  OH2          10.6134401451        4.1526875958       -8.7954458241  CLST         376          1.0000000000
      1127       376  TIP3  H1            9.6940959513        4.4881941935       -8.5969530750  CLST         376          1.0000000000
      1128       376  TIP3  H2           10.8276960887        4.8005792606       -9.4585374010  CLST         376          1.0000000000
      1129       377  TIP3  OH2           7.9108050645       11.2315669077      -12.0734925198  CLST         377          1.0000000000
      1130       377  TIP3  H1            8.4446553893       11.0012768007      -12.8764457425  CLST         377          1.0000000000
      1131       377  TIP3  H2            8.8536118422       11.2402444874      -11.7055939461  CLST         377          1.0000000000
      1132       378  TIP3  OH2           6.4614590882        9.4411636274        7.1376106419  CLST         378          1.0000000000
      1133       378  TIP3  H1            7.0121957843        8.6756611096        7.4198864313  CLST         378          1.0000000000
      1134       378  TIP3  H2            6.0222992027        9.3456167240        8.0004152315  CLST         378          1.0000000000
      1135       379  TIP3  OH2          -6.7869069063      -10.5153655845       -2.1286101120  CLST         379          1.0000000000
      1136       379  TIP3  H1           -6.2961940599      -10.8718676291       -2.8504336701  CLST         379          1.0000000000
      1137       379  TIP3  H2           -7.1911698935      -11.4025200133       -2.3125031041  CLST         379          1.0000000000
      1138       380  TIP3  OH2           7.5767208240       11.3760345874        4.7487752661  CLST         380          1.0000000000
      1139       380  TIP3  H1            6.6389513230       11.5664556209        4.4229342919  CLST         380          1.0000000000
      1140       380  TIP3  H2            7.5404105201       10.7883949362        3.9635758975  CLST         380          1.0000000000
      1141       381  TIP3  OH2          -7.3822200515       -6.8780326949      -10.1686948683  CLST         381          1.0000000000
      1142       381  TIP3  H1           -7.7951148500       -6.5717253255      -11.0063424159  CLST         381          1.0000000000
      1143       381  TIP3  H2           -6.5020082750       -6.6761800563      -10.4947804571  CLST         381          1.0000000000
      1144       382  TIP3  OH2          -3.6259003773        2.5547304274       -2.2709350594  CLST         382          1.0000000000
      1145       382  TIP3  H1           -4.2720509153        2.5519246070       -3.0189489229  CLST         382          1.0000000000
      1146       382  TIP3  H2           -3.7801170377        1.5597113183       -2.5383256237  CLST         382          1.0000000000
      1147       383  TIP3  OH2          -7.5121543124       -9.5943454291        8.8533811858  CLST         383          1.0000000000
      1148       383  TIP3  H1           -6.5741675305       -9.2866415255        8.7778201597  CLST         383          1.0000000000
      1149       383  TIP3  H2           -7.1628892918      -10.2817947357        8.3132680826  CLST         383          1.0000000000
      1150       384  TIP3  OH2         -11.8551985007       -5.5650240364       13.2250561284  CLST         384          1.0000000000
      1151       384  TIP3  H1          -11.8129785603       -6.4207310296       13.5815639398  CLST         384          1.0000000000
      1152       384  TIP3  H2          -12.3017104282       -6.0590945640       12.5103740293  CLST         384          1.0000000000
      1153       385  TIP3  OH2           7.9399159921        0.4236192954        8.9992856578  CLST         385          1.0000000000
      1154       385  TIP3  H1            7.9958690681        1.2996781402        9.4998655578  CLST         385          1.0000000000
      1155       385  TIP3  H2            8.7104070394        0.2506691305        9.5917327766  CLST         385          1.0000000000
      1156       386  TIP3  OH2         -12.5584645223       -8.6126510367        8.9539701872  CLST         386          1.0000000000
      1157       386  TIP3  H1          -12.4638588946       -7.6741723792        8.7835455544  CLST         386          1.0000000000
      1158       386  TIP3  H2          -11.6365978099       -8.5883360779        9.2193708706  CLST         386          1.0000000000
      1159       387  TIP3  OH2          -1.2150692644      -12.9921229833       -1.0231897306  CLST         387          1.0000000000
      1160       387  TIP3  H1           -1.2336107749      -13.7676710816       -0.1254624488  CLST         387          1.0000000000
      1161       387  TIP3  H2           -1.4510315357      -12.7065589835       -0.1668702833  CLST         387          1.0000000000
      1162       388  TIP3  OH2           3.3205401665        7.3486194138        7.0908383781  CLST         388          1.0000000000
      1163       388  TIP3  H1            2.9866479204        7.5078315041        6.1191985840  CLST         388          1.0000000000
      1164       388  TIP3  H2            4.1718528024        7.2692827469        6.5741748514  CLST         388          1.0000000000
      1165       389  TIP3  OH2          -3.7003141845      -11.4011872461       -0.2337495317  CLST         389          1.0000000000
      1166       389  TIP3  H1           -4.5997840164      -11.2352636583       -0.5013479122  CLST         389          1.0000000000
      1167       389  TIP3  H2           -3.5393084999      -11.0986799902       -1.1641818274  CLST         389          1.0000000000
      1168       390  TIP3  OH2          -1.0814244928        4.8340735106        4.7193703696  CLST         390          1.0000000000
      1169       390  TIP3  H1           -0.2678731465        3.8983962871        4.9494291085  CLST         390          1.0000000000
      1170       390  TIP3  H2           -0.6964183865        4.0813586935        4.0726626597  CLST         390          1.0000000000
      1171       391  TIP3  OH2          -6.1597188214       -4.7001927189        1.7714452867  CLST         391          1.0000000000
      1172       391  TIP3  H1           -6.2454958067       -3.8052963709        1.6879186647  CLST         391          1.0000000000
      1173       391  TIP3  H2           -7.0532932185       -4.8030877839        2.1611279586  CLST         391          1.0000000000
      1174       392  TIP3  OH2           4.9931208867        9.2932875745       -5.4381887585  CLST         392          1.0000000000
      1175       392  TIP3  H1            5.7644099036        9.0039341131       -4.9399639778  CLST         392          1.0000000000
      1176       392  TIP3  H2            4.6679678476        9.4471824579       -4.4822645854  CLST         392          1.0000000000
      1177       393  TIP3  OH2          13.3222274498       11.2029397013       -7.5991126525  CLST         393          1.0000000000
      1178       393  TIP3  H1           13.2968839700       10.3580961204       -8.0147125379  CLST         393          1.0000000000
      1179       393  TIP3  H2           12.7161148538       10.9563816123       -6.8776754287  CLST         393          1.0000000000
      1180       394  TIP3  OH2           1.3756846196        6.4498513339        5.3874063405  CLST         394          1.0000000000
      1181       394  TIP3  H1            0.7390070393        6.5507141784        4.6121497702  CLST         394          1.0000000000
      1182       394  TIP3  H2            1.4532207751        5.6503667839        4.8133937475  CLST         394          1.0000000000
      1183       395  TIP3  OH2          -6.1030480945        7.1502032384        0.0178353351  CLST         395          1.0000000000
      1184       395  TIP3  H1           -5.6923940561        6.3698917353        0.4169911305  CLST         395          1.0000000000
      1185       395  TIP3  H2           -5.2522398974        7.5648873078        0.2007628458  CLST         395          1.0000000000
      1186       396  TIP3  OH2          -3.2970216825        9.3684467771       -2.3277142274  CLST         396          1.0000000000
      1187       396  TIP3  H1           -3.2528228077        8.5941071863       -2.8826862248  CLST         396          1.0000000000
      1188       396  TIP3  H2           -4.1411293123        9.5276900027       -2.7265952091  CLST         396          1.0000000000
      1189       397  TIP3  OH2           2.5412660848      -12.8615639002      -13.4994585923  CLST         397          1.0000000000
      1190       397  TIP3  H1            2.0153653934      -12.0783563354      -13.5562145803  CLST         397          1.0000000000
      1191       397  TIP3  H2            3.0575186766      -12.3910386944      -12.8271843033  CLST         397          1.0000000000
      1192       398  TIP3  OH2           8.8457861361       -4.5127610484        0.3303345337  CLST         398          1.0000000000
      1193       398  TIP3  H1            8.5296167159       -5.3903480732        0.0134268684  CLST         398          1.0000000000
      1194       398  TIP3  H2            8.0852188036       -3.9029942180        0.2252863083  CLST         398          1.0000000000
      1195       399  TIP3  OH2         -14.1937417714       -3.0233323609       13.2594251323  CLST         399          1.0000000000
      1196       399  TIP3  H1          -14.9166069489       -3.5037632333       13.6262564131  CLST         399          1.0000000000
      1197       399  TIP3  H2          -13.4761371215       -3.5417667641       13.6032577930  CLST         399          1.0000000000
      1198       400  TIP3  OH2         -13.1573291541        8.6486581058        4.2180820592  CLST         400          1.0000000000
      1199       400  TIP3  H1          -13.4011923509        9.2458416316        4.9296030265  CLST         400          1.0000000000
      1200       400  TIP3  H2          -13.1998140747        8.0023034658        4.9113404955  CLST         400          1.0000000000
      1201       401  TIP3  OH2           1.5361227463        5.3740721762      -13.6662024880  CLST         401          1.0000000000
      1202       401  TIP3  H1            1.6305180203        5.2967515150      -14.6584074897  CLST         401          1.0000000000
      1203       401  TIP3  H2            0.9762805454        6.1347871867      -13.8326898150  CLST         401          1.0000000000
      1204       402  TIP3  OH2          14.1147148506       -5.0943407743       14.0549669427  CLST         402          1.0000000000
      1205       402  TIP3  H1           13.6792604090       -5.9493864689       14.4058029502  CLST         402          1.0000000000
      1206       402  TIP3  H2           14.9391371020       -5.5036825449       14.3733458865  CLST         402          1.0000000000
      1207       403  TIP3  OH2         -13.1050265974       12.1006578477       -2.5242677699  CLST         403          1.0000000000
      1208       403  TIP3  H1          -13.9377576421       11.5878603241       -2.4825917271  CLST         403          1.0000000000
      1209       403  TIP3  H2          -12.9167401423       12.0714989248       -3.5781702116  CLST         403          1.0000000000
      1210       404  TIP3  OH2           5.5852581635       -3.2069468849        0.3831178857  CLST         404          1.0000000000
      1211       404  TIP3  H1            4.7416998713       -2.7748196533        0.7669734478  CLST         404          1.0000000000
      1212       404  TIP3  H2            5.6538372759       -3.6643242569        1.1976100190  CLST         404          1.0000000000
      1213       405  TIP3  OH2           2.3995000730        8.5104855294       -3.3115746091  CLST         405          1.0000000000
      1214       405  TIP3  H1            1.8991852562        9.4075010712       -3.2179199205  CLST         405          1.0000000000
      1215       405  TIP3  H2            1.4789903469        8.1785567440       -3.0502854243  CLST         405          1.0000000000
      1216       406  TIP3  OH2          -8.8888551177       -2.4242500846       -7.3840568102  CLST         406          1.0000000000
      1217       406  TIP3  H1           -8.7926869807       -1.4988730111       -7.0779475665  CLST         406          1.0000000000
      1218       406  TIP3  H2           -9.7730273600       -2.1445992888       -7.2612815731  CLST         406          1.0000000000
      1219       407  TIP3  OH2           5.4552932137        5.5835503877        4.6432507636  CLST         407          1.0000000000
      1220       407  TIP3  H1            5.9473699499        5.3585962731        5.3838902082  CLST         407          1.0000000000
      1221       407  TIP3  H2            6.2517415071        6.0375249613        4.4310821179  CLST         407          1.0000000000
      1222       408  TIP3  OH2         -13.7793595034       -4.6257933331       -5.5316228146  CLST         408          1.0000000000
      1223       408  TIP3  H1          -13.9443225950       -3.6507572279       -5.5937182354  CLST         408          1.0000000000
      1224       408  TIP3  H2          -13.9044707543       -4.7451931772       -6.5358058490  CLST         408          1.0000000000
      1225       409  TIP3  OH2          -2.1195065887      -13.1936278762        1.2729688699  CLST         409          1.0000000000
      1226       409  TIP3  H1           -2.5668938753      -13.6646778080        2.0387852317  CLST         409          1.0000000000
      1227       409  TIP3  H2           -1.7508423373      -12.6431917737        2.0815585308  CLST         409          1.0000000000
      1228       410  TIP3  OH2          12.4225430189       -2.5561870299       10.3955063800  CLST         410          1.0000000000
      1229       410  TIP3  H1           12.4429474031       -2.2096244770        9.4533434384  CLST         410          1.0000000000
      1230       410  TIP3  H2           12.7632862075       -3.3683914847        9.9407959213  CLST         410          1.0000000000
      1231       411  TIP3  OH2           8.4795087519      -13.5456581247       -2.4228879240  CLST         411          1.0000000000
      1232       411  TIP3  H1            8.6286750678      -13.6611026788       -1.4922158565  CLST         411          1.0000000000
      1233       411  TIP3  H2            7.8740871509      -14.2283806241       -2.5685815981  CLST         411          1.0000000000
      1234       412  TIP3  OH2          13.3025737352       -4.5855394904       -7.3051542871  CLST         412          1.0000000000
      1235       412  TIP3  H1           12.6085729723       -4.4468314896       -7.9760530700  CLST         412          1.0000000000
      1236       412  TIP3  H2           12.7497571301       -4.1119292412       -6.7491100784  CLST         412          1.0000000000
      1237       413  TIP3  OH2           7.3721217438        8.2585907090       -5.2747123821  CLST         413          1.0000000000
      1238       413  TIP3  H1            7.6338548017        8.1085590882       -4.3430852373  CLST         413          1.0000000000
      1239       413  TIP3  H2            8.3218548604        8.3599826582       -5.5509636855  CLST         413          1.0000000000
      1240       414  TIP3  OH2          -8.9710771813       -5.2818119643      -11.8735635334  CLST         414          1.0000000000
      1241       414  TIP3  H1           -8.6872050184       -4.1919958327      -12.2544193821  CLST         414          1.0000000000
      1242       414  TIP3  H2           -9.0302054846       -4.3465493799      -11.3017884611  CLST         414          1.0000000000
      1243       415  TIP3  OH2         -14.4046369403        0.6462075364        5.3295302211  CLST         415          1.0000000000
      1244       415  TIP3  H1          -14.3117648858        1.4424202221        5.9160802895  CLST         415          1.0000000000
      1245       415  TIP3  H2          -13.7460089919        0.2694453620        5.9107163286  CLST         415          1.0000000000
      1246       416  TIP3  OH2          11.5570861827       12.4425895498       -2.1193357713  CLST         416          1.0000000000
      1247       416  TIP3  H1           12.5291730939       12.4778267571       -2.6571902545  CLST         416          1.0000000000
      1248       416  TIP3  H2           11.6614494915       12.9450821727       -2.8164026483  CLST         416          1.0000000000
      1249       417  TIP3  OH2          10.7216418783      -12.3390053043       -4.9898001533  CLST         417          1.0000000000
      1250       417  TIP3  H1           10.0561404948      -13.1856359327       -5.1542051882  CLST         417          1.0000000000
      1251       417  TIP3  H2            9.7623149575      -12.3851546949       -5.5885754467  CLST         417          1.0000000000
      1252       418  TIP3  OH2          -1.7773471494        5.6148843672        0.8575236411  CLST         418          1.0000000000
      1253       418  TIP3  H1           -2.4158131307        5.4911266242        0.1707542421  CLST         418          1.0000000000
      1254       418  TIP3  H2           -2.4761880731        5.0885133736        1.3394750537  CLST         418          1.0000000000
      1255       419  TIP3  OH2          -8.1956350876        9.3952999760        7.9149806987  CLST         419          1.0000000000
      1256       419  TIP3  H1           -8.8214798676       10.3816056563        7.6224578161  CLST         419          1.0000000000
      1257       419  TIP3  H2           -7.9381585472       10.2095370076        8.3255989013  CLST         419          1.0000000000
      1258       420  TIP3  OH2           3.3767847093        9.0503765803      -14.1377224766  CLST         420          1.0000000000
      1259       420  TIP3  H1            4.1582929449        8.7435021186      -13.6151079460  CLST         420          1.0000000000
      1260       420  TIP3  H2            3.4360611646        8.1486894306      -14.5587407369  CLST         420          1.0000000000
      1261       421  TIP3  OH2          -3.8494593751        7.1417319668       -3.6884958366  CLST         421          1.0000000000
      1262       421  TIP3  H1           -4.6255359523        6.6982763831       -4.1578858932  CLST         421          1.0000000000
      1263       421  TIP3  H2           -4.0245248889        6.4309357932       -3.0349652775  CLST         421          1.0000000000
      1264       422  TIP3  OH2           3.2463980403      -10.7329211333       -2.5575405174  CLST         422          1.0000000000
      1265       422  TIP3  H1            2.4479051759      -10.9984469023       -1.9744377554  CLST         422          1.0000000000
      1266       422  TIP3  H2            3.5304699508      -10.5318811773       -1.6094705782  CLST         422          1.0000000000
      1267       423  TIP3  OH2          -5.4560965674        5.0830730380        1.7487455643  CLST         423          1.0000000000
      1268       423  TIP3  H1           -4.8262412667        4.3518723037        1.6734623665  CLST         423          1.0000000000
      1269       423  TIP3  H2           -4.8067129567        5.1283453304        2.5829379275  CLST         423          1.0000000000
      1270       424  TIP3  OH2          -9.6113850159        8.5036328883        4.7477258974  CLST         424          1.0000000000
      1271       424  TIP3  H1           -9.8394181183        8.6374235203        3.9695564290  CLST         424          1.0000000000
      1272       424  TIP3  H2          -10.1946356169        7.8534717997        4.2776961621  CLST         424          1.0000000000
      1273       425  TIP3  OH2          -9.7364014388        2.2891472687       -9.3876630558  CLST         425          1.0000000000
      1274       425  TIP3  H1          -10.0822382449        1.6137773388       -8.8618357156  CLST         425          1.0000000000
      1275       425  TIP3  H2          -10.5192147232        2.7888779493       -8.9779765865  CLST         425          1.0000000000
      1276       426  TIP3  OH2          -1.1782842799       -9.1534323242       -4.0624600799  CLST         426          1.0000000000
      1277       426  TIP3  H1           -0.2235986366       -9.6683548400       -4.3217524186  CLST         426          1.0000000000
      1278       426  TIP3  H2           -1.0344772827       -9.5762489733       -4.7493052812  CLST         426          1.0000000000
      1279       427  TIP3  OH2          -9.8391334800        2.1274902565        5.2062141321  CLST         427          1.0000000000
      1280       427  TIP3  H1           -9.6320695149        3.0971208031        5.3111661869  CLST         427          1.0000000000
      1281       427  TIP3  H2          -10.6143747294        2.1007762159        5.8217929047  CLST         427          1.0000000000
      1282       428  TIP3  OH2          -6.6039193647       13.5632648115        6.7645296659  CLST         428          1.0000000000
      1283       428  TIP3  H1           -6.1918253074       14.3049250924        6.4414314469  CLST         428          1.0000000000
      1284       428  TIP3  H2           -6.3233765143       12.8535226063        6.1274489757  CLST         428          1.0000000000
      1285       429  TIP3  OH2           0.0874031447      -11.7517935756      -10.8136660701  CLST         429          1.0000000000
      1286       429  TIP3  H1           -0.7967286911      -12.2166995819      -11.0434458118  CLST         429          1.0000000000
      1287       429  TIP3  H2           -0.2117252876      -11.3229183749       -9.9998026287  CLST         429          1.0000000000
      1288       430  TIP3  OH2           0.7083929969       10.0151229286        9.9671040946  CLST         430          1.0000000000
      1289       430  TIP3  H1            0.1013245257       10.6105249362       10.4346939937  CLST         430          1.0000000000
      1290       430  TIP3  H2            0.9325483531        9.8067291456       10.9332766882  CLST         430          1.0000000000
      1291       431  TIP3  OH2          -5.9704232114       -3.4481711383       -4.1492705207  CLST         431          1.0000000000
      1292       431  TIP3  H1           -5.3769741452       -3.5179001148       -4.8762489840  CLST         431          1.0000000000
      1293       431  TIP3  H2           -6.6182456238       -3.8659313340       -4.7594451879  CLST         431          1.0000000000
      1294       432  TIP3  OH2          -5.5838260474        3.5380080593       -3.7252514574  CLST         432          1.0000000000
      1295       432  TIP3  H1           -6.2900345373        2.9808840206       -3.6120317703  CLST         432          1.0000000000
      1296       432  TIP3  H2           -6.1895814393        4.2226581291       -3.4555511788  CLST         432          1.0000000000
      1297       433  TIP3  OH2          -8.8220412196        3.0214291069       10.0878610582  CLST         433          1.0000000000
      1298       433  TIP3  H1           -8.0767706867        3.5971927162        9.9977373029  CLST         433          1.0000000000
      1299       433  TIP3  H2           -9.0704267220        3.4559721599       10.9298628163  CLST         433          1.0000000000
      1300       434  TIP3  OH2           0.8280570032       -4.0895142627        9.6794233435  CLST         434          1.0000000000
      1301       434  TIP3  H1            0.0629621709       -3.8360752166       10.2726422648  CLST         434          1.0000000000
      1302       434  TIP3  H2            1.2983989194       -3.2073154415        9.7823364744  CLST         434          1.0000000000
      1303       435  TIP3  OH2           7.2966700337       -8.3960972543        6.3662180666  CLST         435          1.0000000000
      1304       435  TIP3  H1            7.6424335045       -8.3846626586        5.4689875150  CLST         435          1.0000000000
      1305       435  TIP3  H2            6.8280761149       -7.5943878460        5.9129792985  CLST         435          1.0000000000
      1306       436  TIP3  OH2          -7.0022108127       14.0723591446       -1.9967288717  CLST         436          1.0000000000
      1307       436  TIP3  H1           -6.6124137550       14.9371206142       -2.0174503279  CLST         436          1.0000000000
      1308       436  TIP3  H2           -7.4516811668       14.2767143758       -1.2037465710  CLST         436          1.0000000000
      1309       437  TIP3  OH2          -0.5994362758      -13.3775908375        5.3882237371  CLST         437          1.0000000000
      1310       437  TIP3  H1           -1.3421687708      -12.9710750654        4.9725197672  CLST         437          1.0000000000
      1311       437  TIP3  H2           -0.0848757902      -12.6606686824        5.6561858287  CLST         437          1.0000000000
      1312       438  TIP3  OH2         -12.3522008306       -0.9244991844       -2.9806129451  CLST         438          1.0000000000
      1313       438  TIP3  H1          -12.2958301784       -1.5228261165       -2.2172923154  CLST         438          1.0000000000
      1314       438  TIP3  H2          -12.7841024132       -0.2509650882       -2.4434744486  CLST         438          1.0000000000
      1315       439  TIP3  OH2          -3.8745670973       -3.4722316979        3.3839265561  CLST         439          1.0000000000
      1316       439  TIP3  H1           -4.4392326746       -3.4889318103        4.1925644625  CLST         439          1.0000000000
      1317       439  TIP3  H2           -4.7236930024       -3.9593551402        3.0684461256  CLST         439          1.0000000000
      1318       440  TIP3  OH2         -10.0396078174      -11.3890889988       12.3888216961  CLST         440          1.0000000000
      1319       440  TIP3  H1           -9.4158099253      -10.9855055713       11.7819280147  CLST         440          1.0000000000
      1320       440  TIP3  H2          -10.4047908030      -11.6952268915       11.5185595396  CLST         440          1.0000000000
      1321       441  TIP3  OH2         -14.1710183690        3.9150544425        7.6573802957  CLST         441          1.0000000000
      1322       441  TIP3  H1          -14.1148499314        4.8887078715        7.8029938732  CLST         441          1.0000000000
      1323       441  TIP3  H2          -14.6939978047        3.8230558960        6.7889812077  CLST         441          1.0000000000
      1324       442  TIP3  OH2           9.6804933651        0.7923942673      -12.2083010787  CLST         442          1.0000000000
      1325       442  TIP3  H1            9.6682985818       -0.1588483718      -12.0793883264  CLST         442          1.0000000000
      1326       442  TIP3  H2           10.3552076157        0.6599774125      -12.8472829094  CLST         442          1.0000000000
      1327       443  TIP3  OH2           7.9428879949       -8.3433959157        3.7730186911  CLST         443          1.0000000000
      1328       443  TIP3  H1            8.7299443738       -7.8306801361        3.4266377095  CLST         443          1.0000000000
      1329       443  TIP3  H2            7.5506322370       -7.7592164739        3.0440150915  CLST         443          1.0000000000
      1330       444  TIP3  OH2          12.9578008980        8.7242074447       -0.4494239917  CLST         444          1.0000000000
      1331       444  TIP3  H1           13.3526860165        9.4480572767       -0.0051628770  CLST         444          1.0000000000
      1332       444  TIP3  H2           13.5187899437        8.1100398593        0.0152611950  CLST         444          1.0000000000
      1333       445  TIP3  OH2          -8.6915388849       -9.3864978045       14.2555430881  CLST         445          1.0000000000
      1334       445  TIP3  H1           -7.8933955692       -9.1868616603       13.6770856297  CLST         445          1.0000000000
      1335       445  TIP3  H2           -8.6941301727       -8.4377470942       14.4841746543  CLST         445          1.0000000000
      1336       446  TIP3  OH2          12.7911488571       11.1100143722        0.1657609174  CLST         446          1.0000000000
      1337       446  TIP3  H1           12.4130750914       11.7259012936        0.7972786772  CLST         446          1.0000000000
      1338       446  TIP3  H2           12.1712187601       11.6112552512       -0.4090491199  CLST         446          1.0000000000
      1339       447  TIP3  OH2          -3.4713142586       13.4503076297        5.0556478920  CLST         447          1.0000000000
      1340       447  TIP3  H1           -4.0661708677       14.1829343052        5.3043000023  CLST         447          1.0000000000
      1341       447  TIP3  H2           -4.2643869727       12.8905538549        4.8344566295  CLST         447          1.0000000000
      1342       448  TIP3  OH2         -10.7354797378        9.0576837774      -12.6260794239  CLST         448          1.0000000000
      1343       448  TIP3  H1          -10.1052070471        9.4530008393      -12.0362668758  CLST         448          1.0000000000
      1344       448  TIP3  H2           -9.9888256329        8.4024507749      -12.7607154235  CLST         448          1.0000000000
      1345       449  TIP3  OH2           5.1055312886       -7.8698637775       -5.7809566095  CLST         449          1.0000000000
      1346       449  TIP3  H1            5.1896570741       -8.6514059923       -5.2375948368  CLST         449          1.0000000000
      1347       449  TIP3  H2            4.7577371060       -7.4737476801       -5.0240677997  CLST         449          1.0000000000
      1348       450  TIP3  OH2           4.8259451871       10.2314131308       11.4783934941  CLST         450          1.0000000000
      1349       450  TIP3  H1            5.6642330552        9.8293374068       11.7673300804  CLST         450          1.0000000000
      1350       450  TIP3  H2            4.7624031823        9.7086301522       10.6347635193  CLST         450          1.0000000000
      1351       451  TIP3  OH2         -12.3227886727       11.0543409559      -12.5106455686  CLST         451          1.0000000000
      1352       451  TIP3  H1          -12.1208430376        9.8964318599      -12.7293301846  CLST         451          1.0000000000
      1353       451  TIP3  H2          -11.4212088299       10.8679335890      -12.5602864233  CLST         451          1.0000000000
      1354       452  TIP3  OH2          -9.9488040197       14.4586905899        1.4872262352  CLST         452          1.0000000000
      1355       452  TIP3  H1          -10.8046500877       14.1550950870        1.8380931282  CLST         452          1.0000000000
      1356       452  TIP3  H2          -10.3683756624       14.1747887095        0.6514357890  CLST         452          1.0000000000
      1357       453  TIP3  OH2          -3.1755511624       -8.3464661799      -13.3200839715  CLST         453          1.0000000000
      1358       453  TIP3  H1           -4.1304790141       -8.5473777270      -13.2108096568  CLST         453          1.0000000000
      1359       453  TIP3  H2           -3.3261077431       -8.9466023041      -14.0535973657  CLST         453          1.0000000000
      1360       454  TIP3  OH2          13.3706821616      -13.1325683922       11.1303402484  CLST         454          1.0000000000
      1361       454  TIP3  H1           13.8596865941      -13.3508347866       11.9220817347  CLST         454          1.0000000000
      1362       454  TIP3  H2           13.5694932188      -12.2802726996       11.4615596038  CLST         454          1.0000000000
      1363       455  TIP3  OH2         -13.5504594189       -9.8603220350       -4.1483344403  CLST         455          1.0000000000
      1364       455  TIP3  H1          -13.6008863194       -8.8902332296       -4.2940484588  CLST         455          1.0000000000
      1365       455  TIP3  H2          -12.6178118685       -9.5331191988       -3.8313180869  CLST         455          1.0000000000
      1366       456  TIP3  OH2          -7.7744771416        6.9814067303        6.5528386170  CLST         456          1.0000000000
      1367       456  TIP3  H1           -7.9262721827        7.7708718610        7.2183050457  CLST         456          1.0000000000
      1368       456  TIP3  H2           -8.2436643453        7.6308798845        5.9481121015  CLST         456          1.0000000000
      1369       457  TIP3  OH2          -3.8533737736      -13.0803994805        8.4254327715  CLST         457          1.0000000000
      1370       457  TIP3  H1           -3.8609220897      -13.4173895400        9.3244241185  CLST         457          1.0000000000
      1371       457  TIP3  H2           -2.9166006448      -13.2636098032        8.4038396694  CLST         457          1.0000000000
      1372       458  TIP3  OH2          -2.5548923379       12.1376148426      -11.2778805875  CLST         458          1.0000000000
      1373       458  TIP3  H1           -3.4876408363       12.2477144198      -11.5013538185  CLST         458          1.0000000000
      1374       458  TIP3  H2           -2.5839683956       11.3464771942      -11.7602267724  CLST         458          1.0000000000
      1375       459  TIP3  OH2         -13.4533015237        7.2038567928       -4.0082509851  CLST         459          1.0000000000
      1376       459  TIP3  H1          -13.7752254192        7.9313265296       -3.4197687308  CLST         459          1.0000000000
      1377       459  TIP3  H2          -13.0778859599        7.8535215724       -4.6428803273  CLST         459          1.0000000000
      1378       460  TIP3  OH2           7.3592404644        9.7691414453      -13.9630691390  CLST         460          1.0000000000
      1379       460  TIP3  H1            6.8734269860        9.6269841672      -13.0973829076  CLST         460          1.0000000000
      1380       460  TIP3  H2            6.6991931464       10.4712696153      -13.9890846499  CLST         460          1.0000000000
      1381       461  TIP3  OH2           0.2702596178        7.9700621943      -13.0741152743  CLST         461          1.0000000000
      1382       461  TIP3  H1           -0.3572193202        7.3192512969      -12.7223370824  CLST         461          1.0000000000
      1383       461  TIP3  H2            0.5045219514        8.2118538289      -12.2132601878  CLST         461          1.0000000000
      1384       462  TIP3  OH2           4.4574795080        7.9063867530      -10.4544025541  CLST         462          1.0000000000
      1385       462  TIP3  H1            3.7719866007        7.1955997049      -10.5347774636  CLST         462          1.0000000000
      1386       462  TIP3  H2            4.1894834189        7.8296900970       -9.4690893963  CLST         462          1.0000000000
      1387       463  TIP3  OH2          -1.0203007158      -11.4543901381       -8.3356350342  CLST         463          1.0000000000
      1388       463  TIP3  H1           -2.1792881175      -11.3422288038       -8.5542875910  CLST         463          1.0000000000
      1389       463  TIP3  H2           -1.4998150246      -12.0234623361       -7.7694438477  CLST         463          1.0000000000
      1390       464  TIP3  OH2          -2.4530691989        2.3901580202       14.1496547282  CLST         464          1.0000000000
      1391       464  TIP3  H1           -2.8659602933        2.0919674512       13.2459956995  CLST         464          1.0000000000
      1392       464  TIP3  H2           -2.6194362689        3.2379263375       13.7038857687  CLST         464          1.0000000000
      1393       465  TIP3  OH2         -14.3545594470        5.9626501610        8.3345248788  CLST         465          1.0000000000
      1394       465  TIP3  H1          -14.4877581942        5.7089058302        9.2637764922  CLST         465          1.0000000000
      1395       465  TIP3  H2          -14.6768327155        6.8413432999        8.5099777502  CLST         465          1.0000000000
      1396       466  TIP3  OH2          -4.1488118371      -13.5749173562        3.1568257530  CLST         466          1.0000000000
      1397       466  TIP3  H1           -4.5947153659      -14.3004363170        3.5335745088  CLST         466          1.0000000000
      1398       466  TIP3  H2           -4.9996051842      -13.3327291429        2.7075418537  CLST         466          1.0000000000
      1399       467  TIP3  OH2           4.2270024752       14.5688473578        8.1378020505  CLST         467          1.0000000000
      1400       467  TIP3  H1            5.0660882297       14.3767403889        8.6440814862  CLST         467          1.0000000000
      1401       467  TIP3  H2            3.8779292872       14.8644459945        9.0101051889  CLST         467          1.0000000000
      1402       468  TIP3  OH2          -8.6354959075       -0.9088524574        1.7814573777  CLST         468          1.0000000000
      1403       468  TIP3  H1           -8.7094964616       -1.4033837814        2.6234852836  CLST         468          1.0000000000
      1404       468  TIP3  H2           -9.4473752165       -1.3884434703        1.4888259301  CLST         468          1.0000000000
      1405       469  TIP3  OH2           7.3022180793        0.7751901225       14.5687615615  CLST         469          1.0000000000
      1406       469  TIP3  H1            6.5662759403        1.2063497860       14.1547635937  CLST         469          1.0000000000
      1407       469  TIP3  H2            7.8029784122        1.4707345853       14.2601740493  CLST         469          1.0000000000
      1408       470  TIP3  OH2           1.2476310090       11.5158681242       -8.7097078518  CLST         470          1.0000000000
      1409       470  TIP3  H1            1.7968449550       12.3743402881       -8.5844526886  CLST         470          1.0000000000
      1410       470  TIP3  H2            1.8876068704       11.0488522023       -8.2787599960  CLST         470          1.0000000000
      1411       471  TIP3  OH2           5.3844793010        5.4819811263       -2.2265098533  CLST         471          1.0000000000
      1412       471  TIP3  H1            4.3382435614        5.9055971078       -2.5052485702  CLST         471          1.0000000000
      1413       471  TIP3  H2            4.8539192360        5.7279221613       -1.6771437522  CLST         471          1.0000000000
      1414       472  TIP3  OH2           5.2616672734      -12.2566177101       -6.8451399069  CLST         472          1.0000000000
      1415       472  TIP3  H1            4.6892187286      -13.0338789204       -7.4474022876  CLST         472          1.0000000000
      1416       472  TIP3  H2            5.4976373419      -13.1185956467       -6.6573699378  CLST         472          1.0000000000
      1417       473  TIP3  OH2          -4.0349842565        2.8593362512        1.3437971384  CLST         473          1.0000000000
      1418       473  TIP3  H1           -3.2954560033        2.2863240054        0.9379081219  CLST         473          1.0000000000
      1419       473  TIP3  H2           -4.5932560161        2.3074294704        0.7212097319  CLST         473          1.0000000000
      1420       474  TIP3  OH2           8.4469999363        4.5799544497        7.9740376939  CLST         474          1.0000000000
      1421       474  TIP3  H1            8.0143095588        4.1326810501        7.0299121454  CLST         474          1.0000000000
      1422       474  TIP3  H2            8.9170439162        4.4817385356        7.3139856027  CLST         474          1.0000000000
      1423       475  TIP3  OH2           6.1091116390       -3.8811426078       -7.8223062374  CLST         475          1.0000000000
      1424       475  TIP3  H1            5.6411205092       -3.2161286096       -8.4533147970  CLST         475          1.0000000000
      1425       475  TIP3  H2            6.6946902892       -3.7970388645       -8.5972558655  CLST         475          1.0000000000
      1426       476  TIP3  OH2           3.4933997771       10.4064894860       -7.9147993926  CLST         476          1.0000000000
      1427       476  TIP3  H1            3.7405522598        9.4722836752       -7.6499418445  CLST         476          1.0000000000
      1428       476  TIP3  H2            3.4727831368       10.3596928004       -6.9357757161  CLST         476          1.0000000000
      1429       477  TIP3  OH2          -7.3270726788       -3.4010762521       -9.6161841867  CLST         477          1.0000000000
      1430       477  TIP3  H1           -6.5759953503       -2.8499354889       -9.9030601516  CLST         477          1.0000000000
      1431       477  TIP3  H2           -6.7745015398       -4.0507452834       -9.2074066065  CLST         477          1.0000000000
      1432       478  TIP3  OH2           0.9110251931       -4.8926162501      -12.3175159901  CLST         478          1.0000000000
      1433       478  TIP3  H1            1.3981816930       -5.7300154816      -12.4726420543  CLST         478          1.0000000000
      1434       478  TIP3  H2            1.5865746196       -4.8140786207      -11.6050388170  CLST         478          1.0000000000
      1435       479  TIP3  OH2           0.2636797668       -1.5402245458       -7.4905616908  CLST         479          1.0000000000
      1436       479  TIP3  H1            0.7275086466       -1.4030568533       -6.5800240789  CLST         479          1.0000000000
      1437       479  TIP3  H2            1.2008818796       -1.5391219018       -7.8218974465  CLST         479          1.0000000000
      1438       480  TIP3  OH2           5.6176540029       -0.7044150379        9.4072115938  CLST         480          1.0000000000
      1439       480  TIP3  H1            6.1683297017       -1.2671789958        8.8380727939  CLST         480          1.0000000000
      1440       480  TIP3  H2            6.2672673389       -0.0397602016        9.0640052509  CLST         480          1.0000000000
      1441       481  TIP3  OH2          -6.7118455785        2.2316544480       -5.8211906043  CLST         481          1.0000000000
      1442       481  TIP3  H1           -6.9510305413        3.1205540475       -6.0891547897  CLST         481          1.0000000000
      1443       481  TIP3  H2           -5.8586712499        2.6629198181       -5.5141869046  CLST         481          1.0000000000
      1444       482  TIP3  OH2           3.8386404133       -8.0283283880        4.1316721389  CLST         482          1.0000000000
      1445       482  TIP3  H1            4.2928595302       -7.5598917218        4.7992207751  CLST         482          1.0000000000
      1446       482  TIP3  H2            3.3177576144       -7.2657038796        4.0717816438  CLST         482          1.0000000000
      1447       483  TIP3  OH2         -14.9391371020        0.0711980257       -8.2926874248  CLST         483          1.0000000000
      1448       483  TIP3  H1          -14.6236860964       -0.7793254995       -8.3137324104  CLST         483          1.0000000000
      1449       483  TIP3  H2          -14.1602705038        0.4392077884       -7.9879302753  CLST         483          1.0000000000
      1450       484  TIP3  OH2          14.8585474219       -2.3276941370       -8.9080989164  CLST         484          1.0000000000
      1451       484  TIP3  H1           14.3418821130       -2.9519049843       -8.4543010363  CLST         484          1.0000000000
      1452       484  TIP3  H2           14.1854579473       -1.7992087320       -9.3403085962  CLST         484          1.0000000000
      1453       485  TIP3  OH2          -3.5689699349        5.3839246481        3.6903063309  CLST         485          1.0000000000
      1454       485  TIP3  H1           -2.8729615212        5.2326154067        4.3596234556  CLST         485          1.0000000000
      1455       485  TIP3  H2           -4.0931156248        5.6690757796        4.4749584430  CLST         485          1.0000000000
      1456       486  TIP3  OH2          11.2234047791       12.7725799608       -8.8819170065  CLST         486          1.0000000000
      1457       486  TIP3  H1           11.7590474393       12.1218873550       -8.3615775594  CLST         486          1.0000000000
      1458       486  TIP3  H2           11.7651819706       12.6010588657       -9.6742449804  CLST         486          1.0000000000
      1459       487  TIP3  OH2           2.3788686216       -5.7693840001        3.5447131913  CLST         487          1.0000000000
      1460       487  TIP3  H1            2.5944757087       -4.9946692043        4.0386331077  CLST         487          1.0000000000
      1461       487  TIP3  H2            1.8796231815       -5.2404136913        2.9794478560  CLST         487          1.0000000000
      1462       488  TIP3  OH2         -11.6285568139       -0.5032764499       11.3454003589  CLST         488          1.0000000000
      1463       488  TIP3  H1          -12.0522099106        0.3299422811       11.0229385267  CLST         488          1.0000000000
      1464       488  TIP3  H2          -11.1354753962       -0.3004311131       10.4485872155  CLST         488          1.0000000000
      1465       489  TIP3  OH2          -8.3172464325        8.0434635689       -4.6202147210  CLST         489          1.0000000000
      1466       489  TIP3  H1           -8.5403328751        8.1821026310       -3.7054395173  CLST         489          1.0000000000
      1467       489  TIP3  H2           -7.5523093371        7.6003813911       -4.4506186740  CLST         489          1.0000000000
      1468       490  TIP3  OH2         -11.0394762402       11.2773662036        5.1542586916  CLST         490          1.0000000000
      1469       490  TIP3  H1          -10.6708336546       10.5138148499        5.0587014940  CLST         490          1.0000000000
      1470       490  TIP3  H2          -10.3530063139       11.3599045040        4.6857744282  CLST         490          1.0000000000
      1471       491  TIP3  OH2          -0.9806465024       -9.9596972492       10.8866451411  CLST         491          1.0000000000
      1472       491  TIP3  H1           -0.2201834085       -9.9745055236       10.3404360223  CLST         491          1.0000000000
      1473       491  TIP3  H2           -0.6180941619       -9.1858976652       11.3120539856  CLST         491          1.0000000000
      1474       492  TIP3  OH2          -1.9848695851       10.2486862311        2.8626999265  CLST         492          1.0000000000
      1475       492  TIP3  H1           -1.2083331919       10.7669863434        2.6868627359  CLST         492          1.0000000000
      1476       492  TIP3  H2           -2.5030421545       10.8048156628        2.2355038081  CLST         492          1.0000000000
      1477       493  TIP3  OH2          -6.4502198656       10.4446227455       -2.7528061145  CLST         493          1.0000000000
      1478       493  TIP3  H1           -6.7708868954       10.7788930366       -3.6193073256  CLST         493          1.0000000000
      1479       493  TIP3  H2           -7.3782860139       10.3802532188       -2.5241777005  CLST         493          1.0000000000
      1480       494  TIP3  OH2         -14.1354021099       10.9510790188       12.4722052346  CLST         494          1.0000000000
      1481       494  TIP3  H1          -14.9391371020       11.1288192937       11.9932169789  CLST         494          1.0000000000
      1482       494  TIP3  H2          -13.6210921208       11.6211583816       11.9512226668  CLST         494          1.0000000000
      1483       495  TIP3  OH2           3.3831719697      -12.6980455250       13.6636729770  CLST         495          1.0000000000
      1484       495  TIP3  H1            2.8258517655      -12.7121662180       14.4135503283  CLST         495          1.0000000000
      1485       495  TIP3  H2            3.4517410756      -11.7684602129       13.4988128222  CLST         495          1.0000000000
      1486       496  TIP3  OH2         -14.9391371020        6.4156480124        0.3130779292  CLST         496          1.0000000000
      1487       496  TIP3  H1          -14.3558040094        6.4003043293        1.0526428282  CLST         496          1.0000000000
      1488       496  TIP3  H2          -14.7665861982        5.4849657467        0.1551056911  CLST         496          1.0000000000
      1489       497  TIP3  OH2         -13.5975818063       -8.4315356498        3.2682327146  CLST         497          1.0000000000
      1490       497  TIP3  H1          -14.3067866637       -8.0492503609        3.7988022977  CLST         497          1.0000000000
      1491       497  TIP3  H2          -13.6904340747       -9.3364634496        3.6234963606  CLST         497          1.0000000000
      1492       498  TIP3  OH2           4.3098120131       14.2413300652      -10.5868774098  CLST         498          1.0000000000
      1493       498  TIP3  H1            4.4730141140       13.8268103080      -11.6250182244  CLST         498          1.0000000000
      1494       498  TIP3  H2            5.0722430681       13.5989305607      -10.8685828351  CLST         498          1.0000000000
      1495       499  TIP3  OH2           1.4152954098       11.1694377902       -3.0938180674  CLST         499          1.0000000000
      1496       499  TIP3  H1            0.4842967656       11.6435793665       -3.0117185859  CLST         499          1.0000000000
      1497       499  TIP3  H2            1.6952862850       11.9782189667       -2.6646134813  CLST         499          1.0000000000
      1498       500  TIP3  OH2          -5.8236106983       -2.5017345843        4.3891162686  CLST         500          1.0000000000
      1499       500  TIP3  H1           -6.6969279021       -2.0679191895        4.2246700283  CLST         500          1.0000000000
      1500       500  TIP3  H2           -5.7165295962       -1.7202265430        3.4751228139  CLST         500          1.0000000000
      1501       501  TIP3  OH2         -12.3623663766      -13.5728219038       -6.0332092400  CLST         501          1.0000000000
      1502       501  TIP3  H1          -13.0893146201      -13.0915826414       -6.2805202135  CLST         501          1.0000000000
      1503       501  TIP3  H2          -11.6982709788      -12.9989764546       -6.4855455253  CLST         501          1.0000000000
      1504       502  TIP3  OH2          -1.3959978961       -3.7556048567      -11.8019873450  CLST         502          1.0000000000
      1505       502  TIP3  H1           -1.0107345334       -2.9443726934      -12.1777950823  CLST         502          1.0000000000
      1506       502  TIP3  H2           -0.4774421675       -4.0299243716      -11.9656076883  CLST         502          1.0000000000
      1507       503  TIP3  OH2          -0.3939505519       -5.1126445161        1.0990672090  CLST         503          1.0000000000
      1508       503  TIP3  H1            0.2840023149       -5.5867656638        0.6284163003  CLST         503          1.0000000000
      1509       503  TIP3  H2           -1.1030368989       -5.7170601543        0.8333250941  CLST         503          1.0000000000
      1510       504  TIP3  OH2          -4.0511766190       -3.6178101774       12.6741473081  CLST         504          1.0000000000
      1511       504  TIP3  H1           -4.2033693300       -4.4667739423       13.1672858679  CLST         504          1.0000000000
      1512       504  TIP3  H2           -4.0250189418       -3.1659047775       13.5393851344  CLST         504          1.0000000000
      1513       505  TIP3  OH2           5.6621953411       12.2817455588       -9.3111689544  CLST         505          1.0000000000
      1514       505  TIP3  H1            5.8142938644       11.7127929979       -8.5655149152  CLST         505          1.0000000000
      1515       505  TIP3  H2            6.6569938824       12.5688234439       -9.2617608157  CLST         505          1.0000000000
      1516       506  TIP3  OH2          -3.9758481130        3.5664231402       10.6657921063  CLST         506          1.0000000000
      1517       506  TIP3  H1           -4.7919954793        3.2725931151       10.2416310278  CLST         506          1.0000000000
      1518       506  TIP3  H2           -3.7667517914        2.9407269528       11.3584924056  CLST         506          1.0000000000
      1519       507  TIP3  OH2          -2.0776981185        6.8901450617      -12.6047782297  CLST         507          1.0000000000
      1520       507  TIP3  H1           -2.3954126526        6.1547406762      -12.1149140389  CLST         507          1.0000000000
      1521       507  TIP3  H2           -2.9844362037        6.9780058282      -12.8197480711  CLST         507          1.0000000000
      1522       508  TIP3  OH2         -11.1997646154        5.0809864404      -11.5452067890  CLST         508          1.0000000000
      1523       508  TIP3  H1          -12.0416929829        4.4884884346      -11.3249826775  CLST         508          1.0000000000
      1524       508  TIP3  H2          -11.1239118402        4.2848405741      -11.7244253072  CLST         508          1.0000000000
      1525       509  TIP3  OH2           5.0041649183       -0.1007683125      -10.9072069814  CLST         509          1.0000000000
      1526       509  TIP3  H1            5.2575427915        0.4594961762      -10.1817010796  CLST         509          1.0000000000
      1527       509  TIP3  H2            5.7638205332       -0.1116942311      -11.4944209066  CLST         509          1.0000000000
      1528       510  TIP3  OH2          -4.3451666569        0.0972165903       -3.5259947366  CLST         510          1.0000000000
      1529       510  TIP3  H1           -4.7083997752       -0.5663329768       -4.3767761023  CLST         510          1.0000000000
      1530       510  TIP3  H2           -4.1373785146        0.1159515440       -4.3381231878  CLST         510          1.0000000000
      1531       511  TIP3  OH2         -10.8731652106        1.8926797995       -1.0741891122  CLST         511          1.0000000000
      1532       511  TIP3  H1          -11.4135851479        2.3224467335       -0.4011086838  CLST         511          1.0000000000
      1533       511  TIP3  H2          -11.6001613625        1.2550594178       -0.9883207261  CLST         511          1.0000000000
      1534       512  TIP3  OH2          -3.2920833636       -8.3046910900       -8.7976970633  CLST         512          1.0000000000
      1535       512  TIP3  H1           -2.6284309669       -8.5954414706       -9.3748728193  CLST         512          1.0000000000
      1536       512  TIP3  H2           -3.1008568730       -7.3822921204       -9.1664531912  CLST         512          1.0000000000
      1537       513  TIP3  OH2           9.5915356273       13.9428231369       11.6304216530  CLST         513          1.0000000000
      1538       513  TIP3  H1            9.2519997900       14.6686726477       11.0732132227  CLST         513          1.0000000000
      1539       513  TIP3  H2            9.1751911529       13.4117930903       10.9526721778  CLST         513          1.0000000000
      1540       514  TIP3  OH2          -4.6612384133        7.4573047173      -12.8956294573  CLST         514          1.0000000000
      1541       514  TIP3  H1           -4.9837690086        7.6334733045      -13.7355290401  CLST         514          1.0000000000
      1542       514  TIP3  H2           -5.4345236428        7.8827357842      -12.5900940482  CLST         514          1.0000000000
      1543       515  TIP3  OH2           5.8357709356        6.3681327482       -6.0809672826  CLST         515          1.0000000000
      1544       515  TIP3  H1            5.8975127422        5.7823013120       -5.2730018928  CLST         515          1.0000000000
      1545       515  TIP3  H2            6.4294117955        6.8839419668       -5.5281898403  CLST         515          1.0000000000
      1546       516  TIP3  OH2           9.5295896480        0.1330929277       -8.0445440472  CLST         516          1.0000000000
      1547       516  TIP3  H1           10.4948366075        0.0771903489       -7.8398186870  CLST         516          1.0000000000
      1548       516  TIP3  H2            9.4880549508        1.0968895222       -7.9144912767  CLST         516          1.0000000000
      1549       517  TIP3  OH2          13.9289656495       -7.1907087992       -9.1292228238  CLST         517          1.0000000000
      1550       517  TIP3  H1           14.6395728025       -6.6565270624       -8.7700906777  CLST         517          1.0000000000
      1551       517  TIP3  H2           14.2111145537       -7.8973175362       -8.5208712754  CLST         517          1.0000000000
      1552       518  TIP3  OH2          -0.7690995878       11.9906161141       -6.1009056509  CLST         518          1.0000000000
      1553       518  TIP3  H1            0.3759512603       12.4033334730       -6.1846919691  CLST         518          1.0000000000
      1554       518  TIP3  H2           -0.3988046877       12.3225885851       -5.4357363669  CLST         518          1.0000000000
      1555       519  TIP3  OH2           0.8432056572        5.3123421580        1.0460213735  CLST         519          1.0000000000
      1556       519  TIP3  H1            0.3053362203        4.7172800244        0.5287554347  CLST         519          1.0000000000
      1557       519  TIP3  H2            0.0387351865        5.8155810704        1.1023126749  CLST         519          1.0000000000
      1558       520  TIP3  OH2           6.8708076264        6.5999293225      -10.4654947747  CLST         520          1.0000000000
      1559       520  TIP3  H1            6.1113137983        7.1086806449      -10.6187387626  CLST         520          1.0000000000
      1560       520  TIP3  H2            7.0962084956        7.2917811150       -9.8621571838  CLST         520          1.0000000000
      1561       521  TIP3  OH2          -5.7464454555       10.3129288400        9.7925741819  CLST         521          1.0000000000
      1562       521  TIP3  H1           -4.9093085285        9.9935659433       10.0852879684  CLST         521          1.0000000000
      1563       521  TIP3  H2           -4.8370963495       10.7665887409        9.3904078346  CLST         521          1.0000000000
      1564       522  TIP3  OH2           3.2318200446        4.0522358539        2.2240491270  CLST         522          1.0000000000
      1565       522  TIP3  H1            2.3362767857        4.4450499173        1.6148597911  CLST         522          1.0000000000
      1566       522  TIP3  H2            3.0626926122        3.7920065260        1.3411089272  CLST         522          1.0000000000
      1567       523  TIP3  OH2           8.3890416327        0.8206369901       -3.2808666616  CLST         523          1.0000000000
      1568       523  TIP3  H1            7.4091354580        0.8622855422       -3.3245876354  CLST         523          1.0000000000
      1569       523  TIP3  H2            8.4351415133        0.0712064625       -3.9006874307  CLST         523          1.0000000000
      1570       524  TIP3  OH2          -5.4501534768        5.6967326214      -10.7201630051  CLST         524          1.0000000000
      1571       524  TIP3  H1           -5.4641585498        6.6317898312      -10.9503628147  CLST         524          1.0000000000
      1572       524  TIP3  H2           -4.4771987337        5.5063299641      -10.7614492535  CLST         524          1.0000000000
      1573       525  TIP3  OH2          -5.6397373999        5.6187246098       -7.9737575109  CLST         525          1.0000000000
      1574       525  TIP3  H1           -5.2195586964        6.4901108879       -8.1250584344  CLST         525          1.0000000000
      1575       525  TIP3  H2           -5.6547679309        5.5308069212       -8.9415665025  CLST         525          1.0000000000
      1576       526  TIP3  OH2           9.5027375412      -10.9176643074      -12.8830878425  CLST         526          1.0000000000
      1577       526  TIP3  H1            9.4241993088      -10.2266972426      -13.4697847887  CLST         526          1.0000000000
      1578       526  TIP3  H2            8.6195554538      -11.2152111300      -13.1083711299  CLST         526          1.0000000000
      1579       527  TIP3  OH2         -11.4759515417       -3.2114461707       -1.5372570994  CLST         527          1.0000000000
      1580       527  TIP3  H1          -12.1630542100       -3.7484897733       -1.9320148545  CLST         527          1.0000000000
      1581       527  TIP3  H2          -10.8835211958       -3.6750009015       -2.0858087047  CLST         527          1.0000000000
      1582       528  TIP3  OH2           4.5587631120      -11.8618370416      -11.3573341402  CLST         528          1.0000000000
      1583       528  TIP3  H1            4.4964358310      -10.8688990557      -11.2525929278  CLST         528          1.0000000000
      1584       528  TIP3  H2            5.2152686970      -11.7333354174      -10.6378392529  CLST         528          1.0000000000
      1585       529  TIP3  OH2          -5.9492016673       -7.2821058872       -4.7518804131  CLST         529          1.0000000000
      1586       529  TIP3  H1           -5.4084205013       -8.0017772849       -5.0556933150  CLST         529          1.0000000000
      1587       529  TIP3  H2           -5.9385117918       -7.0541278800       -5.6908569106  CLST         529          1.0000000000
      1588       530  TIP3  OH2           2.9878871622       -5.5680494186        6.6445951608  CLST         530          1.0000000000
      1589       530  TIP3  H1            2.4956114572       -6.0392585565        7.3490499492  CLST         530          1.0000000000
      1590       530  TIP3  H2            2.1751274690       -5.5935016279        6.0536150462  CLST         530          1.0000000000
      1591       531  TIP3  OH2          -3.3425503920       -3.1290958971      -14.9391371020  CLST         531          1.0000000000
      1592       531  TIP3  H1           -4.2297784457       -2.8471623131      -14.7917359165  CLST         531          1.0000000000
      1593       531  TIP3  H2           -3.0429088341       -2.3639336502      -14.5054318298  CLST         531          1.0000000000
      1594       532  TIP3  OH2          -1.1989184974       -3.5212610016       -1.9208158187  CLST         532          1.0000000000
      1595       532  TIP3  H1           -1.8222894039       -2.7847566460       -2.1504106407  CLST         532          1.0000000000
      1596       532  TIP3  H2           -1.7437465623       -3.5632429791       -1.1011830651  CLST         532          1.0000000000
      1597       533  TIP3  OH2          -3.3328723975       13.2797245805        7.9823077994  CLST         533          1.0000000000
      1598       533  TIP3  H1           -3.9835883553       13.7938942171        7.5779398709  CLST         533          1.0000000000
      1599       533  TIP3  H2           -3.9397916396       12.5464276347        7.8563043514  CLST         533          1.0000000000
      1600       534  TIP3  OH2           7.0549610402       -4.0194985287       -5.0709050148  CLST         534          1.0000000000
      1601       534  TIP3  H1            6.1904212561       -3.8584104830       -4.6004192559  CLST         534          1.0000000000
      1602       534  TIP3  H2            6.4117139622       -3.9652183342       -5.8718127345  CLST         534          1.0000000000
      1603       535  TIP3  OH2           7.3451417893       -3.8336364005      -11.5657772935  CLST         535          1.0000000000
      1604       535  TIP3  H1            6.5613870143       -3.3556846514      -11.1786691872  CLST         535          1.0000000000
      1605       535  TIP3  H2            7.3276193391       -4.2321670902      -10.6803252797  CLST         535          1.0000000000
      1606       536  TIP3  OH2          14.0342096262        8.1723083558       10.8392133902  CLST         536          1.0000000000
      1607       536  TIP3  H1           13.9340417545        9.0944756839       11.1586369598  CLST         536          1.0000000000
      1608       536  TIP3  H2           14.6200723997        8.6222795165       10.1230129625  CLST         536          1.0000000000
      1609       537  TIP3  OH2           4.7191922744       -4.5744811047       -3.5540589231  CLST         537          1.0000000000
      1610       537  TIP3  H1            3.8351784259       -4.8922567697       -3.3197074587  CLST         537          1.0000000000
      1611       537  TIP3  H2            4.6594398045       -5.4859348191       -3.7579763667  CLST         537          1.0000000000
      1612       538  TIP3  OH2          -0.5018466371        7.3951384494       13.0258494342  CLST         538          1.0000000000
      1613       538  TIP3  H1           -1.1582745710        7.5024340648       12.3635314112  CLST         538          1.0000000000
      1614       538  TIP3  H2           -0.4056694071        8.3751161291       12.9919992733  CLST         538          1.0000000000
      1615       539  TIP3  OH2           6.1171833751        8.9079549353        1.1168748635  CLST         539          1.0000000000
      1616       539  TIP3  H1            6.4514638955        8.1605313483        0.5057669142  CLST         539          1.0000000000
      1617       539  TIP3  H2            5.7010404423        8.1141256846        1.5442245165  CLST         539          1.0000000000
      1618       540  TIP3  OH2          12.0733257970       -1.4541087395       -3.9584714426  CLST         540          1.0000000000
      1619       540  TIP3  H1           12.7450980353       -0.7881700030       -4.2876706716  CLST         540          1.0000000000
      1620       540  TIP3  H2           12.2824895862       -1.1251315650       -3.0880508245  CLST         540          1.0000000000
      1621       541  TIP3  OH2          10.3278435411        7.4444122863        8.5932233772  CLST         541          1.0000000000
      1622       541  TIP3  H1           10.4824956710        7.7353855197        9.5387659465  CLST         541          1.0000000000
      1623       541  TIP3  H2           11.0072915361        6.7906148896        8.9946049131  CLST         541          1.0000000000
      1624       542  TIP3  OH2          13.3127906772        0.8041987965       -5.1226370497  CLST         542          1.0000000000
      1625       542  TIP3  H1           12.5377252124        0.9453186816       -5.6289299602  CLST         542          1.0000000000
      1626       542  TIP3  H2           13.6928081357        1.1582609335       -5.9280841678  CLST         542          1.0000000000
      1627       543  TIP3  OH2          10.1351430182       -6.5120181932        5.6664078719  CLST         543          1.0000000000
      1628       543  TIP3  H1           10.4815152054       -6.7293246932        4.8083169737  CLST         543          1.0000000000
      1629       543  TIP3  H2            9.3825564760       -6.0024342327        5.2013890680  CLST         543          1.0000000000
      1630       544  TIP3  OH2           6.7598536480        4.6346965721      -12.2121805184  CLST         544          1.0000000000
      1631       544  TIP3  H1            7.2028806272        3.9456039406      -11.7129699832  CLST         544          1.0000000000
      1632       544  TIP3  H2            6.5112956547        5.0338244700      -11.4048771618  CLST         544          1.0000000000
      1633       545  TIP3  OH2         -11.8517029557        2.1759138981        7.3005693193  CLST         545          1.0000000000
      1634       545  TIP3  H1          -12.6791859256        2.7683642514        7.1124863090  CLST         545          1.0000000000
      1635       545  TIP3  H2          -11.8237654766        2.7927641851        7.9695886607  CLST         545          1.0000000000
      1636       546  TIP3  OH2          -1.0113578176       11.9394042173       10.6493457788  CLST         546          1.0000000000
      1637       546  TIP3  H1           -0.8988554655       12.8281030536       10.2876695687  CLST         546          1.0000000000
      1638       546  TIP3  H2           -0.5567005047       12.3626174125       11.4429089696  CLST         546          1.0000000000
      1639       547  TIP3  OH2          -1.8771382722        7.1565551326        5.6678513626  CLST         547          1.0000000000
      1640       547  TIP3  H1           -2.0430874702        6.5255632813        6.4396873502  CLST         547          1.0000000000
      1641       547  TIP3  H2           -1.2942429716        6.4916144045        5.2482175537  CLST         547          1.0000000000
      1642       548  TIP3  OH2           2.6439252611       -7.8919366739       12.6220155036  CLST         548          1.0000000000
      1643       548  TIP3  H1            2.2973359679       -7.0266348088       12.4427678933  CLST         548          1.0000000000
      1644       548  TIP3  H2            3.5750927271       -7.5452737638       12.4494793266  CLST         548          1.0000000000
      1645       549  TIP3  OH2          -6.8672227900       14.4132245583        3.0157279024  CLST         549          1.0000000000
      1646       549  TIP3  H1           -7.5309952551       14.9096520551        3.4621000880  CLST         549          1.0000000000
      1647       549  TIP3  H2           -6.8671462286       13.8770990974        3.8161126902  CLST         549          1.0000000000
      1648       550  TIP3  OH2          -8.1795385205        4.4678806125       -4.5923490718  CLST         550          1.0000000000
      1649       550  TIP3  H1           -8.6099908775        3.6054753777       -4.4280680686  CLST         550          1.0000000000
      1650       550  TIP3  H2           -9.1657304807        4.5488712815       -4.2847780534  CLST         550          1.0000000000
      1651       551  TIP3  OH2          -2.3214353424      -13.2927701653       -3.4671092525  CLST         551          1.0000000000
      1652       551  TIP3  H1           -1.9298979478      -13.1966303885       -2.5950506375  CLST         551          1.0000000000
      1653       551  TIP3  H2           -3.1224468714      -13.0296752866       -3.0679803112  CLST         551          1.0000000000
      1654       552  TIP3  OH2          -2.2689055748       -7.9527331362       13.7704306289  CLST         552          1.0000000000
      1655       552  TIP3  H1           -2.6103414137       -8.8832502592       13.9493599863  CLST         552          1.0000000000
      1656       552  TIP3  H2           -1.4854701292       -8.2261402070       13.3425381392  CLST         552          1.0000000000
      1657       553  TIP3  OH2           8.2382650488      -13.9664784044        0.2752965802  CLST         553          1.0000000000
      1658       553  TIP3  H1            8.9554413817      -13.3873905956        1.0797632549  CLST         553          1.0000000000
      1659       553  TIP3  H2            8.7110611121      -14.3847294238        0.9240174401  CLST         553          1.0000000000
      1660       554  TIP3  OH2          -8.9803035089      -12.0748699871       -3.6180842304  CLST         554          1.0000000000
      1661       554  TIP3  H1           -9.3126795925      -11.4587837615       -2.9496517270  CLST         554          1.0000000000
      1662       554  TIP3  H2           -9.8556783311      -12.5751726539       -3.4690982037  CLST         554          1.0000000000
      1663       555  TIP3  OH2         -10.9449866327       -5.1603488727       -7.2941237088  CLST         555          1.0000000000
      1664       555  TIP3  H1          -10.7049045984       -4.4014953818       -7.0775520539  CLST         555          1.0000000000
      1665       555  TIP3  H2          -11.2053694293       -5.4559767428       -6.4335095322  CLST         555          1.0000000000
      1666       556  TIP3  OH2         -10.5741413754       11.4187646249       13.5864267978  CLST         556          1.0000000000
      1667       556  TIP3  H1          -11.0841317344       10.6232108682       13.3293652282  CLST         556          1.0000000000
      1668       556  TIP3  H2           -9.7601805798       10.9092668053       13.3387027941  CLST         556          1.0000000000
      1669       557  TIP3  OH2          -2.7061146246       -6.6120641644        1.1920868545  CLST         557          1.0000000000
      1670       557  TIP3  H1           -2.8640446867       -6.6554977236        2.1216754393  CLST         557          1.0000000000
      1671       557  TIP3  H2           -2.5933986704       -7.5552918077        1.1473030322  CLST         557          1.0000000000
      1672       558  TIP3  OH2         -10.4771911161        6.4211263224        3.1405649012  CLST         558          1.0000000000
      1673       558  TIP3  H1          -10.1885705985        5.8283359047        3.8923609181  CLST         558          1.0000000000
      1674       558  TIP3  H2           -9.9080972821        5.8283265494        2.5389080440  CLST         558          1.0000000000
      1675       559  TIP3  OH2           0.9204718967        2.5475037115       -0.1067280987  CLST         559          1.0000000000
      1676       559  TIP3  H1            1.4659561902        2.4761918772       -1.0920044785  CLST         559          1.0000000000
      1677       559  TIP3  H2            1.5259165763        1.8473218213       -0.2776998473  CLST         559          1.0000000000
      1678       560  TIP3  OH2          12.7350381950      -11.8403584291        1.1840926467  CLST         560          1.0000000000
      1679       560  TIP3  H1           12.7113353475      -12.6405852386        0.5996027103  CLST         560          1.0000000000
      1680       560  TIP3  H2           12.2634654079      -12.7403024901        1.7185700707  CLST         560          1.0000000000
      1681       561  TIP3  OH2         -13.0093675423        8.2353091533      -11.0597588271  CLST         561          1.0000000000
      1682       561  TIP3  H1          -11.9657569071        8.2628585108      -11.1146983872  CLST         561          1.0000000000
      1683       561  TIP3  H2          -12.2246348069        8.1708214970      -10.2249289806  CLST         561          1.0000000000
      1684       562  TIP3  OH2           9.7894838146        6.9492492142       13.3087379626  CLST         562          1.0000000000
      1685       562  TIP3  H1           10.0956493655        7.4624387147       14.0628123621  CLST         562          1.0000000000
      1686       562  TIP3  H2            9.9181178521        6.2488709135       14.0174952627  CLST         562          1.0000000000
      1687       563  TIP3  OH2           3.2175358510      -10.3223882830       -6.5839453034  CLST         563          1.0000000000
      1688       563  TIP3  H1            4.0116487784      -10.4453103955       -6.1665245033  CLST         563          1.0000000000
      1689       563  TIP3  H2            2.9358201349      -11.1760915331       -6.6366535763  CLST         563          1.0000000000
      1690       564  TIP3  OH2           4.9394742937      -13.5740038501       -3.0517999221  CLST         564          1.0000000000
      1691       564  TIP3  H1            5.5187897958      -13.7190351260       -3.7927725749  CLST         564          1.0000000000
      1692       564  TIP3  H2            4.1400331984      -13.4537008515       -3.5354064769  CLST         564          1.0000000000
      1693       565  TIP3  OH2           1.1436777691       12.2369069499        0.3321923062  CLST         565          1.0000000000
      1694       565  TIP3  H1            0.7836572542       11.4971746164       -0.1324343027  CLST         565          1.0000000000
      1695       565  TIP3  H2            2.0473261731       12.0367391507       -0.0600688747  CLST         565          1.0000000000
      1696       566  TIP3  OH2          -8.7178462598        5.7984151217        1.0274099930  CLST         566          1.0000000000
      1697       566  TIP3  H1           -8.8093660793        5.4173988763        0.1153754029  CLST         566          1.0000000000
      1698       566  TIP3  H2           -8.7655065798        6.3704975694       -0.0160613495  CLST         566          1.0000000000
      1699       567  TIP3  OH2          12.2874403017        0.0063808285       -8.2340167665  CLST         567          1.0000000000
      1700       567  TIP3  H1           13.2783301983        0.1696134141       -8.2056905519  CLST         567          1.0000000000
      1701       567  TIP3  H2           12.4684981282       -0.5926558056       -9.0172245015  CLST         567          1.0000000000
      1702       568  TIP3  OH2           8.8273019264       -7.2216952260       11.6649849359  CLST         568          1.0000000000
      1703       568  TIP3  H1            9.6217900591       -7.7420303220       11.9802465100  CLST         568          1.0000000000
      1704       568  TIP3  H2            9.5334996135       -6.5812844057       11.4041107819  CLST         568          1.0000000000
      1705       569  TIP3  OH2          -8.3648626610       -6.1799019917        3.5834174406  CLST         569          1.0000000000
      1706       569  TIP3  H1           -8.6135394619       -6.0378761340        2.6835829205  CLST         569          1.0000000000
      1707       569  TIP3  H2           -9.1711079423       -6.6794813231        3.5078563102  CLST         569          1.0000000000
      1708       570  TIP3  OH2           6.1412993203       11.4363336528       14.9391371020  CLST         570          1.0000000000
      1709       570  TIP3  H1            5.5193103920       11.9990785076       14.8957923477  CLST         570          1.0000000000
      1710       570  TIP3  H2            6.2283178572       12.4984177327       14.3948066237  CLST         570          1.0000000000
      1711       571  TIP3  OH2           9.5969955419        1.2426521973        4.7415526496  CLST         571          1.0000000000
      1712       571  TIP3  H1            8.6803218365        1.2700517454        5.0294225101  CLST         571          1.0000000000
      1713       571  TIP3  H2            9.1657898779        0.8806152801        3.8665156320  CLST         571          1.0000000000
      1714       572  TIP3  OH2           4.8179646892        0.1026266948        2.4622913228  CLST         572          1.0000000000
      1715       572  TIP3  H1            4.6373965762       -0.6017946438        1.8564441271  CLST         572          1.0000000000
      1716       572  TIP3  H2            5.0445902854       -0.6692386992        3.0081555327  CLST         572          1.0000000000
      1717       573  TIP3  OH2          -1.9803694477       -6.5284589284       -6.4733701936  CLST         573          1.0000000000
      1718       573  TIP3  H1           -1.5413976621       -7.4548059521       -6.4628254917  CLST         573          1.0000000000
      1719       573  TIP3  H2           -2.5383217832       -7.0374740675       -7.1289661735  CLST         573          1.0000000000
      1720       574  TIP3  OH2          -9.8722795468        0.6878171105        9.7478919547  CLST         574          1.0000000000
      1721       574  TIP3  H1           -9.6423060847        1.5819055271        9.5564378718  CLST         574          1.0000000000
      1722       574  TIP3  H2           -9.1967988588        0.4858061900        9.1242510014  CLST         574          1.0000000000
      1723       575  TIP3  OH2          -3.9625602574       11.0093396498        0.8668785039  CLST         575          1.0000000000
      1724       575  TIP3  H1           -4.0674786759       11.6004719604        0.0223215716  CLST         575          1.0000000000
      1725       575  TIP3  H2           -4.7924296629       11.4447824243        1.0886601942  CLST         575          1.0000000000
      1726       576  TIP3  OH2          -3.3477551180       -2.3081224647        6.3757808917  CLST         576          1.0000000000
      1727       576  TIP3  H1           -3.5563882122       -1.4060795756        6.0612848781  CLST         576          1.0000000000
      1728       576  TIP3  H2           -3.0354081559       -2.4775994737        5.4564169879  CLST         576          1.0000000000
      1729       577  TIP3  OH2         -11.9223155282       11.2952283423        8.3262576468  CLST         577          1.0000000000
      1730       577  TIP3  H1          -11.1770934369       11.8821303914        8.5116673775  CLST         577          1.0000000000
      1731       577  TIP3  H2          -11.9538093270       11.4993656474        7.4272755912  CLST         577          1.0000000000
      1732       578  TIP3  OH2          -1.6609554145        0.9511558454        5.3483080306  CLST         578          1.0000000000
      1733       578  TIP3  H1           -2.5008826772        1.4067192339        5.3533429711  CLST         578          1.0000000000
      1734       578  TIP3  H2           -1.7252015100        1.0181488470        6.3117254111  CLST         578          1.0000000000
      1735       579  TIP3  OH2          -6.5863322099       11.6051520329        1.6277512374  CLST         579          1.0000000000
      1736       579  TIP3  H1           -7.0296874422       12.2196377914        1.0646537044  CLST         579          1.0000000000
      1737       579  TIP3  H2           -6.9847924244       10.8640883253        1.1922404966  CLST         579          1.0000000000
      1738       580  TIP3  OH2          11.1400793610        3.6971766956       -3.3627873400  CLST         580          1.0000000000
      1739       580  TIP3  H1           11.1858125194        2.7470864248       -3.1475335114  CLST         580          1.0000000000
      1740       580  TIP3  H2           11.5246868049        3.7556810970       -2.4436405662  CLST         580          1.0000000000
      1741       581  TIP3  OH2          13.0673431653      -11.6282553416        3.4453274443  CLST         581          1.0000000000
      1742       581  TIP3  H1           13.6828529681      -11.3880229588        2.6679577930  CLST         581          1.0000000000
      1743       581  TIP3  H2           13.8916772184      -11.6390701321        3.8979166955  CLST         581          1.0000000000
      1744       582  TIP3  OH2           6.3317065394       10.7570254500       -7.0697218438  CLST         582          1.0000000000
      1745       582  TIP3  H1            5.4299544061       10.6543269794       -6.6693779509  CLST         582          1.0000000000
      1746       582  TIP3  H2            6.6424814030       10.7466940215       -6.1620579538  CLST         582          1.0000000000
      1747       583  TIP3  OH2          -2.5189096880        4.7021943732      -11.0076232201  CLST         583          1.0000000000
      1748       583  TIP3  H1           -2.5426752434        3.6429721943      -11.4579943975  CLST         583          1.0000000000
      1749       583  TIP3  H2           -1.6516325021        3.9814022929      -10.9894435549  CLST         583          1.0000000000
      1750       584  TIP3  OH2           2.3833074924       -4.1442075135      -10.1295467470  CLST         584          1.0000000000
      1751       584  TIP3  H1            3.3573512353       -4.3848171621      -10.2019690617  CLST         584          1.0000000000
      1752       584  TIP3  H2            2.7860804833       -3.3521382943       -9.6785669264  CLST         584          1.0000000000
      1753       585  TIP3  OH2         -13.8159495652        1.1709120237       -1.9087641163  CLST         585          1.0000000000
      1754       585  TIP3  H1          -13.7072896433        1.8443431567       -2.6406703784  CLST         585          1.0000000000
      1755       585  TIP3  H2          -14.7292987379        0.9454192708       -2.0268714243  CLST         585          1.0000000000
      1756       586  TIP3  OH2          -7.6685777272        8.4275841637       10.3629834611  CLST         586          1.0000000000
      1757       586  TIP3  H1           -7.0068970773        8.9677629858        9.8853197337  CLST         586          1.0000000000
      1758       586  TIP3  H2           -7.3047224427        7.7080079940        9.8882787782  CLST         586          1.0000000000
      1759       587  TIP3  OH2           4.5527900223        4.3716904129       -9.5501731362  CLST         587          1.0000000000
      1760       587  TIP3  H1            3.4959477455        4.6213964673       -9.8378882490  CLST         587          1.0000000000
      1761       587  TIP3  H2            4.1669611689        5.2585599667      -10.0132255473  CLST         587          1.0000000000
      1762       588  TIP3  OH2           5.1133736024       -9.6201509018      -13.9530066056  CLST         588          1.0000000000
      1763       588  TIP3  H1            4.1986822813       -9.8581247041      -13.8303361459  CLST         588          1.0000000000
      1764       588  TIP3  H2            5.1954573298       -9.0456336494      -13.1911720291  CLST         588          1.0000000000
      1765       589  TIP3  OH2           0.4136283366      -14.2299834331        3.2473162185  CLST         589          1.0000000000
      1766       589  TIP3  H1           -0.2657131062      -14.9391371020        3.0130202964  CLST         589          1.0000000000
      1767       589  TIP3  H2            0.0324139581      -14.3060494450        4.1144950366  CLST         589          1.0000000000
      1768       590  TIP3  OH2           2.1024763254        2.0241525413       -7.9859566875  CLST         590          1.0000000000
      1769       590  TIP3  H1            1.3690730966        2.8890739064       -7.7066542882  CLST         590          1.0000000000
      1770       590  TIP3  H2            1.5637038654        2.3737130452       -8.7036255533  CLST         590          1.0000000000
      1771       591  TIP3  OH2         -12.9008945873        0.8576751181       -6.8911241888  CLST         591          1.0000000000
      1772       591  TIP3  H1          -11.9773123606        1.1050071692       -6.7006412719  CLST         591          1.0000000000
      1773       591  TIP3  H2          -13.0849152113        1.7505373336       -6.5624171601  CLST         591          1.0000000000
      1774       592  TIP3  OH2          -4.0720933205       -3.9009770944       -6.0987587674  CLST         592          1.0000000000
      1775       592  TIP3  H1           -3.3015639075       -3.8319148762       -6.6641721117  CLST         592          1.0000000000
      1776       592  TIP3  H2           -4.5846676422       -4.5222380719       -6.7599695806  CLST         592          1.0000000000
      1777       593  TIP3  OH2          -1.7136614141        5.1226735950       -4.5673386053  CLST         593          1.0000000000
      1778       593  TIP3  H1           -1.8276883364        6.0300705189       -4.3316664212  CLST         593          1.0000000000
      1779       593  TIP3  H2           -0.9323014782        5.0816019547       -5.1432921016  CLST         593          1.0000000000
      1780       594  TIP3  OH2          11.1426531842       10.6083298956       13.5755599429  CLST         594          1.0000000000
      1781       594  TIP3  H1           10.9001969454        9.7927802874       14.2121618476  CLST         594          1.0000000000
      1782       594  TIP3  H2           10.3730627516       10.6083275547       14.5148294449  CLST         594          1.0000000000
      1783       595  TIP3  OH2          -8.9900674718       13.4567228756        4.3804587226  CLST         595          1.0000000000
      1784       595  TIP3  H1           -9.7823782830       13.7695816958        4.0172979470  CLST         595          1.0000000000
      1785       595  TIP3  H2           -8.7549869365       13.0121645221        3.5369046068  CLST         595          1.0000000000
      1786       596  TIP3  OH2         -14.1086066997       -0.6407675567        8.6619035522  CLST         596          1.0000000000
      1787       596  TIP3  H1          -14.1267616211       -1.3790992074        9.2942172611  CLST         596          1.0000000000
      1788       596  TIP3  H2          -13.2630784944       -0.9240342663        8.2724868958  CLST         596          1.0000000000
      1789       597  TIP3  OH2          -2.7897977872       -5.2723657385       -4.1883315215  CLST         597          1.0000000000
      1790       597  TIP3  H1           -2.5017710263       -5.6359691622       -5.0590053576  CLST         597          1.0000000000
      1791       597  TIP3  H2           -3.2043537731       -4.5887131277       -4.7822859990  CLST         597          1.0000000000
      1792       598  TIP3  OH2          -8.1719656436       -9.3686639586       -9.1405946428  CLST         598          1.0000000000
      1793       598  TIP3  H1           -9.0310226946       -9.7842782208       -9.1483054429  CLST         598          1.0000000000
      1794       598  TIP3  H2           -8.5512163727       -8.8871378448       -9.8595979864  CLST         598          1.0000000000
      1795       599  TIP3  OH2          12.1146697655        0.1540481414      -13.0363066313  CLST         599          1.0000000000
      1796       599  TIP3  H1           12.6064758735        0.9132987631      -13.3701726187  CLST         599          1.0000000000
      1797       599  TIP3  H2           12.2170186368       -0.3467928374      -13.8655823453  CLST         599          1.0000000000
      1798       600  TIP3  OH2          13.9814690459       -9.7089443219        1.7471074364  CLST         600          1.0000000000
      1799       600  TIP3  H1           14.8710970324      -10.1056758224        1.5020775213  CLST         600          1.0000000000
      1800       600  TIP3  H2           13.6380095255      -10.3258293789        0.9994847345  CLST         600          1.0000000000
      1801       601  TIP3  OH2          -2.4610499617       13.4622566206       -8.2861997608  CLST         601          1.0000000000
      1802       601  TIP3  H1           -2.3154180146       13.9941717271       -7.5190323488  CLST         601          1.0000000000
      1803       601  TIP3  H2           -1.8490194843       13.9186940985       -8.8430449469  CLST         601          1.0000000000
      1804       602  TIP3  OH2          13.7989131075       -3.3901310451        8.4921497931  CLST         602          1.0000000000
      1805       602  TIP3  H1           13.3810982463       -3.2223251768        7.6091824075  CLST         602          1.0000000000
      1806       602  TIP3  H2           14.1075410046       -4.1456727628        8.0306965278  CLST         602          1.0000000000
      1807       603  TIP3  OH2          -8.1258348161       -9.2832712323      -12.1264567457  CLST         603          1.0000000000
      1808       603  TIP3  H1           -8.8164744999       -8.6551169729      -11.8694801258  CLST         603          1.0000000000
      1809       603  TIP3  H2           -8.6891840469      -10.0482593059      -11.8819179857  CLST         603          1.0000000000
      1810       604  TIP3  OH2          -0.0024251642       -7.9226219082       12.4319910879  CLST         604          1.0000000000
      1811       604  TIP3  H1            0.3321619088       -7.0137538424       12.3022892107  CLST         604          1.0000000000
      1812       604  TIP3  H2            0.8232795479       -8.1095486580       12.9321242178  CLST         604          1.0000000000
      1813       605  TIP3  OH2           9.9404482269        8.1847734040        3.6545102906  CLST         605          1.0000000000
      1814       605  TIP3  H1            9.4856536972        8.5912569316        2.8846272413  CLST         605          1.0000000000
      1815       605  TIP3  H2           10.4304365264        9.0680508102        3.6003077358  CLST         605          1.0000000000
      1816       606  TIP3  OH2           0.8574149203        8.7210095167       -6.4155669841  CLST         606          1.0000000000
      1817       606  TIP3  H1            1.2406540094        9.6486804157       -6.2189018109  CLST         606          1.0000000000
      1818       606  TIP3  H2            0.0526004663        9.1327058862       -5.9812272417  CLST         606          1.0000000000
      1819       607  TIP3  OH2          -5.1059707420        1.4752132970      -14.0528028339  CLST         607          1.0000000000
      1820       607  TIP3  H1           -5.9800183849        1.5791645597      -13.5309844103  CLST         607          1.0000000000
      1821       607  TIP3  H2           -5.3567305127        1.0905111774      -14.9391371020  CLST         607          1.0000000000
      1822       608  TIP3  OH2          -2.5191231689       -0.4194522632      -11.3470758896  CLST         608          1.0000000000
      1823       608  TIP3  H1           -1.7907312273        0.2126374651      -11.2443833611  CLST         608          1.0000000000
      1824       608  TIP3  H2           -2.5056612685        0.0404556291      -12.1837532823  CLST         608          1.0000000000
      1825       609  TIP3  OH2           3.8701600625        8.0509047558        3.1783242037  CLST         609          1.0000000000
      1826       609  TIP3  H1            4.5409849614        8.3603518071        3.8023306932  CLST         609          1.0000000000
      1827       609  TIP3  H2            4.4901523851        7.3423532847        3.1018839828  CLST         609          1.0000000000
      1828       610  TIP3  OH2          -7.7889657572       -9.1077491154       11.7934398677  CLST         610          1.0000000000
      1829       610  TIP3  H1           -7.4617080146      -10.0907844578       11.3156830117  CLST         610          1.0000000000
      1830       610  TIP3  H2           -7.3690996185       -9.0440638127       11.0036702350  CLST         610          1.0000000000
      1831       611  TIP3  OH2          13.9137572440       -4.2404544003        6.2599271945  CLST         611          1.0000000000
      1832       611  TIP3  H1           14.5345555926       -4.8280695118        5.7680550051  CLST         611          1.0000000000
      1833       611  TIP3  H2           14.1473227241       -3.6126944395        5.5444415271  CLST         611          1.0000000000
      1834       612  TIP3  OH2          -9.2286953003      -10.7066132894        6.2434511976  CLST         612          1.0000000000
      1835       612  TIP3  H1           -8.3962266748      -10.4665721941        5.7546971205  CLST         612          1.0000000000
      1836       612  TIP3  H2           -9.5050165700       -9.8647711251        5.8258977539  CLST         612          1.0000000000
      1837       613  TIP3  OH2           2.6915628977       -2.2417818906       14.6492636269  CLST         613          1.0000000000
      1838       613  TIP3  H1            2.6915982760       -3.0869726087       14.1104264910  CLST         613          1.0000000000
      1839       613  TIP3  H2            2.1249201570       -1.9309998956       13.8855193454  CLST         613          1.0000000000
      1840       614  TIP3  OH2           1.1774028561        4.7701223112       -9.0444919677  CLST         614          1.0000000000
      1841       614  TIP3  H1            1.6443766294        5.2783572571       -8.2802837760  CLST         614          1.0000000000
      1842       614  TIP3  H2            1.1432413983        5.6789994825       -9.4030884721  CLST         614          1.0000000000
      1843       615  TIP3  OH2           1.1725060986        4.4389155883        7.1127957461  CLST         615          1.0000000000
      1844       615  TIP3  H1            1.7912569797        4.7853901205        7.7330793877  CLST         615          1.0000000000
      1845       615  TIP3  H2            1.7525789938        4.8270000729        6.4851239501  CLST         615          1.0000000000
      1846       616  TIP3  OH2          -7.8827787669        4.2496397065       -7.3579167699  CLST         616          1.0000000000
      1847       616  TIP3  H1           -8.4684552281        4.7183749756       -7.9978753780  CLST         616          1.0000000000
      1848       616  TIP3  H2           -7.2363066203        4.6831020117       -7.9175931288  CLST         616          1.0000000000
      1849       617  TIP3  OH2          14.8830642721        2.3255152138       11.5393497925  CLST         617          1.0000000000
      1850       617  TIP3  H1           14.2999750870        1.4898119437       11.2499700194  CLST         617          1.0000000000
      1851       617  TIP3  H2           14.1628203172        2.5113463415       12.1274559055  CLST         617          1.0000000000
      1852       618  TIP3  OH2          -7.2643262246        3.4829005100        2.7855586362  CLST         618          1.0000000000
      1853       618  TIP3  H1           -6.9676966630        4.1863744188        2.1548802420  CLST         618          1.0000000000
      1854       618  TIP3  H2           -6.6885892298        3.8159991203        3.4843369925  CLST         618          1.0000000000
      1855       619  TIP3  OH2           1.3265671342        5.4585160236       -2.4991876406  CLST         619          1.0000000000
      1856       619  TIP3  H1            0.5664554083        4.8582565535       -2.7300181141  CLST         619          1.0000000000
      1857       619  TIP3  H2            0.7119665473        6.2529236502       -2.5450714960  CLST         619          1.0000000000
      1858       620  TIP3  OH2          -3.5954992368        8.7631233631       -5.8841404534  CLST         620          1.0000000000
      1859       620  TIP3  H1           -3.6961552533        7.9801841723       -5.3452395075  CLST         620          1.0000000000
      1860       620  TIP3  H2           -3.8188569916        8.3360077589       -6.7364541134  CLST         620          1.0000000000
      1861       621  TIP3  OH2           0.9859585610        7.3834819993       -8.7183198193  CLST         621          1.0000000000
      1862       621  TIP3  H1            1.2429428822        8.0579429379       -8.0807575336  CLST         621          1.0000000000
      1863       621  TIP3  H2            0.8621464540        8.0459294730       -9.4777130843  CLST         621          1.0000000000
      1864       622  TIP3  OH2           2.0814759118       10.6510551460        3.9792759256  CLST         622          1.0000000000
      1865       622  TIP3  H1            2.6689915242       10.2856669765        4.7004546649  CLST         622          1.0000000000
      1866       622  TIP3  H2            1.4369827882       10.2332733274        4.6595241260  CLST         622          1.0000000000
      1867       623  TIP3  OH2          -0.1294871411       12.1534023921        2.7268417122  CLST         623          1.0000000000
      1868       623  TIP3  H1            0.4998063363       12.3216944183        1.9812194162  CLST         623          1.0000000000
      1869       623  TIP3  H2            0.7780364451       11.8764536519        3.0806040767  CLST         623          1.0000000000
      1870       624  TIP3  OH2          -8.5975909555       -1.9517875510       -3.7742326077  CLST         624          1.0000000000
      1871       624  TIP3  H1           -8.4251336773       -1.5332618302       -4.5805078586  CLST         624          1.0000000000
      1872       624  TIP3  H2           -9.3803652157       -1.4173208568       -3.9031429245  CLST         624          1.0000000000
      1873       625  TIP3  OH2          -9.5873758426      -13.0531260062       -9.1916450540  CLST         625          1.0000000000
      1874       625  TIP3  H1           -9.5768271289      -12.5310866648       -8.1425294263  CLST         625          1.0000000000
      1875       625  TIP3  H2           -9.2399557741      -13.5824584066       -8.6064104313  CLST         625          1.0000000000
      1876       626  TIP3  OH2          13.1615423668       -5.7370223543       -2.7139870448  CLST         626          1.0000000000
      1877       626  TIP3  H1           12.5066438883       -6.3883987004       -2.9946588700  CLST         626          1.0000000000
      1878       626  TIP3  H2           13.1457240922       -5.5754916964       -3.6537583295  CLST         626          1.0000000000
      1879       627  TIP3  OH2          -0.8916172769      -11.2519820510        8.2087503799  CLST         627          1.0000000000
      1880       627  TIP3  H1            0.0319868095      -11.3967696281        8.4724556883  CLST         627          1.0000000000
      1881       627  TIP3  H2           -0.7150203787      -12.2620918785        8.1203469006  CLST         627          1.0000000000
      1882       628  TIP3  OH2           6.7935186896        8.7207321142       -8.7429538647  CLST         628          1.0000000000
      1883       628  TIP3  H1            6.6210920910        9.6837663292       -8.8187206716  CLST         628          1.0000000000
      1884       628  TIP3  H2            6.8870922931        9.0366764446       -7.7897876260  CLST         628          1.0000000000
      1885       629  TIP3  OH2          -9.8292411825       -0.1649207602       -9.9202039178  CLST         629          1.0000000000
      1886       629  TIP3  H1           -9.2835861878        0.6051228883      -10.4981652942  CLST         629          1.0000000000
      1887       629  TIP3  H2           -9.0101202931       -0.2994928379      -10.1395059390  CLST         629          1.0000000000
      1888       630  TIP3  OH2          11.7239209459       12.2137372585       11.7728501409  CLST         630          1.0000000000
      1889       630  TIP3  H1           10.9133656019       12.7656475740       11.6265239924  CLST         630          1.0000000000
      1890       630  TIP3  H2           11.0601715864       12.0780617922       12.2399203909  CLST         630          1.0000000000
      1891       631  TIP3  OH2         -12.1657305610      -11.6202443049      -11.3288705954  CLST         631          1.0000000000
      1892       631  TIP3  H1          -12.8367570202      -11.5529502398      -12.2967582897  CLST         631          1.0000000000
      1893       631  TIP3  H2          -12.7891022510      -12.1599820678      -11.4658256000  CLST         631          1.0000000000
      1894       632  TIP3  OH2          11.0141816193        2.3026325579        9.2021908209  CLST         632          1.0000000000
      1895       632  TIP3  H1           11.6647783800        1.9557406369        9.8078009872  CLST         632          1.0000000000
      1896       632  TIP3  H2           11.1432450114        1.4711366626        8.7074235493  CLST         632          1.0000000000
      1897       633  TIP3  OH2          -4.3233194049        6.3194605040       10.4028247347  CLST         633          1.0000000000
      1898       633  TIP3  H1           -4.1718851136        5.3227804452       10.4112376502  CLST         633          1.0000000000
      1899       633  TIP3  H2           -5.2356751117        6.0339132565       10.1755111311  CLST         633          1.0000000000
      1900       634  TIP3  OH2          -2.3673116772       -7.2134322093        6.6938087477  CLST         634          1.0000000000
      1901       634  TIP3  H1           -2.2901043334       -8.1604261883        6.9389638351  CLST         634          1.0000000000
      1902       634  TIP3  H2           -1.9982078909       -7.1687779062        7.6566713857  CLST         634          1.0000000000
      1903       635  TIP3  OH2           2.7472985007        2.7513892139       -2.2949242331  CLST         635          1.0000000000
      1904       635  TIP3  H1            2.2029949941        3.5311094973       -2.9874376531  CLST         635          1.0000000000
      1905       635  TIP3  H2            2.5518680265        2.1977718122       -3.0418114284  CLST         635          1.0000000000
      1906       636  TIP3  OH2           5.1441328805       -2.4197278282       -9.9829098995  CLST         636          1.0000000000
      1907       636  TIP3  H1            4.5585522852       -1.9833459471      -10.7250868719  CLST         636          1.0000000000
      1908       636  TIP3  H2            5.2522039741       -1.4687661908       -9.7474899748  CLST         636          1.0000000000
      1909       637  TIP3  OH2           3.5012491724       11.2202621181      -10.5070325714  CLST         637          1.0000000000
      1910       637  TIP3  H1            4.1445899309       11.8608266242      -10.2209372840  CLST         637          1.0000000000
      1911       637  TIP3  H2            3.6775607655       10.9155371914       -9.6358214932  CLST         637          1.0000000000
      1912       638  TIP3  OH2           8.8136917812      -12.1899827331       -7.0500493678  CLST         638          1.0000000000
      1913       638  TIP3  H1            8.4673857744      -12.6929984311       -7.7692951845  CLST         638          1.0000000000
      1914       638  TIP3  H2            9.5164894642      -12.0350280950       -7.6195468205  CLST         638          1.0000000000
      1915       639  TIP3  OH2           7.4800959968      -13.4210284870       -9.1078724151  CLST         639          1.0000000000
      1916       639  TIP3  H1            6.5386520728      -13.7022100218       -9.2491470484  CLST         639          1.0000000000
      1917       639  TIP3  H2            7.6788547042      -14.3643568282       -9.1662428529  CLST         639          1.0000000000
      1918       640  TIP3  OH2          -9.6953360137       -3.0447351615      -10.3213671968  CLST         640          1.0000000000
      1919       640  TIP3  H1           -9.0023114612       -2.6851943849       -9.5184445453  CLST         640          1.0000000000
      1920       640  TIP3  H2          -10.0386083645       -2.8751403336       -9.4980323399  CLST         640          1.0000000000
      1921       641  TIP3  OH2         -14.0637991352       -3.0056158711      -13.3961158877  CLST         641          1.0000000000
      1922       641  TIP3  H1          -13.7246579945       -4.0454610038      -13.7682355192  CLST         641          1.0000000000
      1923       641  TIP3  H2          -13.1216814610       -2.9792328990      -13.2585463075  CLST         641          1.0000000000
      1924       642  TIP3  OH2          -2.1848662628        1.8698393786       11.2770216199  CLST         642          1.0000000000
      1925       642  TIP3  H1           -1.3889002608        1.4286058161       11.5950672763  CLST         642          1.0000000000
      1926       642  TIP3  H2           -2.7155006259        1.1263437780       11.6337962786  CLST         642          1.0000000000
      1927       643  TIP3  OH2         -13.9256523838       -2.9770134668        3.4392900090  CLST         643          1.0000000000
      1928       643  TIP3  H1          -13.7985884937       -2.0115783303        3.9860590865  CLST         643          1.0000000000
      1929       643  TIP3  H2          -14.6600487410       -2.4068729481        3.4482548573  CLST         643          1.0000000000
      1930       644  TIP3  OH2          13.0011419471       -2.9409858521        1.3149775115  CLST         644          1.0000000000
      1931       644  TIP3  H1           13.7659911029       -2.4652438916        1.6923653699  CLST         644          1.0000000000
      1932       644  TIP3  H2           13.4280870758       -3.3837329487        0.5577093462  CLST         644          1.0000000000
      1933       645  TIP3  OH2          -6.7112743326        6.2222421745        8.9471312162  CLST         645          1.0000000000
      1934       645  TIP3  H1           -6.9988435147        6.2585814463        8.0385583948  CLST         645          1.0000000000
      1935       645  TIP3  H2           -6.6743350196        5.2338411604        8.8830031742  CLST         645          1.0000000000
      1936       646  TIP3  OH2           6.9463729517      -11.2113709303       11.8636865995  CLST         646          1.0000000000
      1937       646  TIP3  H1            6.0320766433      -11.2795908552       11.5241445410  CLST         646          1.0000000000
      1938       646  TIP3  H2            6.7610697676      -12.1708194496       12.1740733348  CLST         646          1.0000000000
      1939       647  TIP3  OH2         -12.9569084661       -8.9950161305       -7.4416143455  CLST         647          1.0000000000
      1940       647  TIP3  H1          -13.4525183133       -8.7315312352       -6.6565196488  CLST         647          1.0000000000
      1941       647  TIP3  H2          -12.4578860694       -9.5821228356       -6.7372970567  CLST         647          1.0000000000
      1942       648  TIP3  OH2         -13.7500124231        3.4235050673       -6.4377203950  CLST         648          1.0000000000
      1943       648  TIP3  H1          -14.7027990424        3.6963168354       -6.2814609270  CLST         648          1.0000000000
      1944       648  TIP3  H2          -13.6616586269        3.2361260050       -5.4890122052  CLST         648          1.0000000000
      1945       649  TIP3  OH2          -1.7645959184       -3.2986816040       -7.5235741752  CLST         649          1.0000000000
      1946       649  TIP3  H1           -0.9177571152       -2.8520467806       -7.6200717088  CLST         649          1.0000000000
      1947       649  TIP3  H2           -1.3336856616       -4.1374664966       -7.6631387861  CLST         649          1.0000000000
      1948       650  TIP3  OH2          -4.6945129461       -3.4673586222      -11.7017502082  CLST         650          1.0000000000
      1949       650  TIP3  H1           -4.0108214466       -2.8936347930      -12.1185883742  CLST         650          1.0000000000
      1950       650  TIP3  H2           -4.0607616880       -2.6805412412      -11.1454126602  CLST         650          1.0000000000
      1951       651  TIP3  OH2           1.0355357691       -3.9524629113       14.1039812529  CLST         651          1.0000000000
      1952       651  TIP3  H1            0.3013053498       -4.5778325638       14.2260571130  CLST         651          1.0000000000
      1953       651  TIP3  H2            1.1477029067       -3.6168880228       14.9391371020  CLST         651          1.0000000000
      1954       652  TIP3  OH2           2.3097616013       -9.0294114244        9.9034791804  CLST         652          1.0000000000
      1955       652  TIP3  H1            2.3858592549       -8.5778246357       10.7377131401  CLST         652          1.0000000000
      1956       652  TIP3  H2            2.0752639729       -8.2020768234        9.4679688819  CLST         652          1.0000000000
      1957       653  TIP3  OH2          13.8804166059        1.3540314756       -2.4150000946  CLST         653          1.0000000000
      1958       653  TIP3  H1           12.8913269184        1.0594474642       -2.5399491619  CLST         653          1.0000000000
      1959       653  TIP3  H2           13.6759954550        1.4151418712       -3.4447692165  CLST         653          1.0000000000
      1960       654  TIP3  OH2          -5.8690086208        9.0392641537       13.0470556961  CLST         654          1.0000000000
      1961       654  TIP3  H1           -4.9524038960        9.4438246710       13.2180709628  CLST         654          1.0000000000
      1962       654  TIP3  H2           -5.7349066355        8.3647554621       12.4521064634  CLST         654          1.0000000000
      1963       655  TIP3  OH2          -4.2977880397        1.3620651849       12.5854572581  CLST         655          1.0000000000
      1964       655  TIP3  H1           -4.6681134956        0.4579529854       12.6031415386  CLST         655          1.0000000000
      1965       655  TIP3  H2           -4.7963497746        1.1861070231       13.6241689820  CLST         655          1.0000000000
      1966       656  TIP3  OH2         -13.9666650649       -3.9260517793      -10.9335256873  CLST         656          1.0000000000
      1967       656  TIP3  H1          -14.4768478342       -3.4291863364      -11.5919913407  CLST         656          1.0000000000
      1968       656  TIP3  H2          -13.9212885553       -4.4053716687      -11.8083000669  CLST         656          1.0000000000
      1969       657  TIP3  OH2           4.5229670699       -1.2422774577        5.0108565700  CLST         657          1.0000000000
      1970       657  TIP3  H1            5.0835169548       -0.4388855516        5.2662633453  CLST         657          1.0000000000
      1971       657  TIP3  H2            4.2109548297       -1.1435418593        5.9404054668  CLST         657          1.0000000000
      1972       658  TIP3  OH2         -14.0409399132       -7.2699344302       -4.8023253391  CLST         658          1.0000000000
      1973       658  TIP3  H1          -13.8537370128       -6.4503966900       -5.2132256269  CLST         658          1.0000000000
      1974       658  TIP3  H2          -14.9391371020       -7.1398645488       -5.1072224285  CLST         658          1.0000000000
      1975       659  TIP3  OH2           9.3597360708      -13.1563132635        9.8958072878  CLST         659          1.0000000000
      1976       659  TIP3  H1            9.0155019419      -12.3935091415        9.4048940342  CLST         659          1.0000000000
      1977       659  TIP3  H2            8.4657423758      -13.5064149440       10.0194999804  CLST         659          1.0000000000
      1978       660  TIP3  OH2         -14.3762448691       -9.1910814020        6.8057894802  CLST         660          1.0000000000
      1979       660  TIP3  H1          -14.9079328273       -9.9125317215        7.2315344310  CLST         660          1.0000000000
      1980       660  TIP3  H2          -14.0648802893       -9.0811921241        7.7217187530  CLST         660          1.0000000000
      1981       661  TIP3  OH2           2.8896739207        1.0207546886       -4.4779198029  CLST         661          1.0000000000
      1982       661  TIP3  H1            2.4760516074        1.6976555409       -4.9740397078  CLST         661          1.0000000000
      1983       661  TIP3  H2            2.3886523030        0.2479732849       -4.7837766059  CLST         661          1.0000000000
      1984       662  TIP3  OH2          -9.0338580089       -5.1688219210        1.2411515208  CLST         662          1.0000000000
      1985       662  TIP3  H1           -9.3532371041       -5.6628637418        0.4824330734  CLST         662          1.0000000000
      1986       662  TIP3  H2           -9.4422541139       -4.3784129885        0.7995413084  CLST         662          1.0000000000
      1987       663  TIP3  OH2           6.2607425978       -1.9514126716        3.4765435333  CLST         663          1.0000000000
      1988       663  TIP3  H1            5.8485422332       -2.1807905704        4.2904219559  CLST         663          1.0000000000
      1989       663  TIP3  H2            6.2878097007       -2.8553510953        3.2937642775  CLST         663          1.0000000000
      1990       664  TIP3  OH2          10.1056125826      -14.1850980887        2.2086442567  CLST         664          1.0000000000
      1991       664  TIP3  H1            9.9493083763      -13.5017504992        2.9717909567  CLST         664          1.0000000000
      1992       664  TIP3  H2            9.6253117576      -14.6761767200        2.8707033597  CLST         664          1.0000000000
      1993       665  TIP3  OH2           9.4674902059       10.0424527989      -14.0678117625  CLST         665          1.0000000000
      1994       665  TIP3  H1            9.0346411866        9.1509283377      -13.8813973307  CLST         665          1.0000000000
      1995       665  TIP3  H2            8.8185337702       10.1448711288      -14.7517180323  CLST         665          1.0000000000
      1996       666  TIP3  OH2         -11.7551244802       -7.7687812637       -8.9473858246  CLST         666          1.0000000000
      1997       666  TIP3  H1          -11.4627886652       -8.0454938222       -8.0377924593  CLST         666          1.0000000000
      1998       666  TIP3  H2          -12.6844932221       -7.9480503629       -8.7353489631  CLST         666          1.0000000000
      1999       667  TIP3  OH2         -11.2478058392        5.5849335566        7.8167211993  CLST         667          1.0000000000
      2000       667  TIP3  H1          -11.5096649794        5.0304653258        8.5459646056  CLST         667          1.0000000000
      2001       667  TIP3  H2          -10.8140834243        6.1536601217        8.4219733412  CLST         667          1.0000000000
      2002       668  TIP3  OH2         -12.6116586220        0.1783590259        0.1020027299  CLST         668          1.0000000000
      2003       668  TIP3  H1          -13.2123329813        0.3895341612        0.8690654493  CLST         668          1.0000000000
      2004       668  TIP3  H2          -13.4228837484        0.3595933137       -0.4193068499  CLST         668          1.0000000000
      2005       669  TIP3  OH2          -3.9255196497      -11.4094733759        5.6912043835  CLST         669          1.0000000000
      2006       669  TIP3  H1           -4.3907370012      -11.7911032292        4.9059306745  CLST         669          1.0000000000
      2007       669  TIP3  H2           -3.7808588328      -10.7420492466        4.9171233859  CLST         669          1.0000000000
      2008       670  TIP3  OH2          -6.2764238235       -2.0979481554        1.3645185570  CLST         670          1.0000000000
      2009       670  TIP3  H1           -7.1600583826       -1.6655586373        1.2009424954  CLST         670          1.0000000000
      2010       670  TIP3  H2           -6.0646124583       -1.6705344440        0.4995176077  CLST         670          1.0000000000
      2011       671  TIP3  OH2           3.9541780521       -9.0830326891      -11.1272668503  CLST         671          1.0000000000
      2012       671  TIP3  H1            3.4535554858       -9.0578872932      -10.2811558404  CLST         671          1.0000000000
      2013       671  TIP3  H2            4.8857033269       -8.8194695451      -11.0315964922  CLST         671          1.0000000000
      2014       672  TIP3  OH2          11.6991935023      -12.9043683573        8.9841619839  CLST         672          1.0000000000
      2015       672  TIP3  H1           11.0732871617      -13.5664535147        9.3385645089  CLST         672          1.0000000000
      2016       672  TIP3  H2           12.2245485965      -13.1940959798        9.7233297271  CLST         672          1.0000000000
      2017       673  TIP3  OH2           6.8297330077       -4.3165096906        6.8902819667  CLST         673          1.0000000000
      2018       673  TIP3  H1            7.1551217649       -3.4360665837        6.6351011616  CLST         673          1.0000000000
      2019       673  TIP3  H2            7.7364981642       -4.6153680742        7.0161236643  CLST         673          1.0000000000
      2020       674  TIP3  OH2          -3.9690318684       -0.5643514136        2.9858777055  CLST         674          1.0000000000
      2021       674  TIP3  H1           -3.2070816455       -1.3928833928        2.9924374230  CLST         674          1.0000000000
      2022       674  TIP3  H2           -4.0775572823       -1.5491579398        2.5382510575  CLST         674          1.0000000000
      2023       675  TIP3  OH2          -9.4579279401        2.4742525103       -3.3784017920  CLST         675          1.0000000000
      2024       675  TIP3  H1           -9.1526522406        2.5163540840       -2.4926037491  CLST         675          1.0000000000
      2025       675  TIP3  H2          -10.3274545357        2.2908277329       -2.8493283770  CLST         675          1.0000000000
      2026       676  TIP3  OH2         -13.4950874181       -0.2322582826      -13.5266988492  CLST         676          1.0000000000
      2027       676  TIP3  H1          -14.0985214577       -1.0189190658      -13.5685043349  CLST         676          1.0000000000
      2028       676  TIP3  H2          -13.2295210434       -0.7201656150      -12.7738660274  CLST         676          1.0000000000
      2029       677  TIP3  OH2           1.8166580937      -12.1781947396        2.2412633749  CLST         677          1.0000000000
      2030       677  TIP3  H1            1.5237322794      -12.2404329457        1.3572662058  CLST         677          1.0000000000
      2031       677  TIP3  H2            1.4269570229      -13.0261754432        2.4844076498  CLST         677          1.0000000000
      2032       678  TIP3  OH2          11.1645043834       -7.1231893669       -8.5324931400  CLST         678          1.0000000000
      2033       678  TIP3  H1           12.1318870495       -7.0095609956       -8.6776759328  CLST         678          1.0000000000
      2034       678  TIP3  H2           11.1159613062       -6.2533716276       -8.8661051644  CLST         678          1.0000000000
      2035       679  TIP3  OH2           7.7434369339       -9.9280488997      -14.0540054026  CLST         679          1.0000000000
      2036       679  TIP3  H1            7.3618617198       -9.2332627751      -14.6822655668  CLST         679          1.0000000000
      2037       679  TIP3  H2            6.7869712377      -10.2205415633      -14.1955538062  CLST         679          1.0000000000
      2038       680  TIP3  OH2           9.8652320561       -7.9975521900       -1.6882316149  CLST         680          1.0000000000
      2039       680  TIP3  H1           10.0550993474       -8.9383932736       -1.8574631677  CLST         680          1.0000000000
      2040       680  TIP3  H2            9.3762015280       -8.0164014631       -2.5613801839  CLST         680          1.0000000000
      2041       681  TIP3  OH2           7.5330058365        9.2897958835       10.9471236905  CLST         681          1.0000000000
      2042       681  TIP3  H1            8.0905591080        9.0143060229       10.2066350519  CLST         681          1.0000000000
      2043       681  TIP3  H2            8.3372547970        9.5743039744       11.2985679592  CLST         681          1.0000000000
      2044       682  TIP3  OH2           7.8354760039       14.0224530645        1.8812106186  CLST         682          1.0000000000
      2045       682  TIP3  H1            7.0839843586       13.9612468638        1.2517275822  CLST         682          1.0000000000
      2046       682  TIP3  H2            7.3133343174       14.6540603399        2.3039383758  CLST         682          1.0000000000
      2047       683  TIP3  OH2           3.7971885840       11.8309198009      -14.9391371020  CLST         683          1.0000000000
      2048       683  TIP3  H1            3.3261853332       11.9761543650      -14.0690506713  CLST         683          1.0000000000
      2049       683  TIP3  H2            3.6776645535       10.8886961706      -14.6358540849  CLST         683          1.0000000000
      2050       684  TIP3  OH2          12.3265027977        2.7873460863      -12.5108284022  CLST         684          1.0000000000
      2051       684  TIP3  H1           11.7809694566        2.0912521496      -12.1106275008  CLST         684          1.0000000000
      2052       684  TIP3  H2           12.7626901726        2.8247876554      -11.5712811319  CLST         684          1.0000000000
      2053       685  TIP3  OH2           3.9276969396       13.4443113862        2.4414865651  CLST         685          1.0000000000
      2054       685  TIP3  H1            3.9731044352       12.5391506896        1.9932746774  CLST         685          1.0000000000
      2055       685  TIP3  H2            3.2397990813       13.6450198198        1.7945036126  CLST         685          1.0000000000
      2056       686  TIP3  OH2          -1.7673770426      -11.7788173903       -5.3580353106  CLST         686          1.0000000000
      2057       686  TIP3  H1           -1.4822799112      -12.4313879243       -4.6543540056  CLST         686          1.0000000000
      2058       686  TIP3  H2           -2.4357217231      -12.4785521107       -5.6311837898  CLST         686          1.0000000000
      2059       687  TIP3  OH2           2.3913287613       10.8984637780       -5.6227757329  CLST         687          1.0000000000
      2060       687  TIP3  H1            2.1546134215       10.8824805438       -4.7225035413  CLST         687          1.0000000000
      2061       687  TIP3  H2            3.1066988648       11.4902098315       -5.3573399391  CLST         687          1.0000000000
      2062       688  TIP3  OH2          -4.8701688293       -1.3131131649      -10.2985246829  CLST         688          1.0000000000
      2063       688  TIP3  H1           -4.5420623249       -0.5932019936       -9.5247449328  CLST         688          1.0000000000
      2064       688  TIP3  H2           -3.9825312200       -0.5743251665      -10.3042453686  CLST         688          1.0000000000
      2065       689  TIP3  OH2         -11.4751757306       -2.4945914817       -7.2843385035  CLST         689          1.0000000000
      2066       689  TIP3  H1          -12.1700316619       -2.2160903842       -6.6140809535  CLST         689          1.0000000000
      2067       689  TIP3  H2          -12.1698148962       -2.1725727929       -7.9803246617  CLST         689          1.0000000000
      2068       690  TIP3  OH2           9.0372863717      -12.3329811310        3.9986540095  CLST         690          1.0000000000
      2069       690  TIP3  H1            9.5085077844      -12.1467381802        4.8801325902  CLST         690          1.0000000000
      2070       690  TIP3  H2            9.4381353087      -11.4649240041        3.8044778420  CLST         690          1.0000000000
      2071       691  TIP3  OH2          -0.4485125385       10.1250294497       13.5418189406  CLST         691          1.0000000000
      2072       691  TIP3  H1           -0.3349935755       10.9324442896       13.1441395435  CLST         691          1.0000000000
      2073       691  TIP3  H2            0.1576897446       10.3506717077       14.2658057752  CLST         691          1.0000000000
      2074       692  TIP3  OH2           1.1265481503       -6.8750106609        8.6187303659  CLST         692          1.0000000000
      2075       692  TIP3  H1            0.1314951439       -6.8714907619        8.6387073025  CLST         692          1.0000000000
      2076       692  TIP3  H2            0.9992838188       -6.0211589987        9.0948086144  CLST         692          1.0000000000
      2077       693  TIP3  OH2          -9.2605587084       -4.2086997563       -2.6702298505  CLST         693          1.0000000000
      2078       693  TIP3  H1           -8.5154399867       -4.3143114719       -2.0624363170  CLST         693          1.0000000000
      2079       693  TIP3  H2           -8.8046182856       -3.6700117374       -3.3249998355  CLST         693          1.0000000000
      2080       694  TIP3  OH2          -1.6212002905       11.6712151514        5.9787361362  CLST         694          1.0000000000
      2081       694  TIP3  H1           -2.3040044070       12.4447225934        5.8637792718  CLST         694          1.0000000000
      2082       694  TIP3  H2           -1.1313884572       12.3628325423        5.4455661458  CLST         694          1.0000000000
      2083       695  TIP3  OH2           1.8082521203       10.4543860444        7.9617863883  CLST         695          1.0000000000
      2084       695  TIP3  H1            1.4858300238       10.2572997446        7.0468235122  CLST         695          1.0000000000
      2085       695  TIP3  H2            0.9786626258        9.9154045961        8.1959369594  CLST         695          1.0000000000
      2086       696  TIP3  OH2          -4.1075126663        3.0007681454       -6.1988129574  CLST         696          1.0000000000
      2087       696  TIP3  H1           -3.4421681919        3.4523992397       -6.7604112534  CLST         696          1.0000000000
      2088       696  TIP3  H2           -4.0307551735        3.8526574196       -5.7806123910  CLST         696          1.0000000000
      2089       697  TIP3  OH2           2.7099393027        5.5830755715       11.8860751514  CLST         697          1.0000000000
      2090       697  TIP3  H1            2.1366577021        5.8287957816       11.2103972351  CLST         697          1.0000000000
      2091       697  TIP3  H2            3.3451397402        5.1361710498       11.4739734680  CLST         697          1.0000000000
      2092       698  TIP3  OH2          -3.5633119989        4.9591641992       -1.0781703973  CLST         698          1.0000000000
      2093       698  TIP3  H1           -3.7408049920        4.3040209468       -1.9403896176  CLST         698          1.0000000000
      2094       698  TIP3  H2           -4.5329074005        4.6925219376       -1.6510782405  CLST         698          1.0000000000
      2095       699  TIP3  OH2          -1.4146387862       -4.5801468041        3.6409153613  CLST         699          1.0000000000
      2096       699  TIP3  H1           -1.9411878455       -3.8357503893        3.7788982856  CLST         699          1.0000000000
      2097       699  TIP3  H2           -0.9717612349       -4.5208947102        2.7516031858  CLST         699          1.0000000000
      2098       700  TIP3  OH2          -5.2719510184       -8.1155051233        8.8602312513  CLST         700          1.0000000000
      2099       700  TIP3  H1           -5.1375832801       -7.4113187620        8.1918837833  CLST         700          1.0000000000
      2100       700  TIP3  H2           -4.4726920567       -8.5759695193        8.5115882851  CLST         700          1.0000000000
      2101       701  TIP3  OH2         -13.7560203645       10.5724259946        0.3735170687  CLST         701          1.0000000000
      2102       701  TIP3  H1          -13.6185642083        9.7156842827       -0.1704853573  CLST         701          1.0000000000
      2103       701  TIP3  H2          -14.6663303420       10.6019397430        0.0760486790  CLST         701          1.0000000000
      2104       702  TIP3  OH2          -5.4287381911       -9.6089308485      -12.6556036167  CLST         702          1.0000000000
      2105       702  TIP3  H1           -5.4286838045       -9.5515348809      -11.6657828042  CLST         702          1.0000000000
      2106       702  TIP3  H2           -6.4156626030       -9.4016167918      -12.6123354205  CLST         702          1.0000000000
      2107       703  TIP3  OH2           3.4243124441        6.2223146477       -4.1373482360  CLST         703          1.0000000000
      2108       703  TIP3  H1            2.5644204035        6.4864482824       -3.4489304581  CLST         703          1.0000000000
      2109       703  TIP3  H2            3.1527299385        7.0230546757       -3.9597580492  CLST         703          1.0000000000
      2110       704  TIP3  OH2          -9.8931364338        4.9681472960       11.4759950994  CLST         704          1.0000000000
      2111       704  TIP3  H1           -9.9795196055        5.7007448334       12.0864711850  CLST         704          1.0000000000
      2112       704  TIP3  H2           -9.7972860222        5.6141387268       10.7972229451  CLST         704          1.0000000000
      2113       705  TIP3  OH2          -0.9897036691       -8.8897734160       -7.2066667264  CLST         705          1.0000000000
      2114       705  TIP3  H1           -0.7760262964       -9.6626373182       -7.7206922068  CLST         705          1.0000000000
      2115       705  TIP3  H2           -0.8016608121       -8.4519692575       -8.0118213502  CLST         705          1.0000000000
      2116       706  TIP3  OH2          -1.9551335944       -1.6614664165        4.2906249750  CLST         706          1.0000000000
      2117       706  TIP3  H1           -2.0152059739       -0.6896236465        4.4708053504  CLST         706          1.0000000000
      2118       706  TIP3  H2           -1.0477377011       -1.4811792717        4.5963038622  CLST         706          1.0000000000
      2119       707  TIP3  OH2           8.7971810367       10.8267323199        7.3070967769  CLST         707          1.0000000000
      2120       707  TIP3  H1            8.4130327829       11.3339823163        6.3112736299  CLST         707          1.0000000000
      2121       707  TIP3  H2            7.8790012371       10.6236302690        6.7329746186  CLST         707          1.0000000000
      2122       708  TIP3  OH2          -0.7289250366       -7.7737533130      -12.3850088011  CLST         708          1.0000000000
      2123       708  TIP3  H1           -1.7384923960       -7.7911563821      -12.3116826291  CLST         708          1.0000000000
      2124       708  TIP3  H2           -1.0390577443       -7.3630528393      -13.2478393130  CLST         708          1.0000000000
      2125       709  TIP3  OH2          -6.3959646068       14.3238130574        0.3560413630  CLST         709          1.0000000000
      2126       709  TIP3  H1           -5.4361375450       14.4009606986        0.5576317243  CLST         709          1.0000000000
      2127       709  TIP3  H2           -6.4924024917       14.2641637580        1.3011056775  CLST         709          1.0000000000
      2128       710  TIP3  OH2          -0.8497416881       14.1190657772      -10.8295901631  CLST         710          1.0000000000
      2129       710  TIP3  H1           -0.5688000605       13.3779151583      -11.4128395542  CLST         710          1.0000000000
      2130       710  TIP3  H2           -1.5874343152       13.4900544676      -10.7683604922  CLST         710          1.0000000000
      2131       711  TIP3  OH2          11.5808666810      -10.8379883155      -10.8345745359  CLST         711          1.0000000000
      2132       711  TIP3  H1           11.5748501026      -11.6028050200      -11.5223987487  CLST         711          1.0000000000
      2133       711  TIP3  H2           11.8739584337      -10.1667627778      -11.3075107812  CLST         711          1.0000000000
      2134       712  TIP3  OH2          -3.8132980886      -10.8216412618       11.3181817226  CLST         712          1.0000000000
      2135       712  TIP3  H1           -4.5317071848      -10.3032911282       10.9449582115  CLST         712          1.0000000000
      2136       712  TIP3  H2           -2.9838519877      -10.5035543845       11.1020255008  CLST         712          1.0000000000
      2137       713  TIP3  OH2           6.9886723911        0.1724025227        6.4468824168  CLST         713          1.0000000000
      2138       713  TIP3  H1            7.6585244176        0.2357086825        7.1792384008  CLST         713          1.0000000000
      2139       713  TIP3  H2            7.4939736747       -0.6614958538        6.3401722486  CLST         713          1.0000000000
      2140       714  TIP3  OH2           4.9368112410       12.2748745958        4.7244142418  CLST         714          1.0000000000
      2141       714  TIP3  H1            4.4206971850       12.8666890771        4.0852024776  CLST         714          1.0000000000
      2142       714  TIP3  H2            4.4301692936       12.9248193232        5.2752497502  CLST         714          1.0000000000
      2143       715  TIP3  OH2          -9.3664747494       -9.6484942668        1.4378106531  CLST         715          1.0000000000
      2144       715  TIP3  H1           -9.9570079659       -8.8815963839        1.4342756474  CLST         715          1.0000000000
      2145       715  TIP3  H2           -9.9641400550      -10.1256236139        2.0946066331  CLST         715          1.0000000000
      2146       716  TIP3  OH2         -13.7038574495      -13.1436165303       -0.0371273122  CLST         716          1.0000000000
      2147       716  TIP3  H1          -13.9678830853      -13.3191479364       -0.9744859027  CLST         716          1.0000000000
      2148       716  TIP3  H2          -13.4716403836      -12.3511673047       -0.5108755975  CLST         716          1.0000000000
      2149       717  TIP3  OH2          -6.4288945557      -12.3855171384        2.4130838470  CLST         717          1.0000000000
      2150       717  TIP3  H1           -6.4052466978      -11.6067236348        1.8555535745  CLST         717          1.0000000000
      2151       717  TIP3  H2           -7.3339234155      -12.4120033552        2.0222129670  CLST         717          1.0000000000
      2152       718  TIP3  OH2         -10.8368414527        7.0554538467       13.1290552985  CLST         718          1.0000000000
      2153       718  TIP3  H1          -11.4923712712        7.7993529303       13.5429474047  CLST         718          1.0000000000
      2154       718  TIP3  H2          -10.1287106007        7.7099171995       13.3311356772  CLST         718          1.0000000000
      2155       719  TIP3  OH2          10.3604119974       -7.2846545985        2.9122574136  CLST         719          1.0000000000
      2156       719  TIP3  H1           11.3236860997       -7.1670811817        3.1277663388  CLST         719          1.0000000000
      2157       719  TIP3  H2           10.6380980347       -7.3257449654        1.9868156250  CLST         719          1.0000000000
      2158       720  TIP3  OH2          -5.1209214785       13.0047651371       -8.8002296153  CLST         720          1.0000000000
      2159       720  TIP3  H1           -4.1634279357       13.0965196874       -8.7261791747  CLST         720          1.0000000000
      2160       720  TIP3  H2           -5.1708000096       13.5181158266       -7.9583263077  CLST         720          1.0000000000
      2161       721  TIP3  OH2           4.2371309065       -5.9341263417       -9.7816756880  CLST         721          1.0000000000
      2162       721  TIP3  H1            3.8304899573       -5.6264352648       -8.9764744510  CLST         721          1.0000000000
      2163       721  TIP3  H2            4.9004772285       -6.4305384520       -9.3175322253  CLST         721          1.0000000000
      2164       722  TIP3  OH2          10.2938431844       -2.5576827436        1.8747233042  CLST         722          1.0000000000
      2165       722  TIP3  H1            9.8102848114       -3.1627963801        1.3427550290  CLST         722          1.0000000000
      2166       722  TIP3  H2           11.1849967956       -2.7814857669        1.5313083140  CLST         722          1.0000000000
      2167       723  TIP3  OH2           0.2077566813       13.4490413602        5.7384476167  CLST         723          1.0000000000
      2168       723  TIP3  H1            1.1013346914       14.1974308270        5.5378807020  CLST         723          1.0000000000
      2169       723  TIP3  H2            1.2057259977       13.2169536851        5.5667545712  CLST         723          1.0000000000
      2170       724  TIP3  OH2           8.2124484108       -8.3808526145       -3.9224668961  CLST         724          1.0000000000
      2171       724  TIP3  H1            8.0953861993       -8.9231946863       -4.7114609666  CLST         724          1.0000000000
      2172       724  TIP3  H2            8.4230080117       -7.9411469088       -5.0364378201  CLST         724          1.0000000000
      2173       725  TIP3  OH2          -0.8117362945       -0.2679207023        2.1102177753  CLST         725          1.0000000000
      2174       725  TIP3  H1           -1.5591488244       -0.9109671320        2.1434037830  CLST         725          1.0000000000
      2175       725  TIP3  H2           -1.4324614026        0.2730321842        1.5616676054  CLST         725          1.0000000000
      2176       726  TIP3  OH2         -14.0759215944       10.4826824924        5.9257746771  CLST         726          1.0000000000
      2177       726  TIP3  H1          -14.9391371020       10.5474129958        5.5120606225  CLST         726          1.0000000000
      2178       726  TIP3  H2          -13.8591839569       11.4837642165        5.7727397305  CLST         726          1.0000000000
      2179       727  TIP3  OH2          -4.4643170704      -13.5392285940       -0.1881492956  CLST         727          1.0000000000
      2180       727  TIP3  H1           -3.5936029736      -13.1561821837       -0.3581139796  CLST         727          1.0000000000
      2181       727  TIP3  H2           -3.7567824901      -13.0491498598        0.6777138894  CLST         727          1.0000000000
      2182       728  TIP3  OH2          -8.4444451175        3.3293095021       -0.8962051844  CLST         728          1.0000000000
      2183       728  TIP3  H1           -7.8788572000        2.6070761666       -0.5059494255  CLST         728          1.0000000000
      2184       728  TIP3  H2           -9.2172048441        2.7581537526       -0.6414605513  CLST         728          1.0000000000
      2185       729  TIP3  OH2          10.3195523456      -10.3860894693        2.7123191846  CLST         729          1.0000000000
      2186       729  TIP3  H1           10.7042252231       -9.5330330121        2.6877317281  CLST         729          1.0000000000
      2187       729  TIP3  H2           11.2088262069      -10.7643676547        2.5747313862  CLST         729          1.0000000000
      2188       730  TIP3  OH2          -4.3333611446       11.2011731482       -5.3098957869  CLST         730          1.0000000000
      2189       730  TIP3  H1           -4.4713352316       10.2695517572       -5.4352956604  CLST         730          1.0000000000
      2190       730  TIP3  H2           -5.2303701482       11.3058861459       -5.4034814044  CLST         730          1.0000000000
      2191       731  TIP3  OH2          13.1516403122       12.6778368949       -4.4657602278  CLST         731          1.0000000000
      2192       731  TIP3  H1           13.3811617146       13.0188590295       -5.3668092253  CLST         731          1.0000000000
      2193       731  TIP3  H2           12.6814221521       12.0046207703       -5.0108626135  CLST         731          1.0000000000
      2194       732  TIP3  OH2          -2.7088624467       -1.2022633066       -1.8922414911  CLST         732          1.0000000000
      2195       732  TIP3  H1           -3.6280649864       -1.1316929834       -1.2933990442  CLST         732          1.0000000000
      2196       732  TIP3  H2           -3.7550000701       -1.0313671370       -2.2603552191  CLST         732          1.0000000000
      2197       733  TIP3  OH2           5.6337375450        2.0658209879       12.8761964020  CLST         733          1.0000000000
      2198       733  TIP3  H1            5.2265521572        1.2366033048       12.5286037607  CLST         733          1.0000000000
      2199       733  TIP3  H2            4.7372535734        2.0960094963       13.2264941439  CLST         733          1.0000000000
      2200       734  TIP3  OH2           8.3157479635       -2.3077337404        5.8662025156  CLST         734          1.0000000000
      2201       734  TIP3  H1            8.3449363721       -3.0193086496        5.1810455690  CLST         734          1.0000000000
      2202       734  TIP3  H2            9.3469359904       -2.3870092845        5.8556791990  CLST         734          1.0000000000
      2203       735  TIP3  OH2         -10.8622362131      -12.6375582820        0.7759755402  CLST         735          1.0000000000
      2204       735  TIP3  H1          -10.9507113881      -12.0483619032        1.5896689362  CLST         735          1.0000000000
      2205       735  TIP3  H2          -11.7734843496      -12.8034456672        0.7538186543  CLST         735          1.0000000000
      2206       736  TIP3  OH2          13.5585817089        2.3062433158        2.8839674229  CLST         736          1.0000000000
      2207       736  TIP3  H1           13.9534760868        2.2688282426        1.9488167947  CLST         736          1.0000000000
      2208       736  TIP3  H2           12.9311583043        1.7085864644        2.3417759486  CLST         736          1.0000000000
      2209       737  TIP3  OH2          11.3818934838       -1.9509030277        7.8263334346  CLST         737          1.0000000000
      2210       737  TIP3  H1           11.0644155284       -1.9872951495        6.9483362458  CLST         737          1.0000000000
      2211       737  TIP3  H2           11.4885344512       -0.9861896802        7.7165622576  CLST         737          1.0000000000
      2212       738  TIP3  OH2          10.5713298690        1.2431927116       14.3665776593  CLST         738          1.0000000000
      2213       738  TIP3  H1            9.7680355456        0.7527771528       14.2145106864  CLST         738          1.0000000000
      2214       738  TIP3  H2           10.8492258122        0.4436786995       14.8540565972  CLST         738          1.0000000000
      2215       739  TIP3  OH2         -13.1940311131        1.3527944887       10.3105153543  CLST         739          1.0000000000
      2216       739  TIP3  H1          -14.0642184902        1.4466202503       10.7635572134  CLST         739          1.0000000000
      2217       739  TIP3  H2          -13.7686154273        0.8468447671        9.6891057501  CLST         739          1.0000000000
      2218       740  TIP3  OH2           6.2585890953      -14.3016573563       -5.3033543788  CLST         740          1.0000000000
      2219       740  TIP3  H1            5.5303999898      -14.8544955458       -5.5758445126  CLST         740          1.0000000000
      2220       740  TIP3  H2            6.8633101820      -14.8691870471       -5.6835217335  CLST         740          1.0000000000
      2221       741  TIP3  OH2          11.7142322849        5.0662448741        9.3921344446  CLST         741          1.0000000000
      2222       741  TIP3  H1           12.5011455253        4.6804191461        9.7993550449  CLST         741          1.0000000000
      2223       741  TIP3  H2           11.6399861140        4.3492503948        8.8198610912  CLST         741          1.0000000000
      2224       742  TIP3  OH2           8.1326047479       -9.5336135859       -6.3822156859  CLST         742          1.0000000000
      2225       742  TIP3  H1            8.2273742846      -10.4960670593       -6.4478063590  CLST         742          1.0000000000
      2226       742  TIP3  H2            7.8001615965       -9.5995083814       -7.2593217517  CLST         742          1.0000000000
      2227       743  TIP3  OH2          -7.4678221360       -0.1769263331      -10.9543640214  CLST         743          1.0000000000
      2228       743  TIP3  H1           -6.5789552689        0.4790918372      -10.4876079607  CLST         743          1.0000000000
      2229       743  TIP3  H2           -6.7577425236       -0.4719473239      -10.3808982946  CLST         743          1.0000000000
      2230       744  TIP3  OH2          -6.0212340813        3.6512381578        5.1259505290  CLST         744          1.0000000000
      2231       744  TIP3  H1           -5.1975533201        3.3558561192        5.6838941599  CLST         744          1.0000000000
      2232       744  TIP3  H2           -6.0341567627        4.5336560462        5.5569007682  CLST         744          1.0000000000
      2233       745  TIP3  OH2           0.2342584054       -8.3640535979        6.8576329453  CLST         745          1.0000000000
      2234       745  TIP3  H1            0.6383358528       -9.2388373777        6.7080650308  CLST         745          1.0000000000
      2235       745  TIP3  H2            0.9835526890       -8.1364138371        7.3717034899  CLST         745          1.0000000000
      2236       746  TIP3  OH2          -7.7264625787       -4.4414447827       -5.9863905883  CLST         746          1.0000000000
      2237       746  TIP3  H1           -7.7314147755       -5.1995090344       -6.5848966844  CLST         746          1.0000000000
      2238       746  TIP3  H2           -8.1913302683       -3.8431184010       -6.5627862490  CLST         746          1.0000000000
      2239       747  TIP3  OH2          11.3979233612       11.8703801859        2.2272536614  CLST         747          1.0000000000
      2240       747  TIP3  H1           11.0224566295       12.1779809219        3.0647997376  CLST         747          1.0000000000
      2241       747  TIP3  H2           11.6309799867       11.1260349048        2.7643731019  CLST         747          1.0000000000
      2242       748  TIP3  OH2           3.4709800501        4.9623739923        8.5450922457  CLST         748          1.0000000000
      2243       748  TIP3  H1            3.9050170053        5.0092511597        9.4705222751  CLST         748          1.0000000000
      2244       748  TIP3  H2            3.3589068040        5.9105619276        8.7284764713  CLST         748          1.0000000000
      2245       749  TIP3  OH2          10.9989927693        9.2304291258        6.4709459182  CLST         749          1.0000000000
      2246       749  TIP3  H1           10.7736907536        8.6342957284        7.4482860708  CLST         749          1.0000000000
      2247       749  TIP3  H2           10.3849846658        9.5975392215        7.1193861678  CLST         749          1.0000000000
      2248       750  TIP3  OH2         -14.0337109351       12.2837214547       -7.8817212696  CLST         750          1.0000000000
      2249       750  TIP3  H1          -14.9391371020       11.9463300745       -7.9858347741  CLST         750          1.0000000000
      2250       750  TIP3  H2          -13.9967162339       11.8443387710       -8.7681615303  CLST         750          1.0000000000
      2251       751  TIP3  OH2           8.6787562491        4.4221301341       -4.2851314842  CLST         751          1.0000000000
      2252       751  TIP3  H1            7.9069585135        3.8792879190       -4.4511163390  CLST         751          1.0000000000
      2253       751  TIP3  H2            9.2543030636        3.8589183256       -3.7695452183  CLST         751          1.0000000000
      2254       752  TIP3  OH2         -12.1638388019       13.1632410429        2.3169488539  CLST         752          1.0000000000
      2255       752  TIP3  H1          -12.5443924165       13.4378132634        1.4965509960  CLST         752          1.0000000000
      2256       752  TIP3  H2          -12.2426123013       12.2313227993        1.9049728986  CLST         752          1.0000000000
      2257       753  TIP3  OH2           9.0102988937        2.4262598170       -6.8262863624  CLST         753          1.0000000000
      2258       753  TIP3  H1            8.4993500186        3.1741035366       -7.2510760971  CLST         753          1.0000000000
      2259       753  TIP3  H2            8.2108461521        2.4016519808       -6.2108524894  CLST         753          1.0000000000
      2260       754  TIP3  OH2          11.5954443939        2.3362960034       -6.2370184525  CLST         754          1.0000000000
      2261       754  TIP3  H1           11.1091078328        2.4909032665       -5.3640406678  CLST         754          1.0000000000
      2262       754  TIP3  H2           10.7890113033        2.6920376556       -6.6515081058  CLST         754          1.0000000000
      2263       755  TIP3  OH2           7.5482880869       -1.7225380696       -0.4926503880  CLST         755          1.0000000000
      2264       755  TIP3  H1            6.8741875853       -2.0313190481        0.1618769943  CLST         755          1.0000000000
      2265       755  TIP3  H2            7.0651259980       -0.8506197537       -0.4083561351  CLST         755          1.0000000000
      2266       756  TIP3  OH2         -12.9589716204        6.5705798377        6.0448637193  CLST         756          1.0000000000
      2267       756  TIP3  H1          -13.0437819182        5.6569951270        6.4639456829  CLST         756          1.0000000000
      2268       756  TIP3  H2          -12.4056631799        6.6526226894        6.9171445472  CLST         756          1.0000000000
      2269       757  TIP3  OH2          -4.5810273331       -4.8439409643       -2.1892531928  CLST         757          1.0000000000
      2270       757  TIP3  H1           -3.9465343671       -4.9781744144       -2.8770913914  CLST         757          1.0000000000
      2271       757  TIP3  H2           -5.0156559676       -4.2106614639       -2.8163518536  CLST         757          1.0000000000
      2272       758  TIP3  OH2          12.1975515366        4.1991445815       -0.7795551271  CLST         758          1.0000000000
      2273       758  TIP3  H1           12.5242192457        4.4658487643       -0.0520500487  CLST         758          1.0000000000
      2274       758  TIP3  H2           12.9047367472        3.5187347026       -0.1520796194  CLST         758          1.0000000000
      2275       759  TIP3  OH2          -7.5288325315       11.5356732957      -11.3496919523  CLST         759          1.0000000000
      2276       759  TIP3  H1           -6.7240093823       11.7691529500      -11.7784032911  CLST         759          1.0000000000
      2277       759  TIP3  H2           -6.8456329510       11.4070202778      -10.6660443721  CLST         759          1.0000000000
      2278       760  TIP3  OH2           7.9639623306       14.3014641318       -6.1896229635  CLST         760          1.0000000000
      2279       760  TIP3  H1            8.0501580829       13.8963734370       -7.0778286337  CLST         760          1.0000000000
      2280       760  TIP3  H2            7.8131262714       13.4265010008       -5.8108394926  CLST         760          1.0000000000
      2281       761  TIP3  OH2          -6.9489647034        7.8344138827      -11.7036581181  CLST         761          1.0000000000
      2282       761  TIP3  H1           -7.6998294605        7.7674165180      -12.2900239037  CLST         761          1.0000000000
      2283       761  TIP3  H2           -7.6823628237        8.1075278914      -11.0850611460  CLST         761          1.0000000000
      2284       762  TIP3  OH2           7.8322482399       -6.0681723148      -13.0655451242  CLST         762          1.0000000000
      2285       762  TIP3  H1            7.1246912277       -6.6032254802      -12.6829773777  CLST         762          1.0000000000
      2286       762  TIP3  H2            7.5359289377       -5.2508091286      -12.6266259302  CLST         762          1.0000000000
      2287       763  TIP3  OH2          -1.4985447798       -6.0842665422        9.0942854468  CLST         763          1.0000000000
      2288       763  TIP3  H1           -1.7748375361       -5.2293589138        8.8515418700  CLST         763          1.0000000000
      2289       763  TIP3  H2           -1.9937119121       -5.9661067743        9.9069482869  CLST         763          1.0000000000
      2290       764  TIP3  OH2           8.7105376337      -11.3609069356        0.8354544446  CLST         764          1.0000000000
      2291       764  TIP3  H1            8.0408307804      -10.6955652064        0.7436997386  CLST         764          1.0000000000
      2292       764  TIP3  H2            9.2506458987      -10.9895067062        1.4792518484  CLST         764          1.0000000000
      2293       765  TIP3  OH2         -14.1500580914      -12.1477325863       13.0351843672  CLST         765          1.0000000000
      2294       765  TIP3  H1          -13.4658496103      -11.6288766740       13.3980833095  CLST         765          1.0000000000
      2295       765  TIP3  H2          -14.9391371020      -11.7930079946       13.4000235712  CLST         765          1.0000000000
      2296       766  TIP3  OH2          11.8203050004       -8.2616108070      -11.8999178927  CLST         766          1.0000000000
      2297       766  TIP3  H1           11.3733979006       -7.8642515842      -12.6525567954  CLST         766          1.0000000000
      2298       766  TIP3  H2           10.9168193302       -8.6014005789      -11.8616490178  CLST         766          1.0000000000
      2299       767  TIP3  OH2           2.3942087446       12.6252282335      -12.6787935448  CLST         767          1.0000000000
      2300       767  TIP3  H1            2.4421472328       12.2210216592      -11.8046461971  CLST         767          1.0000000000
      2301       767  TIP3  H2            2.0301429467       13.4056007587      -12.2135767046  CLST         767          1.0000000000
      2302       768  TIP3  OH2           7.5567920693        7.1906317169        8.1148470954  CLST         768          1.0000000000
      2303       768  TIP3  H1            8.4850621828        6.6626981897        8.4545876051  CLST         768          1.0000000000
      2304       768  TIP3  H2            7.7275292251        6.1313752192        8.0348210303  CLST         768          1.0000000000
      2305       769  TIP3  OH2         -12.0706737262        3.1396249516        1.0489988899  CLST         769          1.0000000000
      2306       769  TIP3  H1          -11.6130726554        2.8114873491        1.8341562120  CLST         769          1.0000000000
      2307       769  TIP3  H2          -12.6522204312        2.9083931191        2.0797315043  CLST         769          1.0000000000
      2308       770  TIP3  OH2           9.7937433735       -4.5443118247       11.2938194324  CLST         770          1.0000000000
      2309       770  TIP3  H1            9.6629139511       -3.6818931298       10.7908474398  CLST         770          1.0000000000
      2310       770  TIP3  H2           10.5502548180       -4.5891478749       10.7626402623  CLST         770          1.0000000000
      2311       771  TIP3  OH2         -10.5269672582        1.2733045046       -5.7979026365  CLST         771          1.0000000000
      2312       771  TIP3  H1           -9.4216558110        1.4743793041       -5.6471656897  CLST         771          1.0000000000
      2313       771  TIP3  H2          -10.0624427309        1.6818830578       -4.8598496633  CLST         771          1.0000000000
      2314       772  TIP3  OH2          13.0248255357      -12.5502000219       -6.6473503163  CLST         772          1.0000000000
      2315       772  TIP3  H1           12.9553852070      -11.5877986503       -6.6896873923  CLST         772          1.0000000000
      2316       772  TIP3  H2           12.5002946597      -12.4521768824       -5.8263686761  CLST         772          1.0000000000
      2317       773  TIP3  OH2          12.0442781690       -4.8414158020        3.6501654562  CLST         773          1.0000000000
      2318       773  TIP3  H1           11.8979172258       -4.0463417678        4.1866510127  CLST         773          1.0000000000
      2319       773  TIP3  H2           12.2529957663       -4.6376379904        2.7679972233  CLST         773          1.0000000000
      2320       774  TIP3  OH2          -7.9618897443       -0.3049984161       -5.9405230729  CLST         774          1.0000000000
      2321       774  TIP3  H1           -7.0683419865       -0.3860691506       -6.0445673512  CLST         774          1.0000000000
      2322       774  TIP3  H2           -7.2343838704        0.5636245207       -5.6073868902  CLST         774          1.0000000000
      2323       775  TIP3  OH2           2.6944597687        1.6254582962        5.6835234189  CLST         775          1.0000000000
      2324       775  TIP3  H1            2.7483700721        1.3700144913        6.6002244254  CLST         775          1.0000000000
      2325       775  TIP3  H2            2.8049898454        2.4981564210        5.9655169762  CLST         775          1.0000000000
      2326       776  TIP3  OH2           0.2393458924        9.6751080024        5.9617234104  CLST         776          1.0000000000
      2327       776  TIP3  H1           -0.4979599217       10.3063380211        6.1231240105  CLST         776          1.0000000000
      2328       776  TIP3  H2           -0.4671191878        8.9898897218        6.1104180444  CLST         776          1.0000000000
      2329       777  TIP3  OH2         -13.0611376894      -10.3235765329       -0.0763611598  CLST         777          1.0000000000
      2330       777  TIP3  H1          -12.5677938448       -9.4843879883       -0.0706489034  CLST         777          1.0000000000
      2331       777  TIP3  H2          -13.0747182601      -10.3387803396        0.8890126766  CLST         777          1.0000000000
      2332       778  TIP3  OH2         -11.3640453041        5.9621960522       -0.5939720444  CLST         778          1.0000000000
      2333       778  TIP3  H1          -11.5454920497        5.5397578116        0.2669030808  CLST         778          1.0000000000
      2334       778  TIP3  H2          -11.0596170050        5.2098514830       -0.5222587720  CLST         778          1.0000000000
      2335       779  TIP3  OH2          -6.2142451107        5.2626522595       -1.8207247309  CLST         779          1.0000000000
      2336       779  TIP3  H1           -7.1676617123        5.1274755814       -1.5697208272  CLST         779          1.0000000000
      2337       779  TIP3  H2           -6.4870698787        6.0203087885       -1.3645990056  CLST         779          1.0000000000
      2338       780  TIP3  OH2           2.3765239723       14.1409996935       -8.8278984464  CLST         780          1.0000000000
      2339       780  TIP3  H1            1.8288419242       14.8277123730       -9.2829262112  CLST         780          1.0000000000
      2340       780  TIP3  H2            2.5440405098       14.5072046785       -9.9334060061  CLST         780          1.0000000000
      2341       781  TIP3  OH2           8.7800300504       -8.7085715302       -9.5619387944  CLST         781          1.0000000000
      2342       781  TIP3  H1            9.8583893432       -8.8615349179       -9.5344550966  CLST         781          1.0000000000
      2343       781  TIP3  H2            9.4594441015       -9.6802813844       -9.2182891194  CLST         781          1.0000000000
      2344       782  TIP3  OH2           0.2631082620        2.4689107629        4.4485793802  CLST         782          1.0000000000
      2345       782  TIP3  H1           -0.3571776448        1.6370011786        4.3770303182  CLST         782          1.0000000000
      2346       782  TIP3  H2            0.6470688304        1.8104628762        5.0608546009  CLST         782          1.0000000000
      2347       783  TIP3  OH2          -7.3831334306      -12.6145859290      -13.4853379424  CLST         783          1.0000000000
      2348       783  TIP3  H1           -8.1498043533      -12.2361433287      -12.9476603992  CLST         783          1.0000000000
      2349       783  TIP3  H2           -8.0258541194      -12.4301335130      -14.2352571999  CLST         783          1.0000000000
      2350       784  TIP3  OH2          14.7675487497        5.1028161011       -4.0541033065  CLST         784          1.0000000000
      2351       784  TIP3  H1           14.7033356511        5.7416731107       -4.7574638639  CLST         784          1.0000000000
      2352       784  TIP3  H2           14.4709199186        5.5836967510       -3.3031767696  CLST         784          1.0000000000
      2353       785  TIP3  OH2          10.6659322910        7.9265521119        0.6602715828  CLST         785          1.0000000000
      2354       785  TIP3  H1           10.9950117985        8.8018084103        1.0513288884  CLST         785          1.0000000000
      2355       785  TIP3  H2           11.2754703313        8.2813500700       -0.0319886204  CLST         785          1.0000000000
      2356       786  TIP3  OH2          12.7926712151        3.7259932731       12.5546504509  CLST         786          1.0000000000
      2357       786  TIP3  H1           13.2111153292        4.4801236861       12.9457991834  CLST         786          1.0000000000
      2358       786  TIP3  H2           11.9378120899        3.6519200779       12.9671056332  CLST         786          1.0000000000
      2359       787  TIP3  OH2          -8.0545461191        0.2569128990       11.6810169339  CLST         787          1.0000000000
      2360       787  TIP3  H1           -8.8430127161        0.5921639497       11.2087118187  CLST         787          1.0000000000
      2361       787  TIP3  H2           -8.6998538874       -0.4279979196       11.8724863641  CLST         787          1.0000000000
      2362       788  TIP3  OH2           2.3348264536      -13.3585489221       11.0303890215  CLST         788          1.0000000000
      2363       788  TIP3  H1            2.6994421503      -13.5241466777       11.9220661849  CLST         788          1.0000000000
      2364       788  TIP3  H2            2.6668557412      -14.2498368063       10.8695861338  CLST         788          1.0000000000
      2365       789  TIP3  OH2          -6.8756990468        0.9976060764       -3.2922397641  CLST         789          1.0000000000
      2366       789  TIP3  H1           -7.4004187398        0.2581230109       -2.9216176862  CLST         789          1.0000000000
      2367       789  TIP3  H2           -6.1536817250        0.4379511352       -3.0565303636  CLST         789          1.0000000000
      2368       790  TIP3  OH2         -11.3058233312       -9.2168059162        5.2323733117  CLST         790          1.0000000000
      2369       790  TIP3  H1          -11.9911656112       -9.5927320187        5.7731071842  CLST         790          1.0000000000
      2370       790  TIP3  H2          -11.6633490221       -8.3018003378        5.3237212089  CLST         790          1.0000000000
      2371       791  TIP3  OH2          -4.8941340093       -5.9831414379      -10.8264760145  CLST         791          1.0000000000
      2372       791  TIP3  H1           -3.9746874973       -6.0279432845      -11.1588023844  CLST         791          1.0000000000
      2373       791  TIP3  H2           -4.9694758593       -5.2610249987      -11.4003491641  CLST         791          1.0000000000
      2374       792  TIP3  OH2           6.8691241370       -3.7994051458        9.6729599687  CLST         792          1.0000000000
      2375       792  TIP3  H1            7.1918823831       -4.3857238106        8.9278597368  CLST         792          1.0000000000
      2376       792  TIP3  H2            7.7462831650       -3.3141818018        9.4659160348  CLST         792          1.0000000000
      2377       793  TIP3  OH2          -3.0850823571       12.8441303961       -3.8972889094  CLST         793          1.0000000000
      2378       793  TIP3  H1           -3.4365439320       12.7842196558       -2.9862531270  CLST         793          1.0000000000
      2379       793  TIP3  H2           -3.3682633606       11.9412684816       -4.0585045084  CLST         793          1.0000000000
      2380       794  TIP3  OH2          -0.7629121578        2.9116042038       -6.4387756730  CLST         794          1.0000000000
      2381       794  TIP3  H1           -1.0743973929        2.3630703498       -7.2512954628  CLST         794          1.0000000000
      2382       794  TIP3  H2           -1.1673854763        3.6206190972       -7.0496839586  CLST         794          1.0000000000
      2383       795  TIP3  OH2          -2.0110858852       -9.6502667837        1.1324359172  CLST         795          1.0000000000
      2384       795  TIP3  H1           -2.5656483650      -10.2683675192        0.6101405720  CLST         795          1.0000000000
      2385       795  TIP3  H2           -1.7895396561      -10.3956889175        1.7716121963  CLST         795          1.0000000000
      2386       796  TIP3  OH2           2.9462788737        4.5847889025        4.8537284878  CLST         796          1.0000000000
      2387       796  TIP3  H1            3.2646039700        4.3134822751        3.9474379241  CLST         796          1.0000000000
      2388       796  TIP3  H2            3.7544304722        5.1178493874        4.7589524968  CLST         796          1.0000000000
      2389       797  TIP3  OH2         -11.6031925571        5.4545694581       -3.1448877787  CLST         797          1.0000000000
      2390       797  TIP3  H1          -12.1246825483        6.1342133981       -3.5538966137  CLST         797          1.0000000000
      2391       797  TIP3  H2          -11.1804796781        5.3573392403       -4.0025818554  CLST         797          1.0000000000
      2392       798  TIP3  OH2         -10.9713563534        9.8051560368       10.2024273340  CLST         798          1.0000000000
      2393       798  TIP3  H1          -11.5193715118       10.4310200440        9.7574983391  CLST         798          1.0000000000
      2394       798  TIP3  H2          -11.0557311992       10.4494086711       10.8964836794  CLST         798          1.0000000000
      2395       799  TIP3  OH2           4.1479434340       -1.8341757060      -12.5894252856  CLST         799          1.0000000000
      2396       799  TIP3  H1            5.0420211555       -1.3699219736      -12.7204464011  CLST         799          1.0000000000
      2397       799  TIP3  H2            4.2854708658       -2.4256102439      -13.2735154196  CLST         799          1.0000000000
      2398       800  TIP3  OH2         -10.1213129057        7.1689555257       10.0527867696  CLST         800          1.0000000000
      2399       800  TIP3  H1          -10.6142471405        7.9917866704       10.2033042410  CLST         800          1.0000000000
      2400       800  TIP3  H2           -9.3938118541        7.7884165442        9.8957905988  CLST         800          1.0000000000
      2401       801  TIP3  OH2           8.0118752904      -11.3487300286      -10.6950728541  CLST         801          1.0000000000
      2402       801  TIP3  H1            8.0830527704      -12.2189299634      -10.3720511449  CLST         801          1.0000000000
      2403       801  TIP3  H2            8.7407827821      -11.2608768168      -11.3025615093  CLST         801          1.0000000000
      2404       802  TIP3  OH2           5.4049100321       -0.2424509736       11.7046015371  CLST         802          1.0000000000
      2405       802  TIP3  H1            4.7330792675       -0.2319927746       10.9801819386  CLST         802          1.0000000000
      2406       802  TIP3  H2            6.2389826948       -0.4031975075       11.2618529433  CLST         802          1.0000000000
      2407       803  TIP3  OH2           6.6162159690       -9.7152735833        0.1470242771  CLST         803          1.0000000000
      2408       803  TIP3  H1            6.1954590044      -10.5883838391        0.0089465756  CLST         803          1.0000000000
      2409       803  TIP3  H2            6.0121362882       -9.6315493580        0.9379584403  CLST         803          1.0000000000
      2410       804  TIP3  OH2           5.3995021676        6.3535373348        1.9138841162  CLST         804          1.0000000000
      2411       804  TIP3  H1            4.8112360608        5.3201982223        1.9293904086  CLST         804          1.0000000000
      2412       804  TIP3  H2            5.6725608062        5.7114761621        1.4455472065  CLST         804          1.0000000000
      2413       805  TIP3  OH2           7.3955518497       -4.2431061501       14.1827264680  CLST         805          1.0000000000
      2414       805  TIP3  H1            7.6924020333       -4.3834020302       13.2740658089  CLST         805          1.0000000000
      2415       805  TIP3  H2            8.0590736429       -4.9140135431       14.4529732453  CLST         805          1.0000000000
      2416       806  TIP3  OH2           8.7719930631       10.2835427726       13.7600857477  CLST         806          1.0000000000
      2417       806  TIP3  H1            7.9569265186        9.8486435191       13.4838959039  CLST         806          1.0000000000
      2418       806  TIP3  H2            8.1695814651       11.1650183330       13.8681306125  CLST         806          1.0000000000
      2419       807  TIP3  OH2          -3.8950175789        8.3275259776        0.8857340545  CLST         807          1.0000000000
      2420       807  TIP3  H1           -3.8252149106        9.2904799754        1.1102574250  CLST         807          1.0000000000
      2421       807  TIP3  H2           -3.8846690848        8.3081772421        1.8400078474  CLST         807          1.0000000000
      2422       808  TIP3  OH2          -3.7406007376       13.9813295185        1.1858661245  CLST         808          1.0000000000
      2423       808  TIP3  H1           -2.9882386536       14.3364411992        1.5983581036  CLST         808          1.0000000000
      2424       808  TIP3  H2           -3.1877306547       14.0263065235        0.3832097482  CLST         808          1.0000000000
      2425       809  TIP3  OH2           1.8789060629       12.7342159808        9.4315003409  CLST         809          1.0000000000
      2426       809  TIP3  H1            1.6278073893       11.7813972712        9.0979885931  CLST         809          1.0000000000
      2427       809  TIP3  H2            1.0745779048       12.9249751072        8.8839978274  CLST         809          1.0000000000
      2428       810  TIP3  OH2          -2.0127054748        8.7522490413        8.8856370437  CLST         810          1.0000000000
      2429       810  TIP3  H1           -0.9963734865        8.3109772497        8.6917362810  CLST         810          1.0000000000
      2430       810  TIP3  H2           -1.2375760360        8.4981767492        9.6470102310  CLST         810          1.0000000000
      2431       811  TIP3  OH2          -3.8669813976      -12.3753047844       -9.2659538559  CLST         811          1.0000000000
      2432       811  TIP3  H1           -3.6929793832      -12.9783307131       -9.9704710285  CLST         811          1.0000000000
      2433       811  TIP3  H2           -4.4718122365      -11.6557785449       -9.5576824868  CLST         811          1.0000000000
      2434       812  TIP3  OH2          10.6338856442        4.2646970665      -13.8367106801  CLST         812          1.0000000000
      2435       812  TIP3  H1           11.3383130021        3.6538339671      -13.8063154624  CLST         812          1.0000000000
      2436       812  TIP3  H2           11.2749597977        4.7786671807      -14.3513196496  CLST         812          1.0000000000
      2437       813  TIP3  OH2          -2.2738187230        0.7131460807      -13.7568011260  CLST         813          1.0000000000
      2438       813  TIP3  H1           -2.5264365793        1.5971222219      -14.4145003431  CLST         813          1.0000000000
      2439       813  TIP3  H2           -3.1450033518        0.9032694974      -13.9703458011  CLST         813          1.0000000000
      2440       814  TIP3  OH2          -7.6481531123        8.3566564240       -8.6506219213  CLST         814          1.0000000000
      2441       814  TIP3  H1           -7.0843132064        9.1115515190       -8.5462865444  CLST         814          1.0000000000
      2442       814  TIP3  H2           -6.8784456931        7.8030120143       -8.4142154037  CLST         814          1.0000000000
      2443       815  TIP3  OH2          -5.3189543907        1.2200780942       -8.4638262767  CLST         815          1.0000000000
      2444       815  TIP3  H1           -5.4606081915        1.8875380465       -7.7421486692  CLST         815          1.0000000000
      2445       815  TIP3  H2           -5.8063233805        1.8372260946       -8.9471831740  CLST         815          1.0000000000
      2446       816  TIP3  OH2          -8.5239902193      -13.5817724780        1.6200571172  CLST         816          1.0000000000
      2447       816  TIP3  H1           -8.7225675890      -14.4800504525        1.6341069639  CLST         816          1.0000000000
      2448       816  TIP3  H2           -9.4185408108      -13.4795832800        1.3221361100  CLST         816          1.0000000000
      2449       817  TIP3  OH2           3.7045099983       14.2897531194       10.7718069220  CLST         817          1.0000000000
      2450       817  TIP3  H1            3.1103233071       13.7274788794       10.2253457932  CLST         817          1.0000000000
      2451       817  TIP3  H2            3.3990271448       14.0132743257       11.6467889707  CLST         817          1.0000000000
      2452       818  TIP3  OH2          11.5454517202       -3.2678945391       -5.8783532323  CLST         818          1.0000000000
      2453       818  TIP3  H1           11.4484124424       -2.6068302349       -5.1877915726  CLST         818          1.0000000000
      2454       818  TIP3  H2           10.6224567661       -2.9981232776       -6.0680594553  CLST         818          1.0000000000
      2455       819  TIP3  OH2           0.0852675174        0.3470822553      -10.6351207096  CLST         819          1.0000000000
      2456       819  TIP3  H1            0.5568853693       -0.4726880666      -11.2075987465  CLST         819          1.0000000000
      2457       819  TIP3  H2            1.1751921310        0.2319639983      -10.9335447325  CLST         819          1.0000000000
      2458       820  TIP3  OH2         -10.9876346920       -7.6889891983       14.4429559294  CLST         820          1.0000000000
      2459       820  TIP3  H1          -11.3609432691       -8.3815961538       14.9022663183  CLST         820          1.0000000000
      2460       820  TIP3  H2          -10.8209522524       -8.3114419899       13.6896201373  CLST         820          1.0000000000
      2461       821  TIP3  OH2          11.7839145938       -1.0834125891       14.8782298781  CLST         821          1.0000000000
      2462       821  TIP3  H1           12.2413158885       -1.4288542528       14.1139711903  CLST         821          1.0000000000
      2463       821  TIP3  H2           11.3099768825       -1.9094807398       14.8895243855  CLST         821          1.0000000000
      2464       822  TIP3  OH2          -6.8899823881       14.1455321252        9.4256444123  CLST         822          1.0000000000
      2465       822  TIP3  H1           -6.8705168527       13.9488565260        8.4814463088  CLST         822          1.0000000000
      2466       822  TIP3  H2           -7.0371101570       13.2028978962        9.4548916316  CLST         822          1.0000000000
      2467       823  TIP3  OH2          -9.2461580393       -1.4762031200        7.8354194770  CLST         823          1.0000000000
      2468       823  TIP3  H1           -9.4882931516       -2.3733126273        8.0777618553  CLST         823          1.0000000000
      2469       823  TIP3  H2           -8.2949966571       -1.6037236055        8.0530410908  CLST         823          1.0000000000
      2470       824  TIP3  OH2          10.8738597210        0.6173802262        7.1148306410  CLST         824          1.0000000000
      2471       824  TIP3  H1           10.5681916395        1.0224920902        6.1055806544  CLST         824          1.0000000000
      2472       824  TIP3  H2           10.9167487062        1.7177473459        6.8600034685  CLST         824          1.0000000000
      2473       825  TIP3  OH2          -4.8995603491      -11.9600554520      -14.0458711207  CLST         825          1.0000000000
      2474       825  TIP3  H1           -5.8429531405      -12.0799911166      -14.0144596754  CLST         825          1.0000000000
      2475       825  TIP3  H2           -5.0774155173      -11.2171728453      -13.4450177459  CLST         825          1.0000000000
      2476       826  TIP3  OH2           4.3932859841      -13.8693167018        2.3146705643  CLST         826          1.0000000000
      2477       826  TIP3  H1            4.3943626541      -14.9391371020        2.7996843981  CLST         826          1.0000000000
      2478       826  TIP3  H2            5.2870938728      -14.2846125426        2.2555480481  CLST         826          1.0000000000
      2479       827  TIP3  OH2         -10.2365133580        8.6656380570       -6.7381477059  CLST         827          1.0000000000
      2480       827  TIP3  H1           -9.3565159606        8.8487087866       -6.3751170790  CLST         827          1.0000000000
      2481       827  TIP3  H2          -10.0344030372        7.8136099351       -6.2505233554  CLST         827          1.0000000000
      2482       828  TIP3  OH2          -9.9309395413       -7.8636138280       10.9854449620  CLST         828          1.0000000000
      2483       828  TIP3  H1           -8.9795131721       -7.8627507180       11.2170195531  CLST         828          1.0000000000
      2484       828  TIP3  H2           -9.7508402229       -6.8772588847       10.8940389283  CLST         828          1.0000000000
      2485       829  TIP3  OH2           3.0667885092       13.4615334316        6.2066536605  CLST         829          1.0000000000
      2486       829  TIP3  H1            3.4513798610       13.2588866952        7.0845853812  CLST         829          1.0000000000
      2487       829  TIP3  H2            3.1840163051       14.3253494827        6.5312633590  CLST         829          1.0000000000
      2488       830  TIP3  OH2          14.3246600377        2.5716258910        9.2591621552  CLST         830          1.0000000000
      2489       830  TIP3  H1           14.6782108134        3.2092061344        9.8751532864  CLST         830          1.0000000000
      2490       830  TIP3  H2           14.9090230347        3.0988564110        8.6075162368  CLST         830          1.0000000000
      2491       831  TIP3  OH2           3.1724318622        2.2965822219        8.1095636714  CLST         831          1.0000000000
      2492       831  TIP3  H1            3.6311938808        3.3562772300        8.1693821220  CLST         831          1.0000000000
      2493       831  TIP3  H2            2.7258759153        3.2707178969        8.4670134050  CLST         831          1.0000000000
      2494       832  TIP3  OH2         -12.5460913111       -2.3226016381        0.9574047069  CLST         832          1.0000000000
      2495       832  TIP3  H1          -12.5283740711       -1.4004216394        0.7552298452  CLST         832          1.0000000000
      2496       832  TIP3  H2          -12.6282932854       -2.0779419395        1.8875132344  CLST         832          1.0000000000
      2497       833  TIP3  OH2           1.4272116515      -11.7319036489        5.7512990109  CLST         833          1.0000000000
      2498       833  TIP3  H1            2.1269495025      -11.2522542700        6.3732310186  CLST         833          1.0000000000
      2499       833  TIP3  H2            2.1565650907      -11.5392732143        5.1423441795  CLST         833          1.0000000000
      2500       834  TIP3  OH2           3.3649690419       -3.2928918081        4.0462268958  CLST         834          1.0000000000
      2501       834  TIP3  H1            3.0556406413       -2.3253038207        3.9436508577  CLST         834          1.0000000000
      2502       834  TIP3  H2            4.0157152301       -2.9258467119        4.6625463043  CLST         834          1.0000000000
      2503       835  TIP3  OH2           3.7320115215        2.7748625907       -0.0404822196  CLST         835          1.0000000000
      2504       835  TIP3  H1            3.8047571275        3.2837745026       -0.8285913334  CLST         835          1.0000000000
      2505       835  TIP3  H2            3.7899080296        2.0709796320       -0.6245985661  CLST         835          1.0000000000
      2506       836  TIP3  OH2           7.1820837143       -5.6513568379       -9.4495835536  CLST         836          1.0000000000
      2507       836  TIP3  H1            6.6245378280       -6.0843670022       -8.8293828341  CLST         836          1.0000000000
      2508       836  TIP3  H2            7.7867073848       -6.3938942549       -9.2125167175  CLST         836          1.0000000000
      2509       837  TIP3  OH2           3.2224954275        6.0144007924       -0.6157369711  CLST         837          1.0000000000
      2510       837  TIP3  H1            2.2577173930        5.6641437510       -0.6438647098  CLST         837          1.0000000000
      2511       837  TIP3  H2            2.7202156935        6.6144946891        0.0802809540  CLST         837          1.0000000000
      2512       838  TIP3  OH2          -1.6100068895      -13.4444664336      -11.0830745342  CLST         838          1.0000000000
      2513       838  TIP3  H1           -1.1725650858      -14.3364449152      -11.1419913769  CLST         838          1.0000000000
      2514       838  TIP3  H2           -2.3085824474      -14.0163936133      -11.5229120051  CLST         838          1.0000000000
      2515       839  TIP3  OH2           1.6374770675       -7.2326636305       -1.3106343020  CLST         839          1.0000000000
      2516       839  TIP3  H1            1.2715605610       -7.6975056184       -0.5175972126  CLST         839          1.0000000000
      2517       839  TIP3  H2            0.7243271095       -7.1329671711       -1.6736839787  CLST         839          1.0000000000
      2518       840  TIP3  OH2          -7.7640973471       11.8766492101       10.4662927055  CLST         840          1.0000000000
      2519       840  TIP3  H1           -7.8585142181       11.2701646085       11.2238998597  CLST         840          1.0000000000
      2520       840  TIP3  H2           -6.8139671648       11.4983114965       10.5556782361  CLST         840          1.0000000000
      2521       841  TIP3  OH2          -8.6122009248       -7.9118074764       -4.4884723141  CLST         841          1.0000000000
      2522       841  TIP3  H1           -8.3593844417       -8.0098665091       -3.5663682472  CLST         841          1.0000000000
      2523       841  TIP3  H2           -7.6582088027       -7.6680830210       -4.6071087982  CLST         841          1.0000000000
      2524       842  TIP3  OH2          11.8355645389      -14.1587364738        0.5036567668  CLST         842          1.0000000000
      2525       842  TIP3  H1           11.4888313743      -14.7384180199        1.1899070491  CLST         842          1.0000000000
      2526       842  TIP3  H2           11.0905929451      -14.5185756566       -0.0108094390  CLST         842          1.0000000000
      2527       843  TIP3  OH2           9.5108082618       12.8875199360        3.6843264094  CLST         843          1.0000000000
      2528       843  TIP3  H1            8.7216005822       12.4524084102        4.0211813191  CLST         843          1.0000000000
      2529       843  TIP3  H2            8.8630150578       13.3143775371        3.0998019592  CLST         843          1.0000000000
      2530       844  TIP3  OH2           1.4012810693      -12.4174073222       -2.0619147976  CLST         844          1.0000000000
      2531       844  TIP3  H1            1.6745072329      -12.6243054550       -1.1544253398  CLST         844          1.0000000000
      2532       844  TIP3  H2            0.5233084946      -12.5347954574       -1.5970039720  CLST         844          1.0000000000
      2533       845  TIP3  OH2         -14.7892346786        4.5517212207       10.6432860670  CLST         845          1.0000000000
      2534       845  TIP3  H1          -14.5864894177        3.8655045969       11.5080870655  CLST         845          1.0000000000
      2535       845  TIP3  H2          -13.8902424209        4.4993995234       11.2362443182  CLST         845          1.0000000000
      2536       846  TIP3  OH2         -11.1587409338       -7.7376798295        2.2038737733  CLST         846          1.0000000000
      2537       846  TIP3  H1          -12.0164386272       -8.0102443827        2.5916535584  CLST         846          1.0000000000
      2538       846  TIP3  H2          -11.5284629182       -6.8471850336        2.1868708017  CLST         846          1.0000000000
      2539       847  TIP3  OH2           4.5547278481        9.5150674806        5.1740494219  CLST         847          1.0000000000
      2540       847  TIP3  H1            4.6977485820       10.4972377138        5.3021742243  CLST         847          1.0000000000
      2541       847  TIP3  H2            5.2991980684        9.4134580060        5.7677639500  CLST         847          1.0000000000
      2542       848  TIP3  OH2          -9.2901227223        5.9515936171       -9.9110169277  CLST         848          1.0000000000
      2543       848  TIP3  H1          -10.2249217981        5.6566613043      -10.0394709270  CLST         848          1.0000000000
      2544       848  TIP3  H2           -9.7730694582        6.7597334116       -9.6430345029  CLST         848          1.0000000000
      2545       849  TIP3  OH2          -1.6394559708        1.7416739459        0.5287006641  CLST         849          1.0000000000
      2546       849  TIP3  H1           -0.6270580456        2.2029895458        0.4670774131  CLST         849          1.0000000000
      2547       849  TIP3  H2           -1.0768679108        2.0842990347       -0.3615589011  CLST         849          1.0000000000
      2548       850  TIP3  OH2           5.3127168246       -6.3742972538        5.8613845189  CLST         850          1.0000000000
      2549       850  TIP3  H1            4.6359962778       -6.2396701889        6.5590292912  CLST         850          1.0000000000
      2550       850  TIP3  H2            5.5969432006       -5.4909809464        6.1618783929  CLST         850          1.0000000000
      2551       851  TIP3  OH2           8.3954964654        6.3197292959        5.2125933570  CLST         851          1.0000000000
      2552       851  TIP3  H1            8.3108762522        7.0967077308        5.7210944229  CLST         851          1.0000000000
      2553       851  TIP3  H2            9.1094400407        6.8287541897        4.7894254791  CLST         851          1.0000000000
      2554       852  TIP3  OH2           9.2417002514        4.2235904067        1.6144268797  CLST         852          1.0000000000
      2555       852  TIP3  H1            9.4035819733        4.0626101823        2.5313401913  CLST         852          1.0000000000
      2556       852  TIP3  H2            8.3716932363        4.4685782815        1.8573702414  CLST         852          1.0000000000
      2557       853  TIP3  OH2           9.0540962155       -4.8895113576       -3.6587136013  CLST         853          1.0000000000
      2558       853  TIP3  H1            8.2777283389       -4.8869158497       -4.0477363809  CLST         853          1.0000000000
      2559       853  TIP3  H2            8.0523158931       -4.5253499734       -3.0676956436  CLST         853          1.0000000000
      2560       854  TIP3  OH2         -10.5283844742       -9.4947086178       -5.6461646688  CLST         854          1.0000000000
      2561       854  TIP3  H1          -10.2037008712       -8.5699228831       -5.5967065630  CLST         854          1.0000000000
      2562       854  TIP3  H2          -10.1468127009       -9.4738998892       -4.7242562509  CLST         854          1.0000000000
      2563       855  TIP3  OH2           2.8751217950       -3.1723010785       -7.1795922173  CLST         855          1.0000000000
      2564       855  TIP3  H1            2.4097719909       -2.6128246073       -6.5072712740  CLST         855          1.0000000000
      2565       855  TIP3  H2            3.2799914765       -2.3746591437       -7.4951572761  CLST         855          1.0000000000
      2566       856  TIP3  OH2           2.8954746926      -12.8671454880        0.1168804293  CLST         856          1.0000000000
      2567       856  TIP3  H1            3.7786793870      -12.4627950675       -0.1100184713  CLST         856          1.0000000000
      2568       856  TIP3  H2            3.3126131234      -13.3695528263        0.8922872152  CLST         856          1.0000000000
      2569       857  TIP3  OH2          -3.3414110258       -5.4487511619       11.0352006458  CLST         857          1.0000000000
      2570       857  TIP3  H1           -3.6916147238       -5.7728024782       11.8858685982  CLST         857          1.0000000000
      2571       857  TIP3  H2           -3.3963234441       -4.5286799944       11.3011667258  CLST         857          1.0000000000
      2572       858  TIP3  OH2           6.0939481920      -14.0788571171       12.9687390721  CLST         858          1.0000000000
      2573       858  TIP3  H1            6.2479362132      -14.6019101472       13.7285122346  CLST         858          1.0000000000
      2574       858  TIP3  H2            5.2685913715      -13.7299337611       13.2895599349  CLST         858          1.0000000000
      2575       859  TIP3  OH2          -8.8353091883       -1.4198497570      -13.0600642432  CLST         859          1.0000000000
      2576       859  TIP3  H1           -8.0782160668       -2.0798948690      -13.0334819451  CLST         859          1.0000000000
      2577       859  TIP3  H2           -8.2668272517       -1.0684206337      -12.3411431111  CLST         859          1.0000000000
      2578       860  TIP3  OH2          -9.7450177728       -6.3567060003       -1.0676274951  CLST         860          1.0000000000
      2579       860  TIP3  H1           -9.7172092841       -5.7366396388       -1.8002958448  CLST         860          1.0000000000
      2580       860  TIP3  H2           -8.7932878938       -6.5806095806       -1.3683584009  CLST         860          1.0000000000
      2581       861  TIP3  OH2           4.8743263001      -10.2507030079       -4.5990582315  CLST         861          1.0000000000
      2582       861  TIP3  H1            4.5180727229      -10.5759259091       -3.7780059618  CLST         861          1.0000000000
      2583       861  TIP3  H2            5.3969862503      -11.0644089297       -4.6486928417  CLST         861          1.0000000000
      2584       862  TIP3  OH2         -11.2971100184       -2.8473004260      -12.5399251424  CLST         862          1.0000000000
      2585       862  TIP3  H1          -10.5621757762       -2.1973952563      -12.7623400463  CLST         862          1.0000000000
      2586       862  TIP3  H2          -10.7090937888       -2.9096256711      -11.7816409834  CLST         862          1.0000000000
      2587       863  TIP3  OH2          10.5969961096      -10.8565142039       -8.3725487515  CLST         863          1.0000000000
      2588       863  TIP3  H1           11.3235145050      -10.4091491143       -7.9726280733  CLST         863          1.0000000000
      2589       863  TIP3  H2           11.2958204628      -11.0609618057       -9.0544596354  CLST         863          1.0000000000
      2590       864  TIP3  OH2         -13.7802829351        3.2405680293        3.2038048377  CLST         864          1.0000000000
      2591       864  TIP3  H1          -14.3447452897        3.1827125594        3.9635818213  CLST         864          1.0000000000
      2592       864  TIP3  H2          -14.2321592145        4.1123024578        3.2587531136  CLST         864          1.0000000000
      2593       865  TIP3  OH2          12.7554544180        8.6690292106      -11.4027919576  CLST         865          1.0000000000
      2594       865  TIP3  H1           13.1595501057        7.8052186508      -11.2194742561  CLST         865          1.0000000000
      2595       865  TIP3  H2           12.9877986081        8.9020322060      -10.4953346342  CLST         865          1.0000000000
      2596       866  TIP3  OH2           6.5086498177      -10.3186825740       -8.3272125856  CLST         866          1.0000000000
      2597       866  TIP3  H1            6.0804743118      -11.0760377371       -7.8395297509  CLST         866          1.0000000000
      2598       866  TIP3  H2            6.9779677002      -10.9007110535       -8.8509728338  CLST         866          1.0000000000
      2599       867  TIP3  OH2          -8.2242942698       11.8969708315       -3.2443150556  CLST         867          1.0000000000
      2600       867  TIP3  H1           -8.9609489788       11.8547492732       -2.6012580008  CLST         867          1.0000000000
      2601       867  TIP3  H2           -7.6804531989       12.5165347419       -2.7528054301  CLST         867          1.0000000000
      2602       868  TIP3  OH2         -10.0723294870       13.1997630237       10.0813795693  CLST         868          1.0000000000
      2603       868  TIP3  H1           -9.4760367502       12.4822270792       10.3746902588  CLST         868          1.0000000000
      2604       868  TIP3  H2           -9.2152318711       13.4396849789        9.7085700943  CLST         868          1.0000000000
      2605       869  TIP3  OH2           3.4790494222       -1.6330873433        1.0932615702  CLST         869          1.0000000000
      2606       869  TIP3  H1            2.5688059209       -1.9552222029        0.8253289467  CLST         869          1.0000000000
      2607       869  TIP3  H2            2.8916825294       -1.1683831226        1.7229533675  CLST         869          1.0000000000
      2608       870  TIP3  OH2          -7.2238727325       -3.5749474191      -12.8841849471  CLST         870          1.0000000000
      2609       870  TIP3  H1           -6.4668509842       -3.5783921911      -12.2640500762  CLST         870          1.0000000000
      2610       870  TIP3  H2           -6.6649441208       -4.2712095929      -13.2660442764  CLST         870          1.0000000000
      2611       871  TIP3  OH2          -7.1506824285        2.1392464835       -9.9558608794  CLST         871          1.0000000000
      2612       871  TIP3  H1           -7.6188297021        2.6726331790      -10.5821327385  CLST         871          1.0000000000
      2613       871  TIP3  H2           -7.9055893413        2.2000088790       -9.3205892304  CLST         871          1.0000000000
      2614       872  TIP3  OH2         -13.0047414078       11.4313418392      -10.1863825824  CLST         872          1.0000000000
      2615       872  TIP3  H1          -13.0048741902       11.6218371300      -11.0117973179  CLST         872          1.0000000000
      2616       872  TIP3  H2          -13.1529058696       10.7373347196      -10.6735361794  CLST         872          1.0000000000
      2617       873  TIP3  OH2          11.7646781417       -4.7834252794       -9.6026815744  CLST         873          1.0000000000
      2618       873  TIP3  H1           11.3426541579       -3.9495107307       -9.7694798565  CLST         873          1.0000000000
      2619       873  TIP3  H2           11.9471084308       -4.7767137965      -10.5593071596  CLST         873          1.0000000000
      2620       874  TIP3  OH2          12.9534458868        8.7136327867       -8.7523765198  CLST         874          1.0000000000
      2621       874  TIP3  H1           13.1855216604        7.9772984215       -8.1423462234  CLST         874          1.0000000000
      2622       874  TIP3  H2           12.0356807701        8.4651644316       -8.5771731246  CLST         874          1.0000000000
      2623       875  TIP3  OH2           1.2819404897       -1.5849699301      -12.3235658745  CLST         875          1.0000000000
      2624       875  TIP3  H1            2.1518760932       -1.8186825922      -12.7180628285  CLST         875          1.0000000000
      2625       875  TIP3  H2            0.9286578943       -1.7818612163      -13.1744045475  CLST         875          1.0000000000
      2626       876  TIP3  OH2           9.0405611820        7.0465854016      -12.0364042147  CLST         876          1.0000000000
      2627       876  TIP3  H1            8.6632500156        7.1938059144      -12.9247761736  CLST         876          1.0000000000
      2628       876  TIP3  H2            8.1635516845        6.8925858608      -11.7076495825  CLST         876          1.0000000000
      2629       877  TIP3  OH2          -7.0726778362      -13.7076625972       -5.0089636379  CLST         877          1.0000000000
      2630       877  TIP3  H1           -7.5866831391      -13.1011994610       -4.5017234071  CLST         877          1.0000000000
      2631       877  TIP3  H2           -6.2353714927      -13.2116288872       -4.8826523194  CLST         877          1.0000000000
      2632       878  TIP3  OH2           5.6611906416      -11.1566843134        6.9808889992  CLST         878          1.0000000000
      2633       878  TIP3  H1            5.2056963567      -10.6665709141        6.0720228512  CLST         878          1.0000000000
      2634       878  TIP3  H2            5.2341561016      -10.4500921963        7.0416760162  CLST         878          1.0000000000
      2635       879  TIP3  OH2           2.8737967014        5.3682264597       -6.8193592477  CLST         879          1.0000000000
      2636       879  TIP3  H1            3.3941236813        6.1430754698       -7.0766636962  CLST         879          1.0000000000
      2637       879  TIP3  H2            3.4563807600        5.3761495211       -6.0101312018  CLST         879          1.0000000000
      2638       880  TIP3  OH2          -5.3852930897       -1.8028056753       14.7588864606  CLST         880          1.0000000000
      2639       880  TIP3  H1           -6.2264721105       -2.3473158697       14.6328613705  CLST         880          1.0000000000
      2640       880  TIP3  H2           -6.1014980467       -1.1364204509       14.7651038337  CLST         880          1.0000000000
      2641       881  TIP3  OH2          -0.5818150800       13.6530506129        8.3072009992  CLST         881          1.0000000000
      2642       881  TIP3  H1           -0.5564767875       13.5151421850        7.3562245697  CLST         881          1.0000000000
      2643       881  TIP3  H2           -1.4820986545       13.3994063407        8.0808692466  CLST         881          1.0000000000
      2644       882  TIP3  OH2          11.8138220230       -1.9588765092       -1.5097535005  CLST         882          1.0000000000
      2645       882  TIP3  H1           10.9412982975       -1.5304904253       -1.4621880835  CLST         882          1.0000000000
      2646       882  TIP3  H2           11.3089206161       -2.7602286370       -1.3992721793  CLST         882          1.0000000000
      2647       883  TIP3  OH2           1.6735695007       -9.7902338711       -4.3279542673  CLST         883          1.0000000000
      2648       883  TIP3  H1            2.4399601460       -9.6760725038       -3.7450744646  CLST         883          1.0000000000
      2649       883  TIP3  H2            2.2776324398       -9.8311524506       -5.1057846828  CLST         883          1.0000000000
      2650       884  TIP3  OH2         -13.9715938528       -5.6161161230      -13.0379134722  CLST         884          1.0000000000
      2651       884  TIP3  H1          -13.6227122609       -6.6227270387      -12.7427606611  CLST         884          1.0000000000
      2652       884  TIP3  H2          -14.5292863130       -6.4988625190      -12.5194668512  CLST         884          1.0000000000
      2653       885  TIP3  OH2           0.5015310439       14.7055139824       -0.4244106356  CLST         885          1.0000000000
      2654       885  TIP3  H1           -0.1583235878       14.4841376138        0.2320739829  CLST         885          1.0000000000
      2655       885  TIP3  H2            0.8996396303       13.9651000610        0.0742169507  CLST         885          1.0000000000
      2656       886  TIP3  OH2          11.8879695520       10.0656362430        4.2294444339  CLST         886          1.0000000000
      2657       886  TIP3  H1           12.0015539138        9.3750243897        4.8554852788  CLST         886          1.0000000000
      2658       886  TIP3  H2           11.8596220921       10.3832487586        5.3702378791  CLST         886          1.0000000000
      2659       887  TIP3  OH2          -7.4193631101       -7.8389964013       -2.0868443021  CLST         887          1.0000000000
      2660       887  TIP3  H1           -7.1641772088       -8.7931196225       -2.0088167695  CLST         887          1.0000000000
      2661       887  TIP3  H2           -6.5993490229       -7.6335495322       -1.5850204228  CLST         887          1.0000000000
      2662       888  TIP3  OH2         -12.7927770322       -3.1324984459       10.9096920976  CLST         888          1.0000000000
      2663       888  TIP3  H1          -13.5365479996       -3.0694456903       11.4576174669  CLST         888          1.0000000000
      2664       888  TIP3  H2          -12.5935202515       -2.2269979031       11.1924025614  CLST         888          1.0000000000
      2665       889  TIP3  OH2           4.6477412584      -12.8883639501        8.8802071616  CLST         889          1.0000000000
      2666       889  TIP3  H1            4.9969107084      -12.2243673597        8.2232307150  CLST         889          1.0000000000
      2667       889  TIP3  H2            4.5969253932      -12.1107491713        9.4068222864  CLST         889          1.0000000000
      2668       890  TIP3  OH2         -13.1814534185        6.2516365695       -9.5801137215  CLST         890          1.0000000000
      2669       890  TIP3  H1          -13.0759375614        6.5743855501      -10.4358336584  CLST         890          1.0000000000
      2670       890  TIP3  H2          -14.0102977842        6.6872196553       -9.6069546564  CLST         890          1.0000000000
      2671       891  TIP3  OH2         -12.3942109613       -5.9355694707       10.7449643165  CLST         891          1.0000000000
      2672       891  TIP3  H1          -12.4006987443       -4.9492551044       10.8744794600  CLST         891          1.0000000000
      2673       891  TIP3  H2          -12.1750991249       -5.6488772103        9.8155340628  CLST         891          1.0000000000
      2674       892  TIP3  OH2           3.0308880334       13.4622813710       13.4547585581  CLST         892          1.0000000000
      2675       892  TIP3  H1            2.9396722508       14.1287233645       14.1094272375  CLST         892          1.0000000000
      2676       892  TIP3  H2            3.1054902453       12.9396460481       14.3019726588  CLST         892          1.0000000000
      2677       893  TIP3  OH2          -0.3833624628        7.2454033629        3.0994731493  CLST         893          1.0000000000
      2678       893  TIP3  H1           -1.1642653223        6.8080384660        2.7382619604  CLST         893          1.0000000000
      2679       893  TIP3  H2           -0.9413416835        8.0359739845        3.0394544766  CLST         893          1.0000000000
      2680       894  TIP3  OH2           9.5150481124       11.2601787989        0.5611305314  CLST         894          1.0000000000
      2681       894  TIP3  H1           10.1022323407       11.8508855977        1.1134937066  CLST         894          1.0000000000
      2682       894  TIP3  H2            8.9469254041       12.0821045132        0.4894567050  CLST         894          1.0000000000
      2683       895  TIP3  OH2          -9.8594708867       10.4111176114      -10.5800929687  CLST         895          1.0000000000
      2684       895  TIP3  H1           -9.9670839390       11.1751370316      -10.3172286765  CLST         895          1.0000000000
      2685       895  TIP3  H2           -9.2545161237       11.3300231147      -10.9959110598  CLST         895          1.0000000000
      2686       896  TIP3  OH2           7.9446555118       -6.3823042856       -0.5472132605  CLST         896          1.0000000000
      2687       896  TIP3  H1            7.3543900889       -6.6406206132       -1.3095787739  CLST         896          1.0000000000
      2688       896  TIP3  H2            8.5590842363       -6.8902380622       -1.0966466660  CLST         896          1.0000000000
      2689       897  TIP3  OH2           9.4153453673       -2.3973250072       -9.1489012800  CLST         897          1.0000000000
      2690       897  TIP3  H1            9.2143816009       -2.7769156430       -8.2634096543  CLST         897          1.0000000000
      2691       897  TIP3  H2            9.4627680717       -1.5706460224       -8.6547929461  CLST         897          1.0000000000
      2692       898  TIP3  OH2          13.8568199321        5.8970333773      -11.8722366546  CLST         898          1.0000000000
      2693       898  TIP3  H1           14.2100356726        5.1711721730      -11.2928078630  CLST         898          1.0000000000
      2694       898  TIP3  H2           12.9188417513        5.7594660770      -11.4967730512  CLST         898          1.0000000000
      2695       899  TIP3  OH2          14.4608736051       -6.6736284685        1.7596581429  CLST         899          1.0000000000
      2696       899  TIP3  H1           14.9391371020       -7.4881308740        1.9238110277  CLST         899          1.0000000000
      2697       899  TIP3  H2           13.9326086214       -6.6658736830        2.5710403824  CLST         899          1.0000000000
      2698       900  TIP3  OH2         -10.0037579105      -10.4061197828       10.0001300593  CLST         900          1.0000000000
      2699       900  TIP3  H1          -10.1796294681       -9.5038724990       10.3077913682  CLST         900          1.0000000000
      2700       900  TIP3  H2           -9.1476074496       -9.8974090293        9.7099849747  CLST         900          1.0000000000
      2701       901  TIP3  OH2          10.3563847604        9.0958464718       -8.8873115990  CLST         901          1.0000000000
      2702       901  TIP3  H1           10.2322806263        9.8120935164       -9.5382038674  CLST         901          1.0000000000
      2703       901  TIP3  H2            9.4484494680        8.8681010067       -9.0916601716  CLST         901          1.0000000000
      2704       902  TIP3  OH2           3.7179787224        0.4644588437        9.8602521562  CLST         902          1.0000000000
      2705       902  TIP3  H1            3.9803484574        0.0171639225        9.0666477225  CLST         902          1.0000000000
      2706       902  TIP3  H2            3.1530798512        1.0860981709        9.3846446466  CLST         902          1.0000000000
      2707       903  TIP3  OH2          -0.8067132476        0.8774259018       -8.1119402850  CLST         903          1.0000000000
      2708       903  TIP3  H1           -0.3802896951        0.6166965505       -8.9595199426  CLST         903          1.0000000000
      2709       903  TIP3  H2           -0.3802601619        0.0811871168       -7.8400172229  CLST         903          1.0000000000
