* Geometry rescue: EQUI at step 6000
*
        2709  EXT
         1         1  TIP3  OH2           5.4846056934        0.7707918927       -3.5899349040  CLST           1          1.0000000000
         2         1  TIP3  H1            5.1896419811        0.4563208087       -2.7151622279  CLST           1          1.0000000000
         3         1  TIP3  H2            4.5910445430        0.8321835770       -4.0209868226  CLST           1          1.0000000000
         4         2  TIP3  OH2          14.7879060290       -2.1666227921       -1.7107909132  CLST           2          1.0000000000
         5         2  TIP3  H1           13.8507287878       -2.0762836909       -1.4527505250  CLST           2          1.0000000000
         6         2  TIP3  H2           14.9097018341       -3.1235516579       -1.6908057922  CLST           2          1.0000000000
         7         3  TIP3  OH2          -8.2180486009       -6.4915965257       -7.7027619927  CLST           3          1.0000000000
         8         3  TIP3  H1           -9.1941321731       -6.3929021338       -7.6026329150  CLST           3          1.0000000000
         9         3  TIP3  H2           -8.2171689736       -6.7731998454       -8.6413670370  CLST           3          1.0000000000
        10         4  TIP3  OH2          -9.3114439586       -3.9088594820       12.9237211389  CLST           4          1.0000000000
        11         4  TIP3  H1          -10.0958576594       -4.4226153648       13.2233435098  CLST           4          1.0000000000
        12         4  TIP3  H2           -9.0677487249       -4.2379390494       12.0187560790  CLST           4          1.0000000000
        13         5  TIP3  OH2          -3.3894226051      -10.2893062981       14.3179899287  CLST           5          1.0000000000
        14         5  TIP3  H1           -3.8854007980      -10.9964985243       14.8487980024  CLST           5          1.0000000000
        15         5  TIP3  H2           -3.6204587593      -10.6810631995       13.4375596489  CLST           5          1.0000000000
        16         6  TIP3  OH2          -3.5264992713        9.6431637122       14.0718868146  CLST           6          1.0000000000
        17         6  TIP3  H1           -2.5647593818        9.7257573143       13.9318251706  CLST           6          1.0000000000
        18         6  TIP3  H2           -3.6557374981        9.1860908002       14.8806169207  CLST           6          1.0000000000
        19         7  TIP3  OH2          -5.2214423337       -1.6255486704        8.9346318596  CLST           7          1.0000000000
        20         7  TIP3  H1           -4.7036803581       -1.3653216014        8.1472803542  CLST           7          1.0000000000
        21         7  TIP3  H2           -5.6853684751       -2.3896621027        8.4974288212  CLST           7          1.0000000000
        22         8  TIP3  OH2          -7.2415540948       -4.6988002696       -1.2820809981  CLST           8          1.0000000000
        23         8  TIP3  H1           -7.2490465361       -5.2505773355       -0.4793204400  CLST           8          1.0000000000
        24         8  TIP3  H2           -6.2974656310       -4.7670112322       -1.5582919269  CLST           8          1.0000000000
        25         9  TIP3  OH2         -13.2510573571       -5.2605790293        0.2589016974  CLST           9          1.0000000000
        26         9  TIP3  H1          -14.1963878775       -5.0589374325       -0.0384770022  CLST           9          1.0000000000
        27         9  TIP3  H2          -12.9944025124       -4.3208259772        0.3978442434  CLST           9          1.0000000000
        28        10  TIP3  OH2          -4.3648293388        8.2079638985       -8.5057375555  CLST          10          1.0000000000
        29        10  TIP3  H1           -4.6485728434        9.1283054392       -8.5006144891  CLST          10          1.0000000000
        30        10  TIP3  H2           -3.4274697530        8.0862253790       -8.6654552046  CLST          10          1.0000000000
        31        11  TIP3  OH2           5.8351490235       12.7404083731       10.7878494958  CLST          11          1.0000000000
        32        11  TIP3  H1            5.1328784746       13.4392179356       10.9266893840  CLST          11          1.0000000000
        33        11  TIP3  H2            5.2416059814       11.9523318947       10.8669059537  CLST          11          1.0000000000
        34        12  TIP3  OH2         -11.6628016837      -13.1695396232       -3.1689067298  CLST          12          1.0000000000
        35        12  TIP3  H1          -12.4595579060      -12.6375938719       -2.9517471130  CLST          12          1.0000000000
        36        12  TIP3  H2          -11.9475313071      -13.5280607802       -4.0379375890  CLST          12          1.0000000000
        37        13  TIP3  OH2          -0.8190574782      -10.7860808565        3.0496206700  CLST          13          1.0000000000
        38        13  TIP3  H1            0.0868941369      -11.1218508269        2.8468830849  CLST          13          1.0000000000
        39        13  TIP3  H2           -0.5068944610      -10.4612503584        3.9653415285  CLST          13          1.0000000000
        40        14  TIP3  OH2          -1.5696492744        5.0604060207        8.0376591219  CLST          14          1.0000000000
        41        14  TIP3  H1           -1.6084958677        4.8392361107        8.9839587717  CLST          14          1.0000000000
        42        14  TIP3  H2           -0.6887310127        4.7793318367        7.6903142690  CLST          14          1.0000000000
        43        15  TIP3  OH2           1.1654004036       -1.1278749816       -4.8571794578  CLST          15          1.0000000000
        44        15  TIP3  H1            0.3398973269       -0.7822801451       -4.4094727828  CLST          15          1.0000000000
        45        15  TIP3  H2            1.2875523914       -1.9407340379       -4.3032929086  CLST          15          1.0000000000
        46        16  TIP3  OH2          -4.5254227451       -6.2774421321       13.7146237379  CLST          16          1.0000000000
        47        16  TIP3  H1           -3.9212983965       -7.0192595666       13.9299455371  CLST          16          1.0000000000
        48        16  TIP3  H2           -5.1958961768       -6.2881866339       14.4218250909  CLST          16          1.0000000000
        49        17  TIP3  OH2           8.4303368104       -0.5826148290        2.3852713356  CLST          17          1.0000000000
        50        17  TIP3  H1            7.7436395397       -1.2126813204        2.6949196828  CLST          17          1.0000000000
        51        17  TIP3  H2            9.0983887087       -1.2658809750        2.0719741048  CLST          17          1.0000000000
        52        18  TIP3  OH2           2.4883839941       -8.5695287615       -8.5210305295  CLST          18          1.0000000000
        53        18  TIP3  H1            3.1562914923       -7.9065456918       -8.2975863845  CLST          18          1.0000000000
        54        18  TIP3  H2            2.7464517966       -9.3309916613       -7.9486464584  CLST          18          1.0000000000
        55        19  TIP3  OH2           6.8650413661        7.4713650737       14.0625564218  CLST          19          1.0000000000
        56        19  TIP3  H1            7.4184107682        7.1310930065       14.8251457698  CLST          19          1.0000000000
        57        19  TIP3  H2            6.5393734852        8.3653533225       14.4092252812  CLST          19          1.0000000000
        58        20  TIP3  OH2           4.2946144316        9.3317427112        8.8302286529  CLST          20          1.0000000000
        59        20  TIP3  H1            3.6156178501        9.9737290338        8.6616895774  CLST          20          1.0000000000
        60        20  TIP3  H2            3.9654709502        8.6279694840        8.2543703363  CLST          20          1.0000000000
        61        21  TIP3  OH2           0.4843018622       -8.4818837868        1.1812497412  CLST          21          1.0000000000
        62        21  TIP3  H1            0.5367021971       -8.5354824477        2.1824058171  CLST          21          1.0000000000
        63        21  TIP3  H2           -0.5162110466       -8.5609410995        1.1310072718  CLST          21          1.0000000000
        64        22  TIP3  OH2          11.4626810095       -9.5438166623       10.1633404900  CLST          22          1.0000000000
        65        22  TIP3  H1           11.1216797763       -9.2905162762        9.3090001577  CLST          22          1.0000000000
        66        22  TIP3  H2           11.1825024316      -10.4732191855       10.1980963980  CLST          22          1.0000000000
        67        23  TIP3  OH2          12.4737699550      -14.4502043967      -10.7666299951  CLST          23          1.0000000000
        68        23  TIP3  H1           12.2419800331      -14.9097018341       -9.9056270083  CLST          23          1.0000000000
        69        23  TIP3  H2           13.4184666751      -14.4784693403      -10.5326245338  CLST          23          1.0000000000
        70        24  TIP3  OH2          13.0748360257       -7.5767462787       14.2196085646  CLST          24          1.0000000000
        71        24  TIP3  H1           12.3480893685       -7.4481319937       13.5425324150  CLST          24          1.0000000000
        72        24  TIP3  H2           12.4263206130       -7.7649460276       14.9097018341  CLST          24          1.0000000000
        73        25  TIP3  OH2           0.1038661732       -5.7988919829        5.8692237274  CLST          25          1.0000000000
        74        25  TIP3  H1           -0.5120196762       -5.5136454810        5.1806616881  CLST          25          1.0000000000
        75        25  TIP3  H2           -0.2353438008       -6.4178697523        6.5071401793  CLST          25          1.0000000000
        76        26  TIP3  OH2          -5.6355250212       -5.7273362653       -8.0213719146  CLST          26          1.0000000000
        77        26  TIP3  H1           -6.5450036677       -6.0192850835       -7.9217497978  CLST          26          1.0000000000
        78        26  TIP3  H2           -5.3457432977       -6.0012560397       -8.9041335885  CLST          26          1.0000000000
        79        27  TIP3  OH2           3.9716369005       12.0465032921       -0.9966945406  CLST          27          1.0000000000
        80        27  TIP3  H1            4.9141780699       12.1963391004       -0.7452081708  CLST          27          1.0000000000
        81        27  TIP3  H2            3.7957330639       12.7600104257       -1.6341880486  CLST          27          1.0000000000
        82        28  TIP3  OH2          -5.0623953273       -6.0674455303        6.6002006767  CLST          28          1.0000000000
        83        28  TIP3  H1           -4.1010648874       -6.2630763876        6.6682128441  CLST          28          1.0000000000
        84        28  TIP3  H2           -5.2743708445       -6.3940359352        5.6815077271  CLST          28          1.0000000000
        85        29  TIP3  OH2           4.2286351863      -10.2051353832       12.8785903491  CLST          29          1.0000000000
        86        29  TIP3  H1            5.0461045191       -9.6461005455       12.8379426016  CLST          29          1.0000000000
        87        29  TIP3  H2            3.5244968167       -9.5022705807       12.8351723263  CLST          29          1.0000000000
        88        30  TIP3  OH2          -0.7118942914       -3.4702048075       11.9987168666  CLST          30          1.0000000000
        89        30  TIP3  H1           -0.8854807491       -4.3671589872       12.3778712130  CLST          30          1.0000000000
        90        30  TIP3  H2           -0.5051798801       -2.9846552333       12.8289304405  CLST          30          1.0000000000
        91        31  TIP3  OH2          -5.3526281892      -10.0969799855       -9.7003138357  CLST          31          1.0000000000
        92        31  TIP3  H1           -6.3143815599      -10.0917101632       -9.6344242146  CLST          31          1.0000000000
        93        31  TIP3  H2           -5.2350010126       -9.3877323303       -9.0373014857  CLST          31          1.0000000000
        94        32  TIP3  OH2           4.4591723665        6.2651428940       14.9047608807  CLST          32          1.0000000000
        95        32  TIP3  H1            5.2790280471        6.4362885631       14.4437118143  CLST          32          1.0000000000
        96        32  TIP3  H2            3.8034496764        6.4749803668       14.1420733363  CLST          32          1.0000000000
        97        33  TIP3  OH2           2.1093934434       -5.3640628822       12.1179771106  CLST          33          1.0000000000
        98        33  TIP3  H1            2.9902741016       -5.0413252556       11.8153566618  CLST          33          1.0000000000
        99        33  TIP3  H2            1.6607328260       -5.0382871926       11.2790782048  CLST          33          1.0000000000
       100        34  TIP3  OH2         -12.5176250116       -6.6153800367        5.6524174832  CLST          34          1.0000000000
       101        34  TIP3  H1          -12.5390725006       -6.3279055553        4.7154463656  CLST          34          1.0000000000
       102        34  TIP3  H2          -13.4800197121       -6.8483883863        5.7373080400  CLST          34          1.0000000000
       103        35  TIP3  OH2         -12.3468831135        9.4364906093       13.9698055553  CLST          35          1.0000000000
       104        35  TIP3  H1          -12.9637659269        9.9683243394       13.4105390976  CLST          35          1.0000000000
       105        35  TIP3  H2          -12.4111670234        9.5616799742       14.9097018341  CLST          35          1.0000000000
       106        36  TIP3  OH2           6.7980527260       -8.3617404375      -11.5976635381  CLST          36          1.0000000000
       107        36  TIP3  H1            6.8141398806       -8.4642728611      -10.6104148471  CLST          36          1.0000000000
       108        36  TIP3  H2            7.4055207720       -9.0775252776      -11.7994133218  CLST          36          1.0000000000
       109        37  TIP3  OH2          10.4308007482      -12.0186094946        6.6557329485  CLST          37          1.0000000000
       110        37  TIP3  H1            9.6683143426      -11.7243723447        7.1950436074  CLST          37          1.0000000000
       111        37  TIP3  H2           11.0283577480      -12.2986065551        7.4045069982  CLST          37          1.0000000000
       112        38  TIP3  OH2           5.7104102566      -12.0534568743       -0.7230638424  CLST          38          1.0000000000
       113        38  TIP3  H1            6.6421169310      -12.3327179624       -0.5439884456  CLST          38          1.0000000000
       114        38  TIP3  H2            5.4295147657      -12.3786134222       -1.6012745112  CLST          38          1.0000000000
       115        39  TIP3  OH2          13.5086065791        6.4427193021       -6.6875003120  CLST          39          1.0000000000
       116        39  TIP3  H1           13.4971004487        5.5771320625       -7.1637630966  CLST          39          1.0000000000
       117        39  TIP3  H2           12.6532134521        6.3044200106       -6.1844924301  CLST          39          1.0000000000
       118        40  TIP3  OH2          -5.0455310785       14.1584229862       -5.9409361028  CLST          40          1.0000000000
       119        40  TIP3  H1           -5.7938444069       14.2476221723       -5.3235627342  CLST          40          1.0000000000
       120        40  TIP3  H2           -4.4385188718       13.7790465061       -5.2881305467  CLST          40          1.0000000000
       121        41  TIP3  OH2          11.2034314400        5.6223017825      -11.2517001662  CLST          41          1.0000000000
       122        41  TIP3  H1           10.9919646741        4.9446566524      -11.9635700456  CLST          41          1.0000000000
       123        41  TIP3  H2           10.4462849396        6.2306085570      -11.4659639101  CLST          41          1.0000000000
       124        42  TIP3  OH2          -1.2528658411       -6.8122510451       -2.2063634802  CLST          42          1.0000000000
       125        42  TIP3  H1           -1.3158962619       -5.9015305834       -2.5932035963  CLST          42          1.0000000000
       126        42  TIP3  H2           -1.1943486173       -7.3126149916       -3.0474838508  CLST          42          1.0000000000
       127        43  TIP3  OH2           9.8944966397      -11.1440311853       -1.7249924343  CLST          43          1.0000000000
       128        43  TIP3  H1            9.2781922894      -11.2007982478       -0.9021649795  CLST          43          1.0000000000
       129        43  TIP3  H2            9.6101701129      -12.0403833711       -2.0896934477  CLST          43          1.0000000000
       130        44  TIP3  OH2           0.3967539513       -3.2849172379        6.8415291422  CLST          44          1.0000000000
       131        44  TIP3  H1           -0.4042853237       -3.1317712789        7.3997388091  CLST          44          1.0000000000
       132        44  TIP3  H2            0.2570541292       -4.2365061276        6.6432892929  CLST          44          1.0000000000
       133        45  TIP3  OH2           4.6026598907       -6.4397719769        9.0412753471  CLST          45          1.0000000000
       134        45  TIP3  H1            4.7360020913       -5.5581613190        8.6327372140  CLST          45          1.0000000000
       135        45  TIP3  H2            4.8838048168       -6.2881676130        9.9689693607  CLST          45          1.0000000000
       136        46  TIP3  OH2           7.8215540884        4.6980996204       -8.0784637230  CLST          46          1.0000000000
       137        46  TIP3  H1            7.4320748192        5.3356348617       -7.3959382540  CLST          46          1.0000000000
       138        46  TIP3  H2            7.0456348456        4.6517229629       -8.7083220595  CLST          46          1.0000000000
       139        47  TIP3  OH2         -11.2269362821      -11.1388199072        3.2924531004  CLST          47          1.0000000000
       140        47  TIP3  H1          -11.4107827871      -10.3752624462        3.9201614068  CLST          47          1.0000000000
       141        47  TIP3  H2          -10.8397488605      -11.6681471458        4.0747508133  CLST          47          1.0000000000
       142        48  TIP3  OH2         -14.6626248948        9.4394376056        8.7076457708  CLST          48          1.0000000000
       143        48  TIP3  H1          -14.5441626042        9.6010945409        7.7647361902  CLST          48          1.0000000000
       144        48  TIP3  H2          -13.9441545440        9.9977234703        9.0452895460  CLST          48          1.0000000000
       145        49  TIP3  OH2           8.6863014449       -4.3840236270        3.9629222715  CLST          49          1.0000000000
       146        49  TIP3  H1            7.7133933277       -4.5925415372        3.9030495088  CLST          49          1.0000000000
       147        49  TIP3  H2            8.8665099397       -4.3134346615        3.0148643446  CLST          49          1.0000000000
       148        50  TIP3  OH2          11.1430915589        5.7034841842       -5.3060242314  CLST          50          1.0000000000
       149        50  TIP3  H1           11.4000026065        4.9227873492       -4.7541392946  CLST          50          1.0000000000
       150        50  TIP3  H2           10.1911835532        5.4739884701       -5.3509252120  CLST          50          1.0000000000
       151        51  TIP3  OH2          12.8234593233       -1.0762409080      -10.7656252799  CLST          51          1.0000000000
       152        51  TIP3  H1           13.1606301245       -1.8669619486      -11.2461015049  CLST          51          1.0000000000
       153        51  TIP3  H2           12.3981421348       -0.6241540283      -11.5304509656  CLST          51          1.0000000000
       154        52  TIP3  OH2          -1.5971966842       -1.6240105715       10.2140092983  CLST          52          1.0000000000
       155        52  TIP3  H1           -2.3825097490       -1.2269519349       10.6085297187  CLST          52          1.0000000000
       156        52  TIP3  H2           -1.3926475046       -2.3646069322       10.8214301862  CLST          52          1.0000000000
       157        53  TIP3  OH2         -11.0279294656       14.0493253026       -6.8944081099  CLST          53          1.0000000000
       158        53  TIP3  H1          -11.3440158873       14.8930255060       -6.5184256841  CLST          53          1.0000000000
       159        53  TIP3  H2          -10.0510479799       14.3044399673       -6.6998130343  CLST          53          1.0000000000
       160        54  TIP3  OH2         -13.8026195701       -5.4091021299       -8.0358937608  CLST          54          1.0000000000
       161        54  TIP3  H1          -12.8541536318       -5.4872400718       -8.0196608376  CLST          54          1.0000000000
       162        54  TIP3  H2          -13.9643763264       -4.8816397679       -8.8130667472  CLST          54          1.0000000000
       163        55  TIP3  OH2           0.2648257010        9.4963125902      -10.6414986411  CLST          55          1.0000000000
       164        55  TIP3  H1           -0.5613229381        9.6363991252      -11.1714523371  CLST          55          1.0000000000
       165        55  TIP3  H2            0.3945117325       10.3424202362      -10.1700082639  CLST          55          1.0000000000
       166        56  TIP3  OH2          -1.5682170081       -5.1141646229       14.2231043476  CLST          56          1.0000000000
       167        56  TIP3  H1           -2.2450091828       -4.4741118293       14.5776077341  CLST          56          1.0000000000
       168        56  TIP3  H2           -2.0118202175       -5.9596242393       13.9788594182  CLST          56          1.0000000000
       169        57  TIP3  OH2         -10.5894176019       11.4870369158       -1.5066340607  CLST          57          1.0000000000
       170        57  TIP3  H1          -10.9820421825       11.7494243089       -0.6534252719  CLST          57          1.0000000000
       171        57  TIP3  H2          -11.4135705223       11.4451163402       -2.0149064980  CLST          57          1.0000000000
       172        58  TIP3  OH2           9.5559850352        1.3713132977        0.1894124122  CLST          58          1.0000000000
       173        58  TIP3  H1            8.5851564014        1.0378012108        0.2835736442  CLST          58          1.0000000000
       174        58  TIP3  H2            9.3336088772        2.2580894823        0.5891156131  CLST          58          1.0000000000
       175        59  TIP3  OH2         -13.0510658297       13.1254389578        5.2214377802  CLST          59          1.0000000000
       176        59  TIP3  H1          -13.1718203864       13.4948997217        4.3187720091  CLST          59          1.0000000000
       177        59  TIP3  H2          -12.2509264992       12.5961997826        5.0770342988  CLST          59          1.0000000000
       178        60  TIP3  OH2          -3.8596087058        3.1742887012        7.0505026469  CLST          60          1.0000000000
       179        60  TIP3  H1           -3.3674436959        2.3625336366        7.3004589161  CLST          60          1.0000000000
       180        60  TIP3  H2           -3.1758799167        3.8576333810        7.2674279940  CLST          60          1.0000000000
       181        61  TIP3  OH2           0.4150622714       -2.0629158786        0.2254582974  CLST          61          1.0000000000
       182        61  TIP3  H1           -0.1515953858       -1.6054167112        0.8649027264  CLST          61          1.0000000000
       183        61  TIP3  H2            0.1131842148       -3.0063357543        0.3346722842  CLST          61          1.0000000000
       184        62  TIP3  OH2          -3.8742716372        9.1208037929        4.6182161317  CLST          62          1.0000000000
       185        62  TIP3  H1           -3.4281927980        8.4945573803        5.2159795917  CLST          62          1.0000000000
       186        62  TIP3  H2           -3.1141883761        9.5840672414        4.1946945912  CLST          62          1.0000000000
       187        63  TIP3  OH2          -0.3602126381        7.9005792231       -3.1164561442  CLST          63          1.0000000000
       188        63  TIP3  H1           -0.6884506106        8.4772684424       -3.8182022985  CLST          63          1.0000000000
       189        63  TIP3  H2           -1.0096173042        8.1480299790       -2.3858942190  CLST          63          1.0000000000
       190        64  TIP3  OH2         -13.6961526030        3.4896718811       -3.4433656961  CLST          64          1.0000000000
       191        64  TIP3  H1          -13.1011960316        4.2588042146       -3.3879219585  CLST          64          1.0000000000
       192        64  TIP3  H2          -14.5691886983        3.9665135764       -3.4918955557  CLST          64          1.0000000000
       193        65  TIP3  OH2          -9.2911451951      -12.1928548155      -11.7589203211  CLST          65          1.0000000000
       194        65  TIP3  H1           -9.2244707290      -12.3244805477      -10.7966972428  CLST          65          1.0000000000
       195        65  TIP3  H2          -10.2921860398      -12.1377976575      -11.7810898310  CLST          65          1.0000000000
       196        66  TIP3  OH2          13.0095516071       -8.0490147845        3.5643347483  CLST          66          1.0000000000
       197        66  TIP3  H1           13.2548392724       -8.8224522657        2.9911896613  CLST          66          1.0000000000
       198        66  TIP3  H2           12.6573885050       -8.5267235886        4.3475957744  CLST          66          1.0000000000
       199        67  TIP3  OH2           7.5309071524       -0.6269829621       -6.2764452846  CLST          67          1.0000000000
       200        67  TIP3  H1            7.9922829570       -0.9308982843       -5.4787160155  CLST          67          1.0000000000
       201        67  TIP3  H2            8.3254315632       -0.4078715886       -6.8317511102  CLST          67          1.0000000000
       202        68  TIP3  OH2          -7.0122726850        1.3251938483        0.8920291746  CLST          68          1.0000000000
       203        68  TIP3  H1           -7.5941275913        0.8195193409        1.5071869357  CLST          68          1.0000000000
       204        68  TIP3  H2           -6.7734415288        2.0686019040        1.5058028388  CLST          68          1.0000000000
       205        69  TIP3  OH2         -11.8259048480       -0.7113368631        6.9555520509  CLST          69          1.0000000000
       206        69  TIP3  H1          -10.9911255278       -1.1775883197        7.2900091283  CLST          69          1.0000000000
       207        69  TIP3  H2          -11.6001584272        0.2068264893        7.1930234930  CLST          69          1.0000000000
       208        70  TIP3  OH2          -1.7822041648        7.5693607920       -8.0488945901  CLST          70          1.0000000000
       209        70  TIP3  H1           -0.8361517687        7.4956455690       -8.3287524890  CLST          70          1.0000000000
       210        70  TIP3  H2           -1.6665686467        8.3658152889       -7.4914252430  CLST          70          1.0000000000
       211        71  TIP3  OH2         -13.4863464946       -1.8340411138       -5.6649808310  CLST          71          1.0000000000
       212        71  TIP3  H1          -13.1638813107       -1.5736836944       -4.7694097936  CLST          71          1.0000000000
       213        71  TIP3  H2          -13.5222422709       -0.9385079622       -6.0822727434  CLST          71          1.0000000000
       214        72  TIP3  OH2          10.8897005852       -2.4754101074        4.6603653650  CLST          72          1.0000000000
       215        72  TIP3  H1           10.5872640761       -2.5258772225        3.7211473122  CLST          72          1.0000000000
       216        72  TIP3  H2           11.3927427085       -1.6166387567        4.6005322880  CLST          72          1.0000000000
       217        73  TIP3  OH2          -3.8549892553      -13.6771995698       -6.8162207293  CLST          73          1.0000000000
       218        73  TIP3  H1           -3.9382211720      -13.4378640339       -7.7579036826  CLST          73          1.0000000000
       219        73  TIP3  H2           -4.2628440846      -14.5379103878       -6.6221476523  CLST          73          1.0000000000
       220        74  TIP3  OH2          -4.5222573079       12.1660202660       -1.3035518705  CLST          74          1.0000000000
       221        74  TIP3  H1           -5.1151230451       11.4590117930       -1.7065875921  CLST          74          1.0000000000
       222        74  TIP3  H2           -5.2505820849       12.8118481635       -1.0402653700  CLST          74          1.0000000000
       223        75  TIP3  OH2          -9.4810097774        4.8178606553        5.2683027848  CLST          75          1.0000000000
       224        75  TIP3  H1           -8.7184137665        5.3817514366        5.3603170898  CLST          75          1.0000000000
       225        75  TIP3  H2           -9.9799993339        5.0760399387        6.1278503319  CLST          75          1.0000000000
       226        76  TIP3  OH2           8.3752559962       13.3891367468       -9.0975409011  CLST          76          1.0000000000
       227        76  TIP3  H1            8.5441649759       13.7327058742      -10.0490031781  CLST          76          1.0000000000
       228        76  TIP3  H2            9.3699348872       13.2494923831       -9.0171495353  CLST          76          1.0000000000
       229        77  TIP3  OH2           0.4223315715       -5.2328200937       -5.4463842440  CLST          77          1.0000000000
       230        77  TIP3  H1            0.5071138918       -4.9269602954       -6.3845993582  CLST          77          1.0000000000
       231        77  TIP3  H2           -0.4177830548       -5.7273944941       -5.6373955678  CLST          77          1.0000000000
       232        78  TIP3  OH2          -5.6570194752       -8.1719052576        1.5368220483  CLST          78          1.0000000000
       233        78  TIP3  H1           -5.3600617176       -7.6250656127        0.7842566529  CLST          78          1.0000000000
       234        78  TIP3  H2           -6.2170898070       -8.8364259413        1.0844982362  CLST          78          1.0000000000
       235        79  TIP3  OH2           6.8035219561      -14.3606424897       10.2158743145  CLST          79          1.0000000000
       236        79  TIP3  H1            6.4654786283      -14.3550444405       11.1642379664  CLST          79          1.0000000000
       237        79  TIP3  H2            6.0084586115      -14.0235438055        9.7074665027  CLST          79          1.0000000000
       238        80  TIP3  OH2           6.6660625667       -0.2393149570      -12.9855984438  CLST          80          1.0000000000
       239        80  TIP3  H1            6.8862949080        0.1548345332      -13.8694855376  CLST          80          1.0000000000
       240        80  TIP3  H2            7.6055998463       -0.1646873678      -12.6426419140  CLST          80          1.0000000000
       241        81  TIP3  OH2          -7.4102606197        1.0555790481        5.6788615286  CLST          81          1.0000000000
       242        81  TIP3  H1           -8.3588510598        1.3638267890        5.5570768019  CLST          81          1.0000000000
       243        81  TIP3  H2           -7.0327005432        1.9324831652        5.3492992730  CLST          81          1.0000000000
       244        82  TIP3  OH2           2.2856319698       -1.9231973910       10.6399076699  CLST          82          1.0000000000
       245        82  TIP3  H1            2.6564736563       -1.0503044062       10.3772165480  CLST          82          1.0000000000
       246        82  TIP3  H2            3.1585626696       -2.4349487741       10.6537761962  CLST          82          1.0000000000
       247        83  TIP3  OH2          10.3801514074        8.4138410573       -5.1338545218  CLST          83          1.0000000000
       248        83  TIP3  H1           10.4658249979        7.5451463419       -5.5662250717  CLST          83          1.0000000000
       249        83  TIP3  H2           10.4741483488        8.1084382012       -4.2048880491  CLST          83          1.0000000000
       250        84  TIP3  OH2         -13.2370735188        8.0870800072       -1.3114148322  CLST          84          1.0000000000
       251        84  TIP3  H1          -13.8758779967        7.5267496149       -0.8054651568  CLST          84          1.0000000000
       252        84  TIP3  H2          -12.5082899257        7.4484538523       -1.0498201023  CLST          84          1.0000000000
       253        85  TIP3  OH2           2.4841547995       -1.5183167327        7.5804847762  CLST          85          1.0000000000
       254        85  TIP3  H1            1.8929661693       -2.1852699242        7.1198219893  CLST          85          1.0000000000
       255        85  TIP3  H2            2.7998629417       -2.1673401287        8.2622097532  CLST          85          1.0000000000
       256        86  TIP3  OH2           8.0138210174       -9.3412280113       10.0246305929  CLST          86          1.0000000000
       257        86  TIP3  H1            8.3879240522       -8.6235926847       10.5898008518  CLST          86          1.0000000000
       258        86  TIP3  H2            7.4525055084       -9.8908043378       10.6037415770  CLST          86          1.0000000000
       259        87  TIP3  OH2           0.5887174562       -1.1935797880       13.0556233031  CLST          87          1.0000000000
       260        87  TIP3  H1            1.0002634523       -1.4054110385       12.1970282259  CLST          87          1.0000000000
       261        87  TIP3  H2            0.2327582095       -0.2986125571       12.8150618410  CLST          87          1.0000000000
       262        88  TIP3  OH2          14.5769858698      -11.2010461245        8.0668466317  CLST          88          1.0000000000
       263        88  TIP3  H1           13.6366117667      -11.1579181196        8.3240458083  CLST          88          1.0000000000
       264        88  TIP3  H2           14.7665200548      -11.8203080848        8.7866715219  CLST          88          1.0000000000
       265        89  TIP3  OH2           6.8447170714       11.6734642768       -4.1367539036  CLST          89          1.0000000000
       266        89  TIP3  H1            5.9139128194       11.8164069020       -3.8986338674  CLST          89          1.0000000000
       267        89  TIP3  H2            7.0610519755       10.8868941996       -3.5898507566  CLST          89          1.0000000000
       268        90  TIP3  OH2          14.4062283407       -4.8133400780       -0.5002559166  CLST          90          1.0000000000
       269        90  TIP3  H1           14.0226828844       -5.1683021434       -1.3092259694  CLST          90          1.0000000000
       270        90  TIP3  H2           14.0535896777       -5.4485152598        0.1943844861  CLST          90          1.0000000000
       271        91  TIP3  OH2          11.5779674759       10.8874599755       -5.6698914132  CLST          91          1.0000000000
       272        91  TIP3  H1           11.2478516612        9.9861033154       -5.4384544176  CLST          91          1.0000000000
       273        91  TIP3  H2           10.7772017546       11.4050133945       -5.6363004940  CLST          91          1.0000000000
       274        92  TIP3  OH2          -6.1027133278        3.6065800176        8.7526301438  CLST          92          1.0000000000
       275        92  TIP3  H1           -5.4669547570        3.4736366258        8.0086618155  CLST          92          1.0000000000
       276        92  TIP3  H2           -6.3290332242        2.6280295487        8.9083628105  CLST          92          1.0000000000
       277        93  TIP3  OH2           5.2120359685       -6.6213040486       11.8591043287  CLST          93          1.0000000000
       278        93  TIP3  H1            5.2787248050       -5.8362980858       12.4292163063  CLST          93          1.0000000000
       279        93  TIP3  H2            6.0027894976       -7.1708177396       12.0113342306  CLST          93          1.0000000000
       280        94  TIP3  OH2          -5.9247713106       11.8608074370        4.6093545894  CLST          94          1.0000000000
       281        94  TIP3  H1           -5.7859090373       11.6776068660        3.6303790822  CLST          94          1.0000000000
       282        94  TIP3  H2           -6.1633939765       10.9827506374        4.9112098922  CLST          94          1.0000000000
       283        95  TIP3  OH2           6.5888033286       11.5284004978       -0.4345056448  CLST          95          1.0000000000
       284        95  TIP3  H1            6.8646220217       10.9303718597       -1.1978725175  CLST          95          1.0000000000
       285        95  TIP3  H2            6.2459239897       10.8011895786        0.1195303889  CLST          95          1.0000000000
       286        96  TIP3  OH2          14.5079495616       -0.9712210944       11.4591392855  CLST          96          1.0000000000
       287        96  TIP3  H1           14.9097018341       -1.6727761542       11.9987568051  CLST          96          1.0000000000
       288        96  TIP3  H2           13.8464813993       -1.3477846543       10.8660841449  CLST          96          1.0000000000
       289        97  TIP3  OH2          -8.6163993864        9.3518646044       12.9755859780  CLST          97          1.0000000000
       290        97  TIP3  H1           -8.5357523700        9.2174134822       11.9822071077  CLST          97          1.0000000000
       291        97  TIP3  H2           -7.6883614140        8.9873421502       13.1229638230  CLST          97          1.0000000000
       292        98  TIP3  OH2           1.5565717281        4.0909523599       13.8250376948  CLST          98          1.0000000000
       293        98  TIP3  H1            2.1796129532        4.4896264572       13.1900859336  CLST          98          1.0000000000
       294        98  TIP3  H2            2.1554118065        3.3943965411       14.2057148876  CLST          98          1.0000000000
       295        99  TIP3  OH2         -12.4062062293       12.1460975739       -5.3712896918  CLST          99          1.0000000000
       296        99  TIP3  H1          -13.1271828988       12.0537512903       -6.2279462505  CLST          99          1.0000000000
       297        99  TIP3  H2          -11.8640930846       12.8032244614       -5.8328684138  CLST          99          1.0000000000
       298       100  TIP3  OH2           9.2110352023       -3.9263637269       -6.4798151425  CLST         100          1.0000000000
       299       100  TIP3  H1            8.4165402698       -3.8756735905       -5.8606731999  CLST         100          1.0000000000
       300       100  TIP3  H2            8.8570565734       -4.8053710426       -6.4713296052  CLST         100          1.0000000000
       301       101  TIP3  OH2          10.9678305893        2.2977846456      -10.3863897852  CLST         101          1.0000000000
       302       101  TIP3  H1           11.3815554465        2.8111151429       -9.6762524582  CLST         101          1.0000000000
       303       101  TIP3  H2           11.2956600674        1.5308620889       -9.9086155514  CLST         101          1.0000000000
       304       102  TIP3  OH2          -7.2598726747        2.4294702883      -12.6689546917  CLST         102          1.0000000000
       305       102  TIP3  H1           -8.0347220240        2.2916889749      -13.2939991285  CLST         102          1.0000000000
       306       102  TIP3  H2           -7.6364235972        3.3444515092      -12.7792542861  CLST         102          1.0000000000
       307       103  TIP3  OH2          -4.6696624662      -13.9296834199      -11.2611179761  CLST         103          1.0000000000
       308       103  TIP3  H1           -4.8770198680      -14.5620687142      -12.0042532308  CLST         103          1.0000000000
       309       103  TIP3  H2           -5.3785894392      -14.4591908074      -10.8317467422  CLST         103          1.0000000000
       310       104  TIP3  OH2         -10.7670352216      -11.5591515190        7.5237292618  CLST         104          1.0000000000
       311       104  TIP3  H1           -9.8880949818      -10.9289428360        7.6962465232  CLST         104          1.0000000000
       312       104  TIP3  H2          -10.5348363759      -11.0124734327        8.4690935169  CLST         104          1.0000000000
       313       105  TIP3  OH2           4.4664360818       -0.2565411223       14.0673749887  CLST         105          1.0000000000
       314       105  TIP3  H1            4.0846917976       -1.0894776406       14.4541523298  CLST         105          1.0000000000
       315       105  TIP3  H2            4.7025128037       -0.7257564767       13.2948921595  CLST         105          1.0000000000
       316       106  TIP3  OH2          14.4660339737       -1.2076834691        4.6458730823  CLST         106          1.0000000000
       317       106  TIP3  H1           14.7442867904       -0.3352062399        4.9737474384  CLST         106          1.0000000000
       318       106  TIP3  H2           13.5921626710       -0.7327340636        4.6157032439  CLST         106          1.0000000000
       319       107  TIP3  OH2           1.3855820043      -12.2566353498       -7.3525035236  CLST         107          1.0000000000
       320       107  TIP3  H1            0.4186054682      -12.2561629322       -7.6147282594  CLST         107          1.0000000000
       321       107  TIP3  H2            0.9391996752      -12.1638133502       -6.4630116961  CLST         107          1.0000000000
       322       108  TIP3  OH2          -7.0581963781       -3.8591634596       14.5197348346  CLST         108          1.0000000000
       323       108  TIP3  H1           -6.8988137107       -4.4127709360       13.7263027159  CLST         108          1.0000000000
       324       108  TIP3  H2           -7.9893394054       -3.7848841720       14.1144077905  CLST         108          1.0000000000
       325       109  TIP3  OH2          -4.1295977718       -1.0864411368       11.4818398836  CLST         109          1.0000000000
       326       109  TIP3  H1           -4.5091039936       -1.9466236295       11.7714652213  CLST         109          1.0000000000
       327       109  TIP3  H2           -4.5620186279       -1.2527747817       10.6047866096  CLST         109          1.0000000000
       328       110  TIP3  OH2           1.2659968106       -3.4700374498       -3.4295059949  CLST         110          1.0000000000
       329       110  TIP3  H1            0.9294624274       -4.2135658942       -4.0650220649  CLST         110          1.0000000000
       330       110  TIP3  H2            0.4792403866       -3.5623786392       -2.8787125688  CLST         110          1.0000000000
       331       111  TIP3  OH2          -5.2702220797       -0.8350502019       -6.1466089508  CLST         111          1.0000000000
       332       111  TIP3  H1           -4.8313056695       -0.6481988537       -7.0813479971  CLST         111          1.0000000000
       333       111  TIP3  H2           -4.9633804966       -1.5358271012       -6.5062586664  CLST         111          1.0000000000
       334       112  TIP3  OH2           2.4056956977      -12.0938612687       -4.6654936061  CLST         112          1.0000000000
       335       112  TIP3  H1            2.0613902507      -11.8725558436       -3.6219816188  CLST         112          1.0000000000
       336       112  TIP3  H2            1.7622152797      -11.5198561018       -4.5273360680  CLST         112          1.0000000000
       337       113  TIP3  OH2          14.0735330979        5.5414963393       12.1420884551  CLST         113          1.0000000000
       338       113  TIP3  H1           13.8571752504        6.4813618657       11.5420138031  CLST         113          1.0000000000
       339       113  TIP3  H2           14.7488526797        5.9852683096       12.0774205712  CLST         113          1.0000000000
       340       114  TIP3  OH2          -5.0322392585      -11.3064980094       -4.8588816056  CLST         114          1.0000000000
       341       114  TIP3  H1           -4.8679425563      -10.4328779438       -5.2370138157  CLST         114          1.0000000000
       342       114  TIP3  H2           -4.5893165648      -11.7263582008       -5.5612473337  CLST         114          1.0000000000
       343       115  TIP3  OH2           4.8183319815      -13.9690012112       -9.1753888206  CLST         115          1.0000000000
       344       115  TIP3  H1            4.4186293420      -14.6744939650      -10.0506838632  CLST         115          1.0000000000
       345       115  TIP3  H2            4.1370861735      -13.5087885955       -9.6311853820  CLST         115          1.0000000000
       346       116  TIP3  OH2           8.1671933306        5.8404877875      -14.3745003955  CLST         116          1.0000000000
       347       116  TIP3  H1            8.7419369592        5.1804230261      -14.6551217564  CLST         116          1.0000000000
       348       116  TIP3  H2            7.7666766266        5.3603191796      -13.6940425671  CLST         116          1.0000000000
       349       117  TIP3  OH2          -0.3062783584        1.6400930849       13.1267646148  CLST         117          1.0000000000
       350       117  TIP3  H1           -0.8710430214        1.6528513574       13.8851375940  CLST         117          1.0000000000
       351       117  TIP3  H2            0.1189485616        2.5143001103       13.3388979210  CLST         117          1.0000000000
       352       118  TIP3  OH2          12.7111890026       -9.7883751316       -6.6673052102  CLST         118          1.0000000000
       353       118  TIP3  H1           11.9591197709       -9.2474752984       -6.0265356260  CLST         118          1.0000000000
       354       118  TIP3  H2           13.0629446393       -9.2211957485       -6.0637208537  CLST         118          1.0000000000
       355       119  TIP3  OH2         -12.0033273418       -1.6063833084        4.3639381232  CLST         119          1.0000000000
       356       119  TIP3  H1          -11.0669014872       -1.7338327460        4.5473346776  CLST         119          1.0000000000
       357       119  TIP3  H2          -12.0419817841       -1.1015951231        5.2138026599  CLST         119          1.0000000000
       358       120  TIP3  OH2         -11.5817803308        3.8889167471       -7.7851687593  CLST         120          1.0000000000
       359       120  TIP3  H1          -12.3126688618        4.0761078443       -8.3284104607  CLST         120          1.0000000000
       360       120  TIP3  H2          -12.2873171982        3.8779087779       -7.1220367244  CLST         120          1.0000000000
       361       121  TIP3  OH2          -6.2049137311       -7.1866316711        4.1752982613  CLST         121          1.0000000000
       362       121  TIP3  H1           -5.9765265236       -7.4307559164        3.2163957267  CLST         121          1.0000000000
       363       121  TIP3  H2           -7.1185985362       -6.9911897703        3.9517518982  CLST         121          1.0000000000
       364       122  TIP3  OH2           9.3213918055       -6.9940545206       -6.4621377182  CLST         122          1.0000000000
       365       122  TIP3  H1            9.0892784750       -7.8189541003       -6.8953133245  CLST         122          1.0000000000
       366       122  TIP3  H2            9.9830515117       -7.0921900867       -7.2148278047  CLST         122          1.0000000000
       367       123  TIP3  OH2          -7.1757204768      -10.2618791807        0.3716335210  CLST         123          1.0000000000
       368       123  TIP3  H1           -7.4236899180      -10.0593995104       -0.5051050839  CLST         123          1.0000000000
       369       123  TIP3  H2           -8.0680644747      -10.1144987160        0.6394561047  CLST         123          1.0000000000
       370       124  TIP3  OH2         -12.9596343120       -2.1004967780       -9.7397770507  CLST         124          1.0000000000
       371       124  TIP3  H1          -13.6499608724       -2.5803840098       -9.7332429719  CLST         124          1.0000000000
       372       124  TIP3  H2          -13.1859297879       -2.7619181261      -10.6524187778  CLST         124          1.0000000000
       373       125  TIP3  OH2           6.4504004858        2.7928575633       -5.4172686898  CLST         125          1.0000000000
       374       125  TIP3  H1            6.1488303388        1.9673455056       -4.9490333758  CLST         125          1.0000000000
       375       125  TIP3  H2            6.1765010640        2.3996516500       -6.2581924793  CLST         125          1.0000000000
       376       126  TIP3  OH2          12.1646338731       -9.8848917341        5.4826201798  CLST         126          1.0000000000
       377       126  TIP3  H1           12.7596334818      -10.6392037066        5.3147586808  CLST         126          1.0000000000
       378       126  TIP3  H2           11.4740063661      -10.5432499054        5.6661146389  CLST         126          1.0000000000
       379       127  TIP3  OH2         -10.3429676125       -5.6784667279       -5.0201543118  CLST         127          1.0000000000
       380       127  TIP3  H1           -9.9973787537       -4.9875729753       -4.4615412830  CLST         127          1.0000000000
       381       127  TIP3  H2           -9.8331158813       -6.2438898155       -4.4265403098  CLST         127          1.0000000000
       382       128  TIP3  OH2          -6.3721383959       -3.5228125760        6.8878307780  CLST         128          1.0000000000
       383       128  TIP3  H1           -5.9016865321       -4.3847277253        7.0084804685  CLST         128          1.0000000000
       384       128  TIP3  H2           -6.1215038640       -3.2244515661        6.0490898547  CLST         128          1.0000000000
       385       129  TIP3  OH2         -11.8450033263      -13.9911694091      -10.5526368697  CLST         129          1.0000000000
       386       129  TIP3  H1          -11.2633988377      -13.7309193713       -9.8355643246  CLST         129          1.0000000000
       387       129  TIP3  H2          -11.5690536922      -14.8758777022      -10.4730385622  CLST         129          1.0000000000
       388       130  TIP3  OH2           8.8999985490       -0.8925118414       13.7894109520  CLST         130          1.0000000000
       389       130  TIP3  H1            8.3416208398       -1.7010732835       13.9796860107  CLST         130          1.0000000000
       390       130  TIP3  H2            8.0120227030       -0.5214535725       13.8712011835  CLST         130          1.0000000000
       391       131  TIP3  OH2         -10.0239043436      -11.2967718420       -1.4297391098  CLST         131          1.0000000000
       392       131  TIP3  H1           -9.3572128478      -11.7051541947       -0.9462039158  CLST         131          1.0000000000
       393       131  TIP3  H2          -10.6747052915      -11.6545308763       -0.8185628579  CLST         131          1.0000000000
       394       132  TIP3  OH2           9.2644547205       -2.6470442156        9.4697615916  CLST         132          1.0000000000
       395       132  TIP3  H1           10.0975228868       -2.4395506352        8.9837910088  CLST         132          1.0000000000
       396       132  TIP3  H2            9.5223835562       -1.7705084317        9.8378918314  CLST         132          1.0000000000
       397       133  TIP3  OH2          -9.3542446224       -7.3911531922        7.6203475745  CLST         133          1.0000000000
       398       133  TIP3  H1           -8.4548532024       -7.2766685864        7.3417712734  CLST         133          1.0000000000
       399       133  TIP3  H2           -9.4823387915       -6.9455224170        6.7577271207  CLST         133          1.0000000000
       400       134  TIP3  OH2          -8.9707640846      -12.3134352760       14.6435769898  CLST         134          1.0000000000
       401       134  TIP3  H1           -8.9941490315      -12.4538638506       13.5631967655  CLST         134          1.0000000000
       402       134  TIP3  H2           -9.5544891477      -11.7091762104       13.9496968141  CLST         134          1.0000000000
       403       135  TIP3  OH2          -9.1154958699       10.7420293370        3.6531930858  CLST         135          1.0000000000
       404       135  TIP3  H1           -8.6369205025       10.8490491748        2.8477192954  CLST         135          1.0000000000
       405       135  TIP3  H2           -8.2942208539       10.3809239447        4.0555315525  CLST         135          1.0000000000
       406       136  TIP3  OH2          -5.0706309386       13.5113434908      -11.3654355763  CLST         136          1.0000000000
       407       136  TIP3  H1           -5.1851196611       13.4626521007      -10.4964783353  CLST         136          1.0000000000
       408       136  TIP3  H2           -5.7821270548       13.8265170531      -11.0439343349  CLST         136          1.0000000000
       409       137  TIP3  OH2          -5.5802634007      -11.0156104084        7.7424485456  CLST         137          1.0000000000
       410       137  TIP3  H1           -4.5883043759      -11.0117831468        7.1640131129  CLST         137          1.0000000000
       411       137  TIP3  H2           -5.1216814393      -11.7526114937        7.8148144864  CLST         137          1.0000000000
       412       138  TIP3  OH2           9.7443825133        8.3756982976       10.8553506539  CLST         138          1.0000000000
       413       138  TIP3  H1           10.0015300504        7.5030538883       11.3419692501  CLST         138          1.0000000000
       414       138  TIP3  H2            9.9683638238        8.7943268352       11.6565284024  CLST         138          1.0000000000
       415       139  TIP3  OH2           2.0320636854        9.8218891687       12.4533534937  CLST         139          1.0000000000
       416       139  TIP3  H1            2.9769718295        9.8781081015       12.1612352285  CLST         139          1.0000000000
       417       139  TIP3  H2            2.4173231487        8.9768619545       12.8704141561  CLST         139          1.0000000000
       418       140  TIP3  OH2          -3.0845653259       -1.1322370091       -7.6122268122  CLST         140          1.0000000000
       419       140  TIP3  H1           -2.5061439557       -0.3806263677       -7.6477638252  CLST         140          1.0000000000
       420       140  TIP3  H2           -2.2739190056       -1.5804795585       -7.6889559345  CLST         140          1.0000000000
       421       141  TIP3  OH2         -12.8289615411        5.6239642006       12.4826829499  CLST         141          1.0000000000
       422       141  TIP3  H1          -12.6980519289        6.4683278004       12.8338015574  CLST         141          1.0000000000
       423       141  TIP3  H2          -11.8887043971        5.4427636882       12.4526925070  CLST         141          1.0000000000
       424       142  TIP3  OH2          14.8912469874       -6.7619651730        5.3511111026  CLST         142          1.0000000000
       425       142  TIP3  H1           14.2698590714       -7.0782468623        4.5893055809  CLST         142          1.0000000000
       426       142  TIP3  H2           14.9069261995       -7.6539155012        5.7499689914  CLST         142          1.0000000000
       427       143  TIP3  OH2           6.4732602864       -7.2275475156        1.9069873676  CLST         143          1.0000000000
       428       143  TIP3  H1            6.8430007446       -7.3234678260        0.9443303054  CLST         143          1.0000000000
       429       143  TIP3  H2            5.6829984566       -7.2730901052        1.3627337917  CLST         143          1.0000000000
       430       144  TIP3  OH2          -1.3530115294      -13.8567212770        7.9579551027  CLST         144          1.0000000000
       431       144  TIP3  H1           -1.0276977252      -14.1885147446        7.2864228454  CLST         144          1.0000000000
       432       144  TIP3  H2           -0.8294903280      -14.8207323491        7.9394908722  CLST         144          1.0000000000
       433       145  TIP3  OH2           2.1474901951        7.3530423950       13.4288524754  CLST         145          1.0000000000
       434       145  TIP3  H1            1.2467343705        7.1297817388       13.7638312073  CLST         145          1.0000000000
       435       145  TIP3  H2            1.8947421738        7.1192056256       12.5652431057  CLST         145          1.0000000000
       436       146  TIP3  OH2          -5.8768660761       10.4638387489       -8.5322965673  CLST         146          1.0000000000
       437       146  TIP3  H1           -5.6657394390       11.3800583193       -8.6667659260  CLST         146          1.0000000000
       438       146  TIP3  H2           -6.7528669750       10.6959015121       -8.1856974981  CLST         146          1.0000000000
       439       147  TIP3  OH2           1.2083371517        2.8995110795       -4.2986885901  CLST         147          1.0000000000
       440       147  TIP3  H1            0.1062990672        3.1708587339       -3.8754555892  CLST         147          1.0000000000
       441       147  TIP3  H2            0.6579933868        3.3166031652       -4.7027390441  CLST         147          1.0000000000
       442       148  TIP3  OH2           7.4840412892        6.4563104876       -3.4497426650  CLST         148          1.0000000000
       443       148  TIP3  H1            7.8984443329        5.6148923372       -3.2602812352  CLST         148          1.0000000000
       444       148  TIP3  H2            6.6717472056        5.8750444867       -3.3138698730  CLST         148          1.0000000000
       445       149  TIP3  OH2          -4.0994995548      -13.2726900650       10.8640810748  CLST         149          1.0000000000
       446       149  TIP3  H1           -4.2499876024      -12.3992780683       10.5609719772  CLST         149          1.0000000000
       447       149  TIP3  H2           -3.5565878752      -12.7552918276       11.4885390085  CLST         149          1.0000000000
       448       150  TIP3  OH2          10.8636790574        1.1629144065       -2.4056144379  CLST         150          1.0000000000
       449       150  TIP3  H1           10.3302024024        1.2601174251       -1.5056589901  CLST         150          1.0000000000
       450       150  TIP3  H2            9.9286639282        1.1122510736       -2.7372266981  CLST         150          1.0000000000
       451       151  TIP3  OH2           3.7088659407      -12.0067492011        4.3198849456  CLST         151          1.0000000000
       452       151  TIP3  H1            3.5877232752      -13.1213088095        4.0974885342  CLST         151          1.0000000000
       453       151  TIP3  H2            4.3675559513      -12.6031064731        3.7340697501  CLST         151          1.0000000000
       454       152  TIP3  OH2           0.5603934366        5.9596733474       -5.8982057276  CLST         152          1.0000000000
       455       152  TIP3  H1            0.8094622641        6.8506819182       -6.2560936530  CLST         152          1.0000000000
       456       152  TIP3  H2            1.5342752213        5.8132265208       -6.0577713652  CLST         152          1.0000000000
       457       153  TIP3  OH2          -1.1445210388       10.4194259177       -7.6393696849  CLST         153          1.0000000000
       458       153  TIP3  H1           -0.6031981613       10.9410091951       -7.0498643349  CLST         153          1.0000000000
       459       153  TIP3  H2           -0.6438164086       10.7933474300       -8.3841493804  CLST         153          1.0000000000
       460       154  TIP3  OH2         -11.8785052965       -7.8150611861       -0.5303512535  CLST         154          1.0000000000
       461       154  TIP3  H1          -12.4376386598       -7.0674946952       -0.3147958042  CLST         154          1.0000000000
       462       154  TIP3  H2          -11.1406504504       -7.2017516253       -0.6325494563  CLST         154          1.0000000000
       463       155  TIP3  OH2          10.1372763568       -5.0067410485       14.2321181091  CLST         155          1.0000000000
       464       155  TIP3  H1           10.9137306475       -4.2820299215       14.0870862674  CLST         155          1.0000000000
       465       155  TIP3  H2           10.3588262771       -4.4524515279       13.2068140376  CLST         155          1.0000000000
       466       156  TIP3  OH2          14.0142304283        2.2163071467        0.0520853526  CLST         156          1.0000000000
       467       156  TIP3  H1           14.9090748359        1.9078351063       -0.0540252590  CLST         156          1.0000000000
       468       156  TIP3  H2           13.8804947515        1.8927038360       -0.8002042062  CLST         156          1.0000000000
       469       157  TIP3  OH2           0.0067547328       -4.9902309926       -8.2139030707  CLST         157          1.0000000000
       470       157  TIP3  H1            0.6231327436       -4.7495778835       -8.9017605792  CLST         157          1.0000000000
       471       157  TIP3  H2           -0.0085407301       -5.8821637797       -8.6061164352  CLST         157          1.0000000000
       472       158  TIP3  OH2          -6.9234033142       -1.5436682254       -2.2258413195  CLST         158          1.0000000000
       473       158  TIP3  H1           -7.7713010454       -2.0003522054       -2.1855973628  CLST         158          1.0000000000
       474       158  TIP3  H2           -6.6875513005       -2.1899629705       -2.9407000620  CLST         158          1.0000000000
       475       159  TIP3  OH2           8.3143960809      -11.4704070025        8.3092370272  CLST         159          1.0000000000
       476       159  TIP3  H1            7.4628949394      -11.4612558514        7.8439489557  CLST         159          1.0000000000
       477       159  TIP3  H2            8.4174179922      -10.6632341084        8.8208530964  CLST         159          1.0000000000
       478       160  TIP3  OH2           4.6703825003       -9.2404488596        2.1610849267  CLST         160          1.0000000000
       479       160  TIP3  H1            4.2882509815       -9.1648741929        3.0356175740  CLST         160          1.0000000000
       480       160  TIP3  H2            5.0873030571      -10.0086430635        2.5903158454  CLST         160          1.0000000000
       481       161  TIP3  OH2           4.1453219096       -6.8271952372       -2.8651244452  CLST         161          1.0000000000
       482       161  TIP3  H1            4.7209683165       -7.5034500510       -2.0021173962  CLST         161          1.0000000000
       483       161  TIP3  H2            3.7338647945       -7.2771507566       -2.0364008447  CLST         161          1.0000000000
       484       162  TIP3  OH2           6.7444587073      -10.4339814297        3.1338667509  CLST         162          1.0000000000
       485       162  TIP3  H1            7.6954041634      -10.4633065634        3.3035919326  CLST         162          1.0000000000
       486       162  TIP3  H2            6.7805684671       -9.6362334058        3.5917103861  CLST         162          1.0000000000
       487       163  TIP3  OH2         -13.3424557945        0.0059176309        2.7528757846  CLST         163          1.0000000000
       488       163  TIP3  H1          -13.4702534022       -0.0524798631        3.7087475940  CLST         163          1.0000000000
       489       163  TIP3  H2          -12.4501644038       -0.4068798247        3.0967823008  CLST         163          1.0000000000
       490       164  TIP3  OH2           8.5373258065        2.7980704811       10.1291106557  CLST         164          1.0000000000
       491       164  TIP3  H1            8.6661020581        3.7379809228        9.4218774865  CLST         164          1.0000000000
       492       164  TIP3  H2            9.1741585516        2.8383153774        9.6482562038  CLST         164          1.0000000000
       493       165  TIP3  OH2          14.4343214044        4.0126507325        5.1514035369  CLST         165          1.0000000000
       494       165  TIP3  H1           13.7069455731        4.6810587680        5.1745255806  CLST         165          1.0000000000
       495       165  TIP3  H2           14.0921971191        3.4120670945        4.5242218025  CLST         165          1.0000000000
       496       166  TIP3  OH2          -6.4504885275      -12.8628086131        5.1871299454  CLST         166          1.0000000000
       497       166  TIP3  H1           -6.4943845560      -12.3507215394        4.4026553169  CLST         166          1.0000000000
       498       166  TIP3  H2           -7.2601028703      -12.4389753131        5.3336127955  CLST         166          1.0000000000
       499       167  TIP3  OH2          -0.0806952687       -7.5310187689       -9.2771910274  CLST         167          1.0000000000
       500       167  TIP3  H1           -0.1161039667       -8.2278990941       -9.8931616437  CLST         167          1.0000000000
       501       167  TIP3  H2            0.8261796102       -7.6767662398       -8.9866368791  CLST         167          1.0000000000
       502       168  TIP3  OH2          -2.6936726126       -2.3442876409        1.7583534235  CLST         168          1.0000000000
       503       168  TIP3  H1           -2.6214540293       -3.0818229160        2.3860497580  CLST         168          1.0000000000
       504       168  TIP3  H2           -2.9238234171       -3.1399573773        1.1515017709  CLST         168          1.0000000000
       505       169  TIP3  OH2           0.5977844560       12.1523876178       12.6753238756  CLST         169          1.0000000000
       506       169  TIP3  H1            1.2559974405       11.3909629305       12.6321261658  CLST         169          1.0000000000
       507       169  TIP3  H2            1.4281955807       12.5752714326       12.9056639809  CLST         169          1.0000000000
       508       170  TIP3  OH2         -14.8414947942      -12.2981620193        4.8226603488  CLST         170          1.0000000000
       509       170  TIP3  H1          -14.0217541307      -12.7861168597        5.1183501546  CLST         170          1.0000000000
       510       170  TIP3  H2          -14.8011376360      -11.9289102443        5.7081262312  CLST         170          1.0000000000
       511       171  TIP3  OH2          -9.8366319737        2.7139261665        2.7730926652  CLST         171          1.0000000000
       512       171  TIP3  H1           -8.9463969355        3.0562038134        2.5959930705  CLST         171          1.0000000000
       513       171  TIP3  H2           -9.4466153816        2.0793326981        3.3827559217  CLST         171          1.0000000000
       514       172  TIP3  OH2          14.0500442140       -7.1183820628      -11.9814765595  CLST         172          1.0000000000
       515       172  TIP3  H1           13.9446565832       -7.1470594590      -10.9993694554  CLST         172          1.0000000000
       516       172  TIP3  H2           13.3290377508       -7.7871927084      -11.8333056022  CLST         172          1.0000000000
       517       173  TIP3  OH2         -12.8109513068       -5.7103454465        2.9908682112  CLST         173          1.0000000000
       518       173  TIP3  H1          -13.3245210681       -4.9453548141        3.2682097099  CLST         173          1.0000000000
       519       173  TIP3  H2          -12.9676017120       -5.5460756240        1.9999457365  CLST         173          1.0000000000
       520       174  TIP3  OH2           5.7676810179      -14.1836284502        5.7657190569  CLST         174          1.0000000000
       521       174  TIP3  H1            5.6672187881      -14.8515558883        6.3315625430  CLST         174          1.0000000000
       522       174  TIP3  H2            4.8965032690      -14.0225944090        6.5094235079  CLST         174          1.0000000000
       523       175  TIP3  OH2           4.4872078394       -3.8006630605        7.7152424711  CLST         175          1.0000000000
       524       175  TIP3  H1            3.8062261550       -4.0354354716        7.0810643692  CLST         175          1.0000000000
       525       175  TIP3  H2            5.1534642291       -3.7290628993        6.9922361799  CLST         175          1.0000000000
       526       176  TIP3  OH2           8.4329811538        2.8373141542      -11.0435214107  CLST         176          1.0000000000
       527       176  TIP3  H1            9.4330434710        2.6274784430      -11.1875658038  CLST         176          1.0000000000
       528       176  TIP3  H2            8.4410233936        1.8923228773      -11.3438430155  CLST         176          1.0000000000
       529       177  TIP3  OH2          -4.0152736554       10.8531787812        7.2429542772  CLST         177          1.0000000000
       530       177  TIP3  H1           -3.0439428942       10.8354342509        6.9671323255  CLST         177          1.0000000000
       531       177  TIP3  H2           -4.1370204027       10.0446664874        6.6823252170  CLST         177          1.0000000000
       532       178  TIP3  OH2           4.2673880424       -6.3066269500        0.6894578140  CLST         178          1.0000000000
       533       178  TIP3  H1            3.5182711643       -6.1173370337        0.0850172261  CLST         178          1.0000000000
       534       178  TIP3  H2            3.5069901923       -6.4352084167        1.2798984107  CLST         178          1.0000000000
       535       179  TIP3  OH2           2.7573241704       -9.7934704575        0.1185524951  CLST         179          1.0000000000
       536       179  TIP3  H1            1.9821435407       -9.2577868742        0.3686492201  CLST         179          1.0000000000
       537       179  TIP3  H2            3.3499383132       -9.3917602490        0.7874232554  CLST         179          1.0000000000
       538       180  TIP3  OH2          -1.8454896031       -3.4380028060        8.3184804868  CLST         180          1.0000000000
       539       180  TIP3  H1           -1.9147959275       -2.5914746922        8.7583021435  CLST         180          1.0000000000
       540       180  TIP3  H2           -2.4229561411       -3.1629589529        7.5685402966  CLST         180          1.0000000000
       541       181  TIP3  OH2         -12.2311883017        0.2659729003      -11.1237095752  CLST         181          1.0000000000
       542       181  TIP3  H1          -11.0875739137       -0.0189767726      -11.0819738601  CLST         181          1.0000000000
       543       181  TIP3  H2          -11.9415550785       -0.3272427311      -10.3967585239  CLST         181          1.0000000000
       544       182  TIP3  OH2         -10.4141142614      -12.8139871114        5.5508750393  CLST         182          1.0000000000
       545       182  TIP3  H1          -11.1320165019      -12.4919991889        6.0641577619  CLST         182          1.0000000000
       546       182  TIP3  H2           -9.8538374061      -12.2682443216        6.1541765187  CLST         182          1.0000000000
       547       183  TIP3  OH2          11.8817430362        5.9517815776        4.6862864782  CLST         183          1.0000000000
       548       183  TIP3  H1           11.8392275807        5.9057520371        3.7288144460  CLST         183          1.0000000000
       549       183  TIP3  H2           11.4051394392        6.8072176132        4.6662765558  CLST         183          1.0000000000
       550       184  TIP3  OH2          -0.4272768326       -0.6222771599        8.0122377923  CLST         184          1.0000000000
       551       184  TIP3  H1            0.5187804130       -0.7152101966        7.8457543824  CLST         184          1.0000000000
       552       184  TIP3  H2           -0.6527960768       -0.8923819165        8.9008678886  CLST         184          1.0000000000
       553       185  TIP3  OH2           9.4107911638       12.8709956670       -3.6110886747  CLST         185          1.0000000000
       554       185  TIP3  H1            8.6643789129       12.3172449014       -3.8423436135  CLST         185          1.0000000000
       555       185  TIP3  H2            8.9538223391       13.7012857225       -3.6948932419  CLST         185          1.0000000000
       556       186  TIP3  OH2          11.9856647679        0.0218812696        4.1325080516  CLST         186          1.0000000000
       557       186  TIP3  H1           12.2420596177        0.2365131099        3.1772956560  CLST         186          1.0000000000
       558       186  TIP3  H2           11.1849565051        0.4865911708        4.0677226568  CLST         186          1.0000000000
       559       187  TIP3  OH2         -10.0840550646       -7.6667083745      -11.7954958053  CLST         187          1.0000000000
       560       187  TIP3  H1          -10.5299674365       -7.4428474223      -10.7719065376  CLST         187          1.0000000000
       561       187  TIP3  H2           -9.7850641932       -6.7983581425      -11.5231974432  CLST         187          1.0000000000
       562       188  TIP3  OH2         -14.6802988373       -0.6402922479        0.6295431678  CLST         188          1.0000000000
       563       188  TIP3  H1          -14.9097018341       -0.5662332331        1.5203093433  CLST         188          1.0000000000
       564       188  TIP3  H2          -14.8477814381       -1.1694794036       -0.1647548376  CLST         188          1.0000000000
       565       189  TIP3  OH2          13.7467533431        1.1415556469       14.3159729230  CLST         189          1.0000000000
       566       189  TIP3  H1           13.2089866771        1.8838060940       14.6359969274  CLST         189          1.0000000000
       567       189  TIP3  H2           14.3568433126        0.7981822614       14.9097018341  CLST         189          1.0000000000
       568       190  TIP3  OH2           0.4312482115       -8.0014429538        3.9054361311  CLST         190          1.0000000000
       569       190  TIP3  H1            0.7362414394       -8.0243428220        4.8633251560  CLST         190          1.0000000000
       570       190  TIP3  H2            0.8974597133       -7.1253988242        3.7887997602  CLST         190          1.0000000000
       571       191  TIP3  OH2          -0.6214555179       14.1786721165       -4.1134954714  CLST         191          1.0000000000
       572       191  TIP3  H1           -1.6918908293       14.1448530589       -3.8217849411  CLST         191          1.0000000000
       573       191  TIP3  H2           -1.1200711205       14.8946529852       -4.1394581563  CLST         191          1.0000000000
       574       192  TIP3  OH2          -5.1554754476       -0.0009058081       -0.9728940930  CLST         192          1.0000000000
       575       192  TIP3  H1           -5.8770945964       -0.5212885387       -1.3103065498  CLST         192          1.0000000000
       576       192  TIP3  H2           -5.8524606627        0.5328111924       -0.5138589485  CLST         192          1.0000000000
       577       193  TIP3  OH2         -12.6743508656      -13.1304628157        6.6940454146  CLST         193          1.0000000000
       578       193  TIP3  H1          -12.0460217733      -13.8057180790        6.8957797467  CLST         193          1.0000000000
       579       193  TIP3  H2          -12.3326770886      -12.5643870236        7.4024769871  CLST         193          1.0000000000
       580       194  TIP3  OH2          12.4753072105       12.5326523486      -11.3894413052  CLST         194          1.0000000000
       581       194  TIP3  H1           12.5991295861       13.2167251812      -12.0032250295  CLST         194          1.0000000000
       582       194  TIP3  H2           13.3813492214       12.3522277126      -11.2987511894  CLST         194          1.0000000000
       583       195  TIP3  OH2           5.1266169918        2.6673813417        3.6800859474  CLST         195          1.0000000000
       584       195  TIP3  H1            4.1972666315        2.8317993167        3.4338267304  CLST         195          1.0000000000
       585       195  TIP3  H2            4.8920728041        1.7596196882        3.3475763605  CLST         195          1.0000000000
       586       196  TIP3  OH2           7.3071659215        6.3613490305       11.5393587003  CLST         196          1.0000000000
       587       196  TIP3  H1            8.0291595446        6.4106449128       12.5431783207  CLST         196          1.0000000000
       588       196  TIP3  H2            6.9918460728        6.9976945419       12.5850872998  CLST         196          1.0000000000
       589       197  TIP3  OH2          -4.4411976475       -9.3786522014        3.8198836534  CLST         197          1.0000000000
       590       197  TIP3  H1           -4.8848927823       -8.9109685790        2.9811043521  CLST         197          1.0000000000
       591       197  TIP3  H2           -3.7777791154       -8.6636782494        3.6915103740  CLST         197          1.0000000000
       592       198  TIP3  OH2          -4.5164473352       -8.8412719237       -5.9871794937  CLST         198          1.0000000000
       593       198  TIP3  H1           -3.9710361122       -8.5348419236       -6.7427473653  CLST         198          1.0000000000
       594       198  TIP3  H2           -5.2087103903       -8.8246673654       -6.5993603533  CLST         198          1.0000000000
       595       199  TIP3  OH2          11.2332539005        7.5261755177       -2.2888670213  CLST         199          1.0000000000
       596       199  TIP3  H1           11.1996617942        8.5115549219       -1.6061887858  CLST         199          1.0000000000
       597       199  TIP3  H2           11.8468588518        7.8377106026       -1.7697990454  CLST         199          1.0000000000
       598       200  TIP3  OH2          -4.7361922966       -7.5104442183       -1.2783988755  CLST         200          1.0000000000
       599       200  TIP3  H1           -3.9997854818       -8.0027392465       -1.5836953431  CLST         200          1.0000000000
       600       200  TIP3  H2           -4.5454269885       -6.7903473317       -1.8842817385  CLST         200          1.0000000000
       601       201  TIP3  OH2          13.7955766516      -10.3722980110       11.7380361893  CLST         201          1.0000000000
       602       201  TIP3  H1           14.3337415526       -9.6868214315       12.1488627754  CLST         201          1.0000000000
       603       201  TIP3  H2           13.0681432658      -10.0975323835       11.1569435787  CLST         201          1.0000000000
       604       202  TIP3  OH2          -2.8473537485       -9.7616388931        8.2217424193  CLST         202          1.0000000000
       605       202  TIP3  H1           -2.1471185534      -10.4244114509        8.4356166845  CLST         202          1.0000000000
       606       202  TIP3  H2           -3.1775307159      -10.1959447316        7.4607883627  CLST         202          1.0000000000
       607       203  TIP3  OH2          10.4081849599        4.2271135785       13.9146108608  CLST         203          1.0000000000
       608       203  TIP3  H1            9.5442707196        3.7474128850       13.2653332630  CLST         203          1.0000000000
       609       203  TIP3  H2           10.2559929052        3.3378873625       13.9855336613  CLST         203          1.0000000000
       610       204  TIP3  OH2          -5.1940444917        6.2704049765        5.9070872531  CLST         204          1.0000000000
       611       204  TIP3  H1           -6.1388134705        6.5611110520        6.0262925442  CLST         204          1.0000000000
       612       204  TIP3  H2           -4.9937444734        6.9081600365        6.6260365394  CLST         204          1.0000000000
       613       205  TIP3  OH2          -2.1737851333        1.3605523514       -4.6607415510  CLST         205          1.0000000000
       614       205  TIP3  H1           -1.3833744449        1.7053118850       -5.1340146650  CLST         205          1.0000000000
       615       205  TIP3  H2           -2.6062876691        2.1158134713       -5.0467023198  CLST         205          1.0000000000
       616       206  TIP3  OH2          -8.7608368063       -1.2585863487        4.5951006040  CLST         206          1.0000000000
       617       206  TIP3  H1           -8.7448950686       -1.5102419292        5.5389899069  CLST         206          1.0000000000
       618       206  TIP3  H2           -7.9257116835       -0.8020940268        4.7987279098  CLST         206          1.0000000000
       619       207  TIP3  OH2          -7.7633045288        9.7270617150        0.3885553070  CLST         207          1.0000000000
       620       207  TIP3  H1           -7.3128481333        8.6953288928        0.4178182036  CLST         207          1.0000000000
       621       207  TIP3  H2           -8.0953809172        9.1245850452        0.9148798474  CLST         207          1.0000000000
       622       208  TIP3  OH2           9.3389603283       14.3113274132      -11.6026956483  CLST         208          1.0000000000
       623       208  TIP3  H1            9.6012042415       13.9762557352      -12.4268660433  CLST         208          1.0000000000
       624       208  TIP3  H2           10.1058039636       14.8888394662      -11.5815603253  CLST         208          1.0000000000
       625       209  TIP3  OH2          -6.4951396236       -6.3631211955      -14.3458333231  CLST         209          1.0000000000
       626       209  TIP3  H1           -7.4039813509       -5.9952145963      -14.5437124969  CLST         209          1.0000000000
       627       209  TIP3  H2           -7.0791677810       -7.0425627410      -13.9384995103  CLST         209          1.0000000000
       628       210  TIP3  OH2          -2.2168770068        1.1669795798        8.0781416143  CLST         210          1.0000000000
       629       210  TIP3  H1           -1.9404691313        0.2271241608        8.1292459101  CLST         210          1.0000000000
       630       210  TIP3  H2           -1.9447244829        1.3538099048        9.0064465831  CLST         210          1.0000000000
       631       211  TIP3  OH2          -0.6464764285        0.0105609080       -2.9821733658  CLST         211          1.0000000000
       632       211  TIP3  H1           -1.4539906719       -0.5009043039       -2.7263557086  CLST         211          1.0000000000
       633       211  TIP3  H2           -1.2660216309        0.6064980935       -3.3310191029  CLST         211          1.0000000000
       634       212  TIP3  OH2           7.1973725263        2.8487009030        5.5217072557  CLST         212          1.0000000000
       635       212  TIP3  H1            6.7562395410        2.1666490414        5.6272529252  CLST         212          1.0000000000
       636       212  TIP3  H2            6.0828891558        2.9339653043        5.2027102494  CLST         212          1.0000000000
       637       213  TIP3  OH2           2.1124545737       -5.0678448224       -0.3970220542  CLST         213          1.0000000000
       638       213  TIP3  H1            1.8287374239       -4.3540925672       -1.0005462164  CLST         213          1.0000000000
       639       213  TIP3  H2            2.0571106715       -5.6079621170       -1.2050698525  CLST         213          1.0000000000
       640       214  TIP3  OH2           2.0698842546       -7.0606982715      -11.7445910497  CLST         214          1.0000000000
       641       214  TIP3  H1            2.5108198720       -7.9247131953      -11.7216287867  CLST         214          1.0000000000
       642       214  TIP3  H2            2.7858345896       -6.8389724830      -11.0705488529  CLST         214          1.0000000000
       643       215  TIP3  OH2         -12.8074464277        2.7197012278      -10.8347733137  CLST         215          1.0000000000
       644       215  TIP3  H1          -12.6951336482        1.7517896794      -10.6551590569  CLST         215          1.0000000000
       645       215  TIP3  H2          -13.0456283472        1.8998050992      -11.6413548906  CLST         215          1.0000000000
       646       216  TIP3  OH2          11.7175181755       -6.3644500652       -4.5226866584  CLST         216          1.0000000000
       647       216  TIP3  H1           10.9012383091       -6.8739272749       -4.2018731028  CLST         216          1.0000000000
       648       216  TIP3  H2           10.9445591422       -5.8506996250       -4.9236135016  CLST         216          1.0000000000
       649       217  TIP3  OH2          -6.6879103648        9.1567922863        4.1592715235  CLST         217          1.0000000000
       650       217  TIP3  H1           -5.7310154006        8.9230751952        4.1223290872  CLST         217          1.0000000000
       651       217  TIP3  H2           -6.9640568062        8.4541642543        3.6250918115  CLST         217          1.0000000000
       652       218  TIP3  OH2           5.7509144870       -7.3549853266       -8.5987496856  CLST         218          1.0000000000
       653       218  TIP3  H1            5.8345773469       -8.4501522000       -8.0448890831  CLST         218          1.0000000000
       654       218  TIP3  H2            5.8296110387       -7.6825116527       -7.4180727402  CLST         218          1.0000000000
       655       219  TIP3  OH2           2.4863113865      -13.7464293083        7.5374419306  CLST         219          1.0000000000
       656       219  TIP3  H1            2.4584337454      -13.5329096227        8.6090399489  CLST         219          1.0000000000
       657       219  TIP3  H2            3.1097156360      -13.1754900081        7.7557844452  CLST         219          1.0000000000
       658       220  TIP3  OH2           2.3727371394        1.4850405340      -11.2252757035  CLST         220          1.0000000000
       659       220  TIP3  H1            2.6647776929        1.2883792304      -12.1129446032  CLST         220          1.0000000000
       660       220  TIP3  H2            3.2736048832        1.1596561479      -11.0451780278  CLST         220          1.0000000000
       661       221  TIP3  OH2           1.6887849827       -0.5618899718        3.0965738796  CLST         221          1.0000000000
       662       221  TIP3  H1            0.8942427046       -0.2335167740        2.5788530528  CLST         221          1.0000000000
       663       221  TIP3  H2            1.7224241727        0.2362055301        3.5855384976  CLST         221          1.0000000000
       664       222  TIP3  OH2          12.1362124652        0.9201668212        1.4458664569  CLST         222          1.0000000000
       665       222  TIP3  H1           12.3142040100        0.8575033890        0.5032090126  CLST         222          1.0000000000
       666       222  TIP3  H2           11.1639979203        0.8603780813        1.2419822369  CLST         222          1.0000000000
       667       223  TIP3  OH2           1.4419592134      -10.5917051883      -12.8775547298  CLST         223          1.0000000000
       668       223  TIP3  H1            1.0934530602      -10.6894714676      -11.9277350806  CLST         223          1.0000000000
       669       223  TIP3  H2            0.6936974928       -9.9492378150      -12.9353264021  CLST         223          1.0000000000
       670       224  TIP3  OH2          -9.0921514037        7.1401962115      -12.6097855749  CLST         224          1.0000000000
       671       224  TIP3  H1           -9.8348409901        6.3376974184      -12.1921053770  CLST         224          1.0000000000
       672       224  TIP3  H2           -8.7348922365        6.2733867934      -12.5386526402  CLST         224          1.0000000000
       673       225  TIP3  OH2          13.1265980902        3.8881812514       -7.6234678278  CLST         225          1.0000000000
       674       225  TIP3  H1           12.1140475298        3.8132843485       -7.6672936623  CLST         225          1.0000000000
       675       225  TIP3  H2           13.0541836920        3.1463008123       -6.9883582507  CLST         225          1.0000000000
       676       226  TIP3  OH2           5.0988122448        5.1025828477       10.5539547629  CLST         226          1.0000000000
       677       226  TIP3  H1            5.7427593084        5.8297810730       10.5060325313  CLST         226          1.0000000000
       678       226  TIP3  H2            5.5845321637        4.9737571241       11.3892193745  CLST         226          1.0000000000
       679       227  TIP3  OH2          -6.3408639078        0.9530201095        9.5913845513  CLST         227          1.0000000000
       680       227  TIP3  H1           -6.6390608006        0.7001858818       10.4619074911  CLST         227          1.0000000000
       681       227  TIP3  H2           -5.9429513129        0.0980329767        9.3566886649  CLST         227          1.0000000000
       682       228  TIP3  OH2          -8.7119197511       -5.3719281388       10.6312603875  CLST         228          1.0000000000
       683       228  TIP3  H1           -9.1640019125       -5.3638904848        9.8280916291  CLST         228          1.0000000000
       684       228  TIP3  H2           -7.8368500540       -5.4814241630       10.3861402951  CLST         228          1.0000000000
       685       229  TIP3  OH2          11.2524690761        7.6696299235      -14.9097018341  CLST         229          1.0000000000
       686       229  TIP3  H1           11.3925175830        8.1666658147      -14.1115838051  CLST         229          1.0000000000
       687       229  TIP3  H2           11.8688068790        7.1220050679      -14.4425913274  CLST         229          1.0000000000
       688       230  TIP3  OH2         -10.7621090788       -3.6476674939        8.7834266784  CLST         230          1.0000000000
       689       230  TIP3  H1          -11.2502810409       -4.4965962051        8.7847744023  CLST         230          1.0000000000
       690       230  TIP3  H2          -11.3018161144       -3.4029993936        9.4831367240  CLST         230          1.0000000000
       691       231  TIP3  OH2          -0.4510426906        2.8435532287      -11.8508030509  CLST         231          1.0000000000
       692       231  TIP3  H1            0.0688002558        2.0945954225      -11.5032503534  CLST         231          1.0000000000
       693       231  TIP3  H2            0.2879504882        2.6960367727      -12.4589441384  CLST         231          1.0000000000
       694       232  TIP3  OH2           1.6572220890      -14.9097018341      -11.7788555713  CLST         232          1.0000000000
       695       232  TIP3  H1            1.6829501384      -13.9599786547      -11.1505454311  CLST         232          1.0000000000
       696       232  TIP3  H2            2.0080876332      -13.9173923869      -12.0584863270  CLST         232          1.0000000000
       697       233  TIP3  OH2         -12.2698714878        9.5810828018        2.3133139862  CLST         233          1.0000000000
       698       233  TIP3  H1          -12.8928224793        9.0624469713        2.8223502229  CLST         233          1.0000000000
       699       233  TIP3  H2          -13.0101638672        9.8286300763        1.7429802499  CLST         233          1.0000000000
       700       234  TIP3  OH2          -2.2027767807        4.5896177943       -8.0358727950  CLST         234          1.0000000000
       701       234  TIP3  H1           -2.2341869298        5.5824189115       -7.9839346224  CLST         234          1.0000000000
       702       234  TIP3  H2           -2.0025632908        4.7240679334       -8.9826335663  CLST         234          1.0000000000
       703       235  TIP3  OH2         -10.2858903605        5.2857735223       -5.5847769083  CLST         235          1.0000000000
       704       235  TIP3  H1          -10.5378595988        4.6406818655       -6.2166245999  CLST         235          1.0000000000
       705       235  TIP3  H2           -9.3524257487        5.0667747046       -5.6628661182  CLST         235          1.0000000000
       706       236  TIP3  OH2         -12.2064172545      -10.7349298862       13.7624157146  CLST         236          1.0000000000
       707       236  TIP3  H1          -11.5415083941      -10.2454486385       13.0069607033  CLST         236          1.0000000000
       708       236  TIP3  H2          -12.6384608939      -10.2448188289       12.9831871851  CLST         236          1.0000000000
       709       237  TIP3  OH2          -6.2539345707       -6.3029247996       10.3450352670  CLST         237          1.0000000000
       710       237  TIP3  H1           -5.9622787880       -6.8663865472        9.6638027584  CLST         237          1.0000000000
       711       237  TIP3  H2           -5.4110723177       -6.2077466535       10.7736991462  CLST         237          1.0000000000
       712       238  TIP3  OH2          -0.9968909316        3.8472137230       -2.6453665987  CLST         238          1.0000000000
       713       238  TIP3  H1           -1.6749084296        4.3510595602       -3.0559228030  CLST         238          1.0000000000
       714       238  TIP3  H2           -1.7264400689        3.2784853182       -2.3591740464  CLST         238          1.0000000000
       715       239  TIP3  OH2           7.9950328087        7.4002829705       -0.0950079619  CLST         239          1.0000000000
       716       239  TIP3  H1            8.3366868441        6.7199988234       -0.6467297011  CLST         239          1.0000000000
       717       239  TIP3  H2            8.8655131443        7.3812470740        0.2867656093  CLST         239          1.0000000000
       718       240  TIP3  OH2          -9.6775364597        8.4435767815        1.7471837482  CLST         240          1.0000000000
       719       240  TIP3  H1          -10.5925430430        8.9042855969        1.7227645944  CLST         240          1.0000000000
       720       240  TIP3  H2          -10.3211736486        7.6555280495        1.6264248248  CLST         240          1.0000000000
       721       241  TIP3  OH2          11.2049989226       -4.2718405150       -1.9205065771  CLST         241          1.0000000000
       722       241  TIP3  H1           10.7614664567       -4.7669538146       -2.6615452327  CLST         241          1.0000000000
       723       241  TIP3  H2           11.9123481202       -4.3145181509       -2.6034629472  CLST         241          1.0000000000
       724       242  TIP3  OH2           9.6389993758       -1.4107978299       -4.4245016130  CLST         242          1.0000000000
       725       242  TIP3  H1           10.3416799871       -1.0218097516       -3.9424945396  CLST         242          1.0000000000
       726       242  TIP3  H2            9.5635156357       -2.0876865228       -3.7559825835  CLST         242          1.0000000000
       727       243  TIP3  OH2           5.2485756492        9.6999581433      -12.3423087292  CLST         243          1.0000000000
       728       243  TIP3  H1            4.8394823568       10.2549352678      -11.8525225347  CLST         243          1.0000000000
       729       243  TIP3  H2            4.7729407009        9.3250025802      -11.3489867477  CLST         243          1.0000000000
       730       244  TIP3  OH2          -9.1989873911       -6.6010942698      -14.3289160335  CLST         244          1.0000000000
       731       244  TIP3  H1           -9.5019260700       -6.4892991997      -13.4365554298  CLST         244          1.0000000000
       732       244  TIP3  H2          -10.0528103907       -6.2645495650      -14.6161687544  CLST         244          1.0000000000
       733       245  TIP3  OH2         -13.0408432904        6.1221601818        2.5800354396  CLST         245          1.0000000000
       734       245  TIP3  H1          -12.8181730815        6.6458418181        3.3621814063  CLST         245          1.0000000000
       735       245  TIP3  H2          -12.1830795240        5.7526792898        2.7669771831  CLST         245          1.0000000000
       736       246  TIP3  OH2          -9.2731323446        6.2263207145       -1.8982560033  CLST         246          1.0000000000
       737       246  TIP3  H1          -10.1911705249        5.9489294913       -2.0163679331  CLST         246          1.0000000000
       738       246  TIP3  H2           -9.4220798263        7.1521955061       -2.2158560281  CLST         246          1.0000000000
       739       247  TIP3  OH2          -4.3990596267        8.1448624481        7.8843163187  CLST         247          1.0000000000
       740       247  TIP3  H1           -3.4967692272        8.3772472033        7.9485396988  CLST         247          1.0000000000
       741       247  TIP3  H2           -4.2411494235        7.7646244600        8.7648828578  CLST         247          1.0000000000
       742       248  TIP3  OH2           9.8490724409       -7.9711309323        7.6749962929  CLST         248          1.0000000000
       743       248  TIP3  H1            9.0808713984       -8.4209163536        7.3841214395  CLST         248          1.0000000000
       744       248  TIP3  H2            9.8199904774       -7.6744968562        6.7006466153  CLST         248          1.0000000000
       745       249  TIP3  OH2           9.9092086057        5.6758739718       -1.0941613931  CLST         249          1.0000000000
       746       249  TIP3  H1           10.4380313186        4.9028760571       -1.0500505335  CLST         249          1.0000000000
       747       249  TIP3  H2           10.4413515588        5.9915028413       -1.8777546701  CLST         249          1.0000000000
       748       250  TIP3  OH2           6.1208396618       -4.5673572314        3.1086002907  CLST         250          1.0000000000
       749       250  TIP3  H1            5.9563969208       -5.5349520282        2.5650006672  CLST         250          1.0000000000
       750       250  TIP3  H2            5.4717513388       -5.0294508914        3.2124981008  CLST         250          1.0000000000
       751       251  TIP3  OH2         -14.8337716514      -11.5827458345        1.9080117482  CLST         251          1.0000000000
       752       251  TIP3  H1          -14.4698774431      -12.2902905271        1.3579548018  CLST         251          1.0000000000
       753       251  TIP3  H2          -14.4220435595      -11.9777829945        2.6926998071  CLST         251          1.0000000000
       754       252  TIP3  OH2          -6.7908187205      -14.7779294246      -11.8107984030  CLST         252          1.0000000000
       755       252  TIP3  H1           -7.7098414623      -14.4277648285      -11.7316055142  CLST         252          1.0000000000
       756       252  TIP3  H2           -6.7861268230      -14.1156465019      -12.5961365919  CLST         252          1.0000000000
       757       253  TIP3  OH2           0.7454261786        7.6979704687        7.7788631034  CLST         253          1.0000000000
       758       253  TIP3  H1            0.4733950162        7.3143557540        6.8926981577  CLST         253          1.0000000000
       759       253  TIP3  H2            1.6160424830        7.7397063136        7.3703976897  CLST         253          1.0000000000
       760       254  TIP3  OH2         -11.3582846707        1.1293486161      -14.4548909854  CLST         254          1.0000000000
       761       254  TIP3  H1          -11.6800296618        0.2213301250      -14.6426718804  CLST         254          1.0000000000
       762       254  TIP3  H2          -12.3318055364        1.1784988989      -14.2672365336  CLST         254          1.0000000000
       763       255  TIP3  OH2           4.1865585479        0.3086105515       -0.8259529784  CLST         255          1.0000000000
       764       255  TIP3  H1            3.8200288697       -0.1417763102       -0.0091169990  CLST         255          1.0000000000
       765       255  TIP3  H2            3.3517322419       -0.0197647195       -1.1517289071  CLST         255          1.0000000000
       766       256  TIP3  OH2          14.2811478691       -3.3093364083      -12.1689614509  CLST         256          1.0000000000
       767       256  TIP3  H1           14.7980918359       -3.0863535291      -12.8775118707  CLST         256          1.0000000000
       768       256  TIP3  H2           13.8198336627       -3.9096011040      -12.7785204323  CLST         256          1.0000000000
       769       257  TIP3  OH2          -6.4948486983      -13.2679661827       10.2702930453  CLST         257          1.0000000000
       770       257  TIP3  H1           -6.8551853699      -14.1379061877       10.1752970662  CLST         257          1.0000000000
       771       257  TIP3  H2           -5.6536986256      -13.7512450722       10.3299955712  CLST         257          1.0000000000
       772       258  TIP3  OH2         -10.3805367788      -11.6581346524       -6.4968943518  CLST         258          1.0000000000
       773       258  TIP3  H1          -10.2043814740      -11.3548446716       -5.5616573409  CLST         258          1.0000000000
       774       258  TIP3  H2          -10.1357017941      -10.7262879435       -6.6320123832  CLST         258          1.0000000000
       775       259  TIP3  OH2           3.0194291550        1.6781400820       14.0373022950  CLST         259          1.0000000000
       776       259  TIP3  H1            3.0957716987        0.7088616043       13.7902170114  CLST         259          1.0000000000
       777       259  TIP3  H2            2.9568806989        1.2378654612       14.9097018341  CLST         259          1.0000000000
       778       260  TIP3  OH2         -10.6725763352      -10.1715342313       -9.7985414887  CLST         260          1.0000000000
       779       260  TIP3  H1          -11.4089633823      -10.6213966079      -10.1731497684  CLST         260          1.0000000000
       780       260  TIP3  H2          -11.0706343436       -9.3388482706       -9.6498157663  CLST         260          1.0000000000
       781       261  TIP3  OH2           6.8008354935        0.8047223646       -0.2949959083  CLST         261          1.0000000000
       782       261  TIP3  H1            6.6893017551        1.4514473028       -1.0428404879  CLST         261          1.0000000000
       783       261  TIP3  H2            5.8780294061        0.9972712573       -0.1044087294  CLST         261          1.0000000000
       784       262  TIP3  OH2          -1.8717067301       14.2346542258        3.0391879861  CLST         262          1.0000000000
       785       262  TIP3  H1           -2.1182169720       13.7035953089        3.8648602121  CLST         262          1.0000000000
       786       262  TIP3  H2           -0.9969732110       13.7346401990        3.2350015727  CLST         262          1.0000000000
       787       263  TIP3  OH2           6.5595264298        3.9472058791        1.7485742776  CLST         263          1.0000000000
       788       263  TIP3  H1            5.8596626090        3.5712926546        1.1167124178  CLST         263          1.0000000000
       789       263  TIP3  H2            6.2177257885        3.1941836473        2.2986465014  CLST         263          1.0000000000
       790       264  TIP3  OH2          -2.9618327744       10.2504688377       10.2330631505  CLST         264          1.0000000000
       791       264  TIP3  H1           -2.1937361377       10.9894853004        9.8888355658  CLST         264          1.0000000000
       792       264  TIP3  H2           -2.4007757372       10.2473507020        9.2784688167  CLST         264          1.0000000000
       793       265  TIP3  OH2         -12.5994874269       12.8340027636       -0.2139231303  CLST         265          1.0000000000
       794       265  TIP3  H1          -12.8433273754       13.2200128033       -1.1102635585  CLST         265          1.0000000000
       795       265  TIP3  H2          -13.3602232108       12.3179592437       -0.3182574774  CLST         265          1.0000000000
       796       266  TIP3  OH2          -3.8383309941        1.5585283720        3.9684483520  CLST         266          1.0000000000
       797       266  TIP3  H1           -3.9984518407        0.8937409840        3.1923164649  CLST         266          1.0000000000
       798       266  TIP3  H2           -3.9578493200        2.1619652695        3.2360831750  CLST         266          1.0000000000
       799       267  TIP3  OH2          -6.8219406760       11.4883713695       -5.2227555232  CLST         267          1.0000000000
       800       267  TIP3  H1           -7.2776513043       11.1866027847       -6.0336473117  CLST         267          1.0000000000
       801       267  TIP3  H2           -7.7225076968       11.6509457574       -4.9266305130  CLST         267          1.0000000000
       802       268  TIP3  OH2           4.7014385334        3.5972968072      -13.9110275407  CLST         268          1.0000000000
       803       268  TIP3  H1            5.3139821932        3.9390997250      -13.3154326363  CLST         268          1.0000000000
       804       268  TIP3  H2            4.5854457769        4.4540774348      -14.3649711856  CLST         268          1.0000000000
       805       269  TIP3  OH2           9.4741822347       -0.5053563082       11.0869900209  CLST         269          1.0000000000
       806       269  TIP3  H1           10.2246333354       -0.1027593562       11.5001853611  CLST         269          1.0000000000
       807       269  TIP3  H2            9.3770912547       -0.7035446367       12.0398401336  CLST         269          1.0000000000
       808       270  TIP3  OH2          -8.2060407480       -5.9127849719        6.0988645462  CLST         270          1.0000000000
       809       270  TIP3  H1           -8.3739480203       -5.6260161360        5.2119168661  CLST         270          1.0000000000
       810       270  TIP3  H2           -7.9497201841       -5.0064726642        6.2604398457  CLST         270          1.0000000000
       811       271  TIP3  OH2         -11.8334561169       12.0483335713       11.4719390431  CLST         271          1.0000000000
       812       271  TIP3  H1          -11.2952836434       12.5660609077       12.1935987505  CLST         271          1.0000000000
       813       271  TIP3  H2          -11.4860029343       12.8235583652       10.9986292226  CLST         271          1.0000000000
       814       272  TIP3  OH2           6.9742425251      -14.1777912766        3.4357373727  CLST         272          1.0000000000
       815       272  TIP3  H1            7.6429737160      -13.4897800167        3.6015522429  CLST         272          1.0000000000
       816       272  TIP3  H2            6.6869396517      -13.8635426342        4.3052868440  CLST         272          1.0000000000
       817       273  TIP3  OH2          -8.5093120682       10.9614146672       -7.5165502639  CLST         273          1.0000000000
       818       273  TIP3  H1           -9.2900860398       11.2291665317       -8.1329973635  CLST         273          1.0000000000
       819       273  TIP3  H2           -9.1425067430       10.1698545043       -7.4420964664  CLST         273          1.0000000000
       820       274  TIP3  OH2          -6.7661994073        0.2754473187       14.0740751340  CLST         274          1.0000000000
       821       274  TIP3  H1           -7.5915826804        0.4525832773       14.5661426055  CLST         274          1.0000000000
       822       274  TIP3  H2           -7.4495229996        0.3902314636       13.2965723267  CLST         274          1.0000000000
       823       275  TIP3  OH2           3.6856960852      -14.8828171355       -0.9558737434  CLST         275          1.0000000000
       824       275  TIP3  H1            3.2297902792      -14.0338704868       -0.7829355144  CLST         275          1.0000000000
       825       275  TIP3  H2            4.0136811829      -14.6679401503       -1.7722243494  CLST         275          1.0000000000
       826       276  TIP3  OH2           2.4792037140       -9.9099229809        7.3370130008  CLST         276          1.0000000000
       827       276  TIP3  H1            2.5050194886      -10.4505014730        8.1469113093  CLST         276          1.0000000000
       828       276  TIP3  H2            3.3509836679       -9.6604645991        7.5706049892  CLST         276          1.0000000000
       829       277  TIP3  OH2          -7.2640077712        7.0225628388        2.6588900466  CLST         277          1.0000000000
       830       277  TIP3  H1           -7.8307714171        6.5117817031        2.0426636222  CLST         277          1.0000000000
       831       277  TIP3  H2           -6.9607859169        6.1081577892        2.7614948562  CLST         277          1.0000000000
       832       278  TIP3  OH2           4.9202667757      -10.6538658462        9.9503979713  CLST         278          1.0000000000
       833       278  TIP3  H1            5.0134520928       -9.8335343667        9.4876996617  CLST         278          1.0000000000
       834       278  TIP3  H2            4.6471051317      -10.4072343036       10.8318326963  CLST         278          1.0000000000
       835       279  TIP3  OH2          11.9390161807       -5.7084232325        7.2371895534  CLST         279          1.0000000000
       836       279  TIP3  H1           11.5815172878       -6.0928701389        6.4410597194  CLST         279          1.0000000000
       837       279  TIP3  H2           12.3469525151       -5.1319112563        6.5824568810  CLST         279          1.0000000000
       838       280  TIP3  OH2           6.9614260807       -8.9433971467       12.8469177366  CLST         280          1.0000000000
       839       280  TIP3  H1            7.4243332260       -9.8160738509       13.0548552964  CLST         280          1.0000000000
       840       280  TIP3  H2            7.7785437988       -8.4592662436       12.9873121221  CLST         280          1.0000000000
       841       281  TIP3  OH2          -1.5781731721        4.7870813989       10.7867475753  CLST         281          1.0000000000
       842       281  TIP3  H1           -2.0688266787        3.9600457132       10.9757699602  CLST         281          1.0000000000
       843       281  TIP3  H2           -1.5372709191        4.8501487428       11.7444180911  CLST         281          1.0000000000
       844       282  TIP3  OH2          10.5090792883       10.5811648564      -10.8542249978  CLST         282          1.0000000000
       845       282  TIP3  H1           10.9421874654        9.6617165382      -10.8509259917  CLST         282          1.0000000000
       846       282  TIP3  H2           11.3902760148       10.7062799727      -11.2992166532  CLST         282          1.0000000000
       847       283  TIP3  OH2          -3.0614570316       -4.4860433111        0.0432278523  CLST         283          1.0000000000
       848       283  TIP3  H1           -3.6490533969       -4.7418378727       -0.6776944024  CLST         283          1.0000000000
       849       283  TIP3  H2           -3.1837803784       -5.4369434547        0.3296829505  CLST         283          1.0000000000
       850       284  TIP3  OH2           4.0525025663       10.7000811487        2.0520389062  CLST         284          1.0000000000
       851       284  TIP3  H1            4.4035430575        9.8267432101        1.6563439580  CLST         284          1.0000000000
       852       284  TIP3  H2            3.4085876782       10.1086071343        2.5185379703  CLST         284          1.0000000000
       853       285  TIP3  OH2         -11.7504559069       -6.1553868093        8.2907746577  CLST         285          1.0000000000
       854       285  TIP3  H1          -10.9694089184       -6.7007036075        8.0065884275  CLST         285          1.0000000000
       855       285  TIP3  H2          -11.9629757179       -6.1875207172        7.3436293307  CLST         285          1.0000000000
       856       286  TIP3  OH2          -2.7967779403       -9.6376641993      -10.7685967706  CLST         286          1.0000000000
       857       286  TIP3  H1           -3.2290479939       -9.4544979861      -11.6124546038  CLST         286          1.0000000000
       858       286  TIP3  H2           -3.6487074336       -9.9530714018      -10.4654778855  CLST         286          1.0000000000
       859       287  TIP3  OH2           2.8553803970       -1.0539820960       -7.7950098980  CLST         287          1.0000000000
       860       287  TIP3  H1            2.9992136124       -0.0285732374       -7.8882450103  CLST         287          1.0000000000
       861       287  TIP3  H2            3.6424288676       -0.5212302991       -8.4487961419  CLST         287          1.0000000000
       862       288  TIP3  OH2          13.6741608595      -14.4223922391       -8.6013073859  CLST         288          1.0000000000
       863       288  TIP3  H1           13.4272574728      -13.5965998483       -8.1047153514  CLST         288          1.0000000000
       864       288  TIP3  H2           14.1918171631      -14.9001129142       -8.0458528963  CLST         288          1.0000000000
       865       289  TIP3  OH2          14.0863398900        3.5291437600      -10.1423214024  CLST         289          1.0000000000
       866       289  TIP3  H1           13.8300392804        3.8040398557       -9.3120518725  CLST         289          1.0000000000
       867       289  TIP3  H2           14.9097018341        3.2051284173       -9.8303740681  CLST         289          1.0000000000
       868       290  TIP3  OH2          11.4883250197        1.0913595259       11.7549606110  CLST         290          1.0000000000
       869       290  TIP3  H1           11.7346288594        1.5275770531       12.6495818014  CLST         290          1.0000000000
       870       290  TIP3  H2           11.4929021602        2.2056072668       11.9122766446  CLST         290          1.0000000000
       871       291  TIP3  OH2         -11.4689844252       -9.2666613751       -2.7171434092  CLST         291          1.0000000000
       872       291  TIP3  H1          -10.8669088267       -9.8441941895       -2.1277530499  CLST         291          1.0000000000
       873       291  TIP3  H2          -11.4278187405       -8.7063487642       -1.9500299927  CLST         291          1.0000000000
       874       292  TIP3  OH2           8.8513675088       -1.8665298762      -11.6379492873  CLST         292          1.0000000000
       875       292  TIP3  H1            8.2077769849       -2.6368896939      -11.7423394177  CLST         292          1.0000000000
       876       292  TIP3  H2            9.0924744671       -2.0808263057      -10.7541960379  CLST         292          1.0000000000
       877       293  TIP3  OH2           2.2332687322        2.5019473643      -13.6152769603  CLST         293          1.0000000000
       878       293  TIP3  H1            2.1897937257        3.4926786011      -13.4937594535  CLST         293          1.0000000000
       879       293  TIP3  H2            3.1566268972        2.6687514686      -13.5595763877  CLST         293          1.0000000000
       880       294  TIP3  OH2           1.8305068598        8.1823109844        1.1959999921  CLST         294          1.0000000000
       881       294  TIP3  H1            1.2807774882        7.3927754503        1.3941916863  CLST         294          1.0000000000
       882       294  TIP3  H2            2.3002815239        8.3823981089        2.0451906493  CLST         294          1.0000000000
       883       295  TIP3  OH2           3.3848694235       12.8074614138       -4.4148023064  CLST         295          1.0000000000
       884       295  TIP3  H1            2.9190684338       13.4601916111       -3.8711849903  CLST         295          1.0000000000
       885       295  TIP3  H2            3.7230863593       13.6204616527       -4.9073831217  CLST         295          1.0000000000
       886       296  TIP3  OH2           3.0022278759        5.5091703111      -11.0287407281  CLST         296          1.0000000000
       887       296  TIP3  H1            2.5290611952        5.4305821220      -11.8870079074  CLST         296          1.0000000000
       888       296  TIP3  H2            2.2530795762        4.8588773485      -10.8081631629  CLST         296          1.0000000000
       889       297  TIP3  OH2          13.4748739420        0.0030218193        9.0292774772  CLST         297          1.0000000000
       890       297  TIP3  H1           13.4826790220        0.9527076777        9.0472009346  CLST         297          1.0000000000
       891       297  TIP3  H2           14.3768368945       -0.0659104529        9.3185432230  CLST         297          1.0000000000
       892       298  TIP3  OH2          12.4350297711       -5.0009761579      -12.6591064464  CLST         298          1.0000000000
       893       298  TIP3  H1           11.8658685871       -5.6701668405      -13.0973953472  CLST         298          1.0000000000
       894       298  TIP3  H2           12.9531693800       -5.7822826804      -12.5180023405  CLST         298          1.0000000000
       895       299  TIP3  OH2           3.1626705893       -5.5929486399       -7.4256346221  CLST         299          1.0000000000
       896       299  TIP3  H1            2.5728494932       -4.8662194966       -7.8094661243  CLST         299          1.0000000000
       897       299  TIP3  H2            3.2981060926       -5.0398733398       -6.6908996122  CLST         299          1.0000000000
       898       300  TIP3  OH2          10.3188686818       -6.7641778794      -13.8200192315  CLST         300          1.0000000000
       899       300  TIP3  H1            9.8225028250       -5.9019585683      -14.4801115030  CLST         300          1.0000000000
       900       300  TIP3  H2            9.4716736491       -6.5745943328      -13.7334320873  CLST         300          1.0000000000
       901       301  TIP3  OH2          11.2430276068       -6.6725814917        0.3686403624  CLST         301          1.0000000000
       902       301  TIP3  H1           11.1787296635       -5.9746785174       -0.2325139141  CLST         301          1.0000000000
       903       301  TIP3  H2           10.9960602820       -7.2483803240       -0.3428499415  CLST         301          1.0000000000
       904       302  TIP3  OH2          11.3264996719       -7.0898175954       11.7022474517  CLST         302          1.0000000000
       905       302  TIP3  H1           11.6756741323       -6.5282827807       11.0835334042  CLST         302          1.0000000000
       906       302  TIP3  H2           11.3047275639       -7.8552577321       11.1310073850  CLST         302          1.0000000000
       907       303  TIP3  OH2          -8.7854633409       11.7036829099        6.8195132290  CLST         303          1.0000000000
       908       303  TIP3  H1           -9.4033016649       11.9516021584        6.0476574700  CLST         303          1.0000000000
       909       303  TIP3  H2           -8.3462742019       12.5426430983        6.5517713066  CLST         303          1.0000000000
       910       304  TIP3  OH2          -1.8900700984        8.4727630730       -0.8922234242  CLST         304          1.0000000000
       911       304  TIP3  H1           -2.8441385761        7.7209344231       -0.6171694334  CLST         304          1.0000000000
       912       304  TIP3  H2           -2.6343554129        8.6521965334       -0.6454230776  CLST         304          1.0000000000
       913       305  TIP3  OH2          -2.4173414288       -6.2790645686      -10.4441664006  CLST         305          1.0000000000
       914       305  TIP3  H1           -1.7891640370       -5.6242580745      -11.2513718625  CLST         305          1.0000000000
       915       305  TIP3  H2           -1.6201497837       -6.5094179154      -11.0299287529  CLST         305          1.0000000000
       916       306  TIP3  OH2          -8.6683964215      -14.6314523409       -6.5654191242  CLST         306          1.0000000000
       917       306  TIP3  H1           -7.8877125517      -14.3695529595       -7.0448393624  CLST         306          1.0000000000
       918       306  TIP3  H2           -8.2589881817      -14.1940153317       -5.8029243415  CLST         306          1.0000000000
       919       307  TIP3  OH2           0.8793473447       10.3072390480      -14.4761209956  CLST         307          1.0000000000
       920       307  TIP3  H1            1.3325412941       10.8064402410      -13.8278594933  CLST         307          1.0000000000
       921       307  TIP3  H2            1.6923500814        9.7814281806      -14.3824124263  CLST         307          1.0000000000
       922       308  TIP3  OH2          12.3666308609       -3.3828882689       13.2163465324  CLST         308          1.0000000000
       923       308  TIP3  H1           12.2780324778       -3.2371745909       12.2183068575  CLST         308          1.0000000000
       924       308  TIP3  H2           13.2523158073       -3.7478913711       13.3704253219  CLST         308          1.0000000000
       925       309  TIP3  OH2          13.0132821522       12.8289029174       14.8946196817  CLST         309          1.0000000000
       926       309  TIP3  H1           13.4842918127       12.0287212976       14.8133810717  CLST         309          1.0000000000
       927       309  TIP3  H2           12.6247873549       12.8382021011       14.0222283023  CLST         309          1.0000000000
       928       310  TIP3  OH2           4.2246901394       14.4564921975       -6.6189329386  CLST         310          1.0000000000
       929       310  TIP3  H1            3.8392627769       14.7531872477       -7.2568835577  CLST         310          1.0000000000
       930       310  TIP3  H2            4.0177226795       13.7883318156       -7.4849812443  CLST         310          1.0000000000
       931       311  TIP3  OH2          -5.7744898217        5.8284522079       -5.3920857923  CLST         311          1.0000000000
       932       311  TIP3  H1           -6.6739450420        5.4764286984       -5.1456038779  CLST         311          1.0000000000
       933       311  TIP3  H2           -6.0924078154        5.5746927069       -6.2783296236  CLST         311          1.0000000000
       934       312  TIP3  OH2           4.8789746283       -8.9094639909        7.8882026414  CLST         312          1.0000000000
       935       312  TIP3  H1            4.7144086364       -7.9949736891        8.2115928410  CLST         312          1.0000000000
       936       312  TIP3  H2            5.8121583379       -8.7646437010        8.0378600508  CLST         312          1.0000000000
       937       313  TIP3  OH2          -2.1687647991        7.8951978619       11.0758855194  CLST         313          1.0000000000
       938       313  TIP3  H1           -2.9032156525        8.5606462946       11.1747529428  CLST         313          1.0000000000
       939       313  TIP3  H2           -2.8996743980        7.4057855006       10.6662514851  CLST         313          1.0000000000
       940       314  TIP3  OH2           9.6399078555       -2.4641501736       -2.0547187950  CLST         314          1.0000000000
       941       314  TIP3  H1            9.5952248129       -3.4680197973       -2.0820158873  CLST         314          1.0000000000
       942       314  TIP3  H2            8.9470748245       -2.7232136380       -1.3974792965  CLST         314          1.0000000000
       943       315  TIP3  OH2           4.4116875340        9.9390550562       -2.7847240491  CLST         315          1.0000000000
       944       315  TIP3  H1            3.8192025961        9.3267212137       -2.3052576723  CLST         315          1.0000000000
       945       315  TIP3  H2            4.2207735608       10.7052640717       -2.1781403133  CLST         315          1.0000000000
       946       316  TIP3  OH2          13.9824291937       -6.4964774885       -6.0869484113  CLST         316          1.0000000000
       947       316  TIP3  H1           13.0263387289       -6.3391790091       -5.8897168917  CLST         316          1.0000000000
       948       316  TIP3  H2           13.8219840177       -5.8686166822       -6.8325678666  CLST         316          1.0000000000
       949       317  TIP3  OH2          -3.1671763356       -9.8131929311       -2.7243931755  CLST         317          1.0000000000
       950       317  TIP3  H1           -3.0014240964       -9.7920566136       -3.7261512841  CLST         317          1.0000000000
       951       317  TIP3  H2           -2.1846216028       -9.5017808070       -2.8029153644  CLST         317          1.0000000000
       952       318  TIP3  OH2          -1.2722583717        9.8070562083       -5.1565188949  CLST         318          1.0000000000
       953       318  TIP3  H1           -2.1775068389        9.4785319398       -5.3806295041  CLST         318          1.0000000000
       954       318  TIP3  H2           -1.5162023888       10.6949376048       -5.2822181540  CLST         318          1.0000000000
       955       319  TIP3  OH2           6.3745320734       -8.0347591774       -1.9177255690  CLST         319          1.0000000000
       956       319  TIP3  H1            6.8555289196       -8.3438118585       -2.6983466611  CLST         319          1.0000000000
       957       319  TIP3  H2            6.7353342865       -8.8536159724       -1.5254657173  CLST         319          1.0000000000
       958       320  TIP3  OH2           5.7720002438       12.7343752722      -12.4160778567  CLST         320          1.0000000000
       959       320  TIP3  H1            5.8637458448       12.3347673838      -13.2932464189  CLST         320          1.0000000000
       960       320  TIP3  H2            6.4725596579       12.0517853704      -12.2470900942  CLST         320          1.0000000000
       961       321  TIP3  OH2           1.3980844925      -11.2242740749        9.3393794635  CLST         321          1.0000000000
       962       321  TIP3  H1            1.9056758423      -11.6896513816       10.0106626524  CLST         321          1.0000000000
       963       321  TIP3  H2            1.6207439747      -10.5134101577        9.8918018576  CLST         321          1.0000000000
       964       322  TIP3  OH2           0.9743269163        5.9079713312        9.8099696453  CLST         322          1.0000000000
       965       322  TIP3  H1            0.5771384687        6.4943641965        9.1370918025  CLST         322          1.0000000000
       966       322  TIP3  H2            0.0913000556        5.5685705996        9.9916739557  CLST         322          1.0000000000
       967       323  TIP3  OH2           8.0536185324        3.2196705349       12.7767047843  CLST         323          1.0000000000
       968       323  TIP3  H1            7.1027482063        3.3100613317       12.6836334564  CLST         323          1.0000000000
       969       323  TIP3  H2            7.9941786104        3.0237236986       11.8515728696  CLST         323          1.0000000000
       970       324  TIP3  OH2           6.1088993768        3.0181125543       -1.6259149618  CLST         324          1.0000000000
       971       324  TIP3  H1            5.8849591209        3.9096739545       -1.6019053764  CLST         324          1.0000000000
       972       324  TIP3  H2            5.7801410089        2.7793857833       -2.4378705830  CLST         324          1.0000000000
       973       325  TIP3  OH2         -12.2645121196       -8.9319064453       11.7938010052  CLST         325          1.0000000000
       974       325  TIP3  H1          -12.2683902167       -7.9833897092       11.4768029200  CLST         325          1.0000000000
       975       325  TIP3  H2          -11.2883088641       -8.2882079198       11.9779433489  CLST         325          1.0000000000
       976       326  TIP3  OH2         -12.3021732492        9.2635451405       -5.3579780375  CLST         326          1.0000000000
       977       326  TIP3  H1          -12.1297622938       10.2066582777       -5.2203992888  CLST         326          1.0000000000
       978       326  TIP3  H2          -11.9196158259        9.2421136328       -6.1902990260  CLST         326          1.0000000000
       979       327  TIP3  OH2          12.2679256718       -5.6991234813        9.7091556844  CLST         327          1.0000000000
       980       327  TIP3  H1           12.1841289038       -6.3327895200        8.8872234090  CLST         327          1.0000000000
       981       327  TIP3  H2           12.6586531123       -5.1798591957        8.9713741631  CLST         327          1.0000000000
       982       328  TIP3  OH2         -12.4254735198       -8.2175015046      -13.0697517261  CLST         328          1.0000000000
       983       328  TIP3  H1          -11.6215975679       -8.2911533535      -12.5023590729  CLST         328          1.0000000000
       984       328  TIP3  H2          -12.1042579044       -9.1698934630      -13.2303892491  CLST         328          1.0000000000
       985       329  TIP3  OH2           6.7457817126       -4.5756048089       -1.8799767895  CLST         329          1.0000000000
       986       329  TIP3  H1            6.1152064255       -4.3891901945       -0.9199346963  CLST         329          1.0000000000
       987       329  TIP3  H2            5.8023403476       -4.2251361167       -1.8895183355  CLST         329          1.0000000000
       988       330  TIP3  OH2          13.0154470834        5.7472942750      -14.0726169454  CLST         330          1.0000000000
       989       330  TIP3  H1           13.8158783480        6.0898607479      -14.4302187389  CLST         330          1.0000000000
       990       330  TIP3  H2           13.3461575604        5.5386368351      -13.2108289836  CLST         330          1.0000000000
       991       331  TIP3  OH2          -4.4152125744        0.0239926052        6.1491371457  CLST         331          1.0000000000
       992       331  TIP3  H1           -4.3531265140        0.5696886684        5.3173794038  CLST         331          1.0000000000
       993       331  TIP3  H2           -5.3950325224        0.1862842502        6.1053191382  CLST         331          1.0000000000
       994       332  TIP3  OH2          -8.7813981063        9.2905662617       -2.1199591750  CLST         332          1.0000000000
       995       332  TIP3  H1           -9.3802937465       10.0146496625       -1.8438484979  CLST         332          1.0000000000
       996       332  TIP3  H2           -8.3847967974        9.4108573499       -1.2716551682  CLST         332          1.0000000000
       997       333  TIP3  OH2          -6.9541749011       -8.9192513481       -6.8242484999  CLST         333          1.0000000000
       998       333  TIP3  H1           -7.5351413905       -9.2784929682       -7.5327444979  CLST         333          1.0000000000
       999       333  TIP3  H2           -7.4677935296       -8.1155752970       -6.7998599376  CLST         333          1.0000000000
      1000       334  TIP3  OH2         -10.6829987789        8.1995715496       -9.6188631238  CLST         334          1.0000000000
      1001       334  TIP3  H1          -10.0017202080        8.8621127029       -9.7393137747  CLST         334          1.0000000000
      1002       334  TIP3  H2          -10.4404574667        8.3100413324       -8.6792882084  CLST         334          1.0000000000
      1003       335  TIP3  OH2           1.5996372214        0.2031165573       -0.9390958551  CLST         335          1.0000000000
      1004       335  TIP3  H1            1.1894484692       -0.6705125117       -0.6765048149  CLST         335          1.0000000000
      1005       335  TIP3  H2            1.0075335727        0.2037984027       -1.7560431187  CLST         335          1.0000000000
      1006       336  TIP3  OH2          11.3828045574        5.6022565639        1.4040887992  CLST         336          1.0000000000
      1007       336  TIP3  H1           10.5105387244        5.3023153947        1.0584468143  CLST         336          1.0000000000
      1008       336  TIP3  H2           10.9996536454        6.3889901034        1.1818208573  CLST         336          1.0000000000
      1009       337  TIP3  OH2           2.3103686878      -14.9097018341        5.1899414061  CLST         337          1.0000000000
      1010       337  TIP3  H1            2.0947054339      -14.1788977230        5.7960081934  CLST         337          1.0000000000
      1011       337  TIP3  H2            1.4638495830      -14.7644168621        4.6888252640  CLST         337          1.0000000000
      1012       338  TIP3  OH2          -4.2367350212        2.6846512801      -11.8266377322  CLST         338          1.0000000000
      1013       338  TIP3  H1           -5.0226412012        2.8884928422      -12.4767213521  CLST         338          1.0000000000
      1014       338  TIP3  H2           -4.4522090971        1.8118317396      -12.2541450665  CLST         338          1.0000000000
      1015       339  TIP3  OH2           5.1761109870        2.2457316290       -8.0628546354  CLST         339          1.0000000000
      1016       339  TIP3  H1            4.1945220375        2.2659557473       -8.2959238397  CLST         339          1.0000000000
      1017       339  TIP3  H2            5.1456000315        3.0178174594       -8.6656295497  CLST         339          1.0000000000
      1018       340  TIP3  OH2         -10.7391912602       12.0618880080       -9.0959803880  CLST         340          1.0000000000
      1019       340  TIP3  H1          -11.6961630946       11.8765099744       -9.0926532575  CLST         340          1.0000000000
      1020       340  TIP3  H2          -10.7621064302       12.7299698723       -8.4493801737  CLST         340          1.0000000000
      1021       341  TIP3  OH2          -1.9273486610       13.7536588615       -0.8654647316  CLST         341          1.0000000000
      1022       341  TIP3  H1           -1.5532893821       13.3094164732       -1.5992253413  CLST         341          1.0000000000
      1023       341  TIP3  H2           -2.7078646405       13.2025418085       -0.8254499109  CLST         341          1.0000000000
      1024       342  TIP3  OH2         -11.7355005333        3.5236597741        9.7363285900  CLST         342          1.0000000000
      1025       342  TIP3  H1          -12.4980386083        3.1129765208       10.1542142353  CLST         342          1.0000000000
      1026       342  TIP3  H2          -11.2341091165        3.8004972676       10.5020073874  CLST         342          1.0000000000
      1027       343  TIP3  OH2          -0.6318461003       -1.5584668748      -13.8936700772  CLST         343          1.0000000000
      1028       343  TIP3  H1           -1.4289591925       -0.9235243755      -13.9617490488  CLST         343          1.0000000000
      1029       343  TIP3  H2           -0.7991431214       -1.5659903845      -14.8821487864  CLST         343          1.0000000000
      1030       344  TIP3  OH2           8.9172783230        4.0464224085        4.2185712910  CLST         344          1.0000000000
      1031       344  TIP3  H1            8.6851237720        4.9601834179        4.3268433467  CLST         344          1.0000000000
      1032       344  TIP3  H2            8.0024914630        3.8882937501        4.4094421916  CLST         344          1.0000000000
      1033       345  TIP3  OH2           0.1551317168        9.9000276372       -0.2653451815  CLST         345          1.0000000000
      1034       345  TIP3  H1            0.6549618480        9.1305680731        0.0126477919  CLST         345          1.0000000000
      1035       345  TIP3  H2           -0.5802698264        9.3187413831       -0.0942149972  CLST         345          1.0000000000
      1036       346  TIP3  OH2          -4.8395407796      -14.8157099840        6.2319474232  CLST         346          1.0000000000
      1037       346  TIP3  H1           -5.3719482308      -13.9729410812        6.2320880449  CLST         346          1.0000000000
      1038       346  TIP3  H2           -4.6004531963      -13.8200160529        6.8279946896  CLST         346          1.0000000000
      1039       347  TIP3  OH2         -13.7598164739      -11.7661517152       -1.8417235130  CLST         347          1.0000000000
      1040       347  TIP3  H1          -14.1045561788      -11.1168783322       -2.4784960006  CLST         347          1.0000000000
      1041       347  TIP3  H2          -13.3490343356      -11.0161037899       -1.4488370986  CLST         347          1.0000000000
      1042       348  TIP3  OH2           4.2175422685        7.7406985458       -7.4499313654  CLST         348          1.0000000000
      1043       348  TIP3  H1            5.0255528225        7.3232563557       -7.1717809019  CLST         348          1.0000000000
      1044       348  TIP3  H2            4.4140791288        7.5528060441       -6.3140874375  CLST         348          1.0000000000
      1045       349  TIP3  OH2           8.1584378681        9.9176971525        2.8055642662  CLST         349          1.0000000000
      1046       349  TIP3  H1            8.4409340687       10.2840132089        1.9786540330  CLST         349          1.0000000000
      1047       349  TIP3  H2            7.4008420980        9.6096145160        2.2885330529  CLST         349          1.0000000000
      1048       350  TIP3  OH2          -8.6743518554        1.2321059030      -14.5130482682  CLST         350          1.0000000000
      1049       350  TIP3  H1           -9.1740278232        0.5090549601      -14.1128986621  CLST         350          1.0000000000
      1050       350  TIP3  H2           -9.6069324535        1.3874690243      -14.8249874175  CLST         350          1.0000000000
      1051       351  TIP3  OH2          10.3641460330        3.5710309247        6.2519905192  CLST         351          1.0000000000
      1052       351  TIP3  H1           10.8509498362        4.3823870153        6.0608194741  CLST         351          1.0000000000
      1053       351  TIP3  H2           10.0516392171        3.5424360788        5.4408674459  CLST         351          1.0000000000
      1054       352  TIP3  OH2           5.5838557669       -0.4218398576       -8.4302917175  CLST         352          1.0000000000
      1055       352  TIP3  H1            6.1630648032       -0.6307572786       -7.6273186527  CLST         352          1.0000000000
      1056       352  TIP3  H2            5.5611402739        0.5131003974       -8.1286956268  CLST         352          1.0000000000
      1057       353  TIP3  OH2          -1.4204508070        9.5263839530      -12.7594242190  CLST         353          1.0000000000
      1058       353  TIP3  H1           -0.7555001941        9.7175655329      -13.4184537284  CLST         353          1.0000000000
      1059       353  TIP3  H2           -1.5636744982        8.7254188276      -13.2530769146  CLST         353          1.0000000000
      1060       354  TIP3  OH2         -11.4990609453      -10.7459785061      -14.0250221147  CLST         354          1.0000000000
      1061       354  TIP3  H1          -11.9288566122      -10.9769361784      -14.8391427216  CLST         354          1.0000000000
      1062       354  TIP3  H2          -10.6866296401      -10.9815705794      -14.4954714836  CLST         354          1.0000000000
      1063       355  TIP3  OH2           2.0233380936      -13.4518478023       -9.6205844601  CLST         355          1.0000000000
      1064       355  TIP3  H1            1.9142351220      -13.1944677649       -8.7019307813  CLST         355          1.0000000000
      1065       355  TIP3  H2            1.4942272524      -12.7210431526       -9.8555578496  CLST         355          1.0000000000
      1066       356  TIP3  OH2         -12.9905439538       -4.9697815299       -3.0441318586  CLST         356          1.0000000000
      1067       356  TIP3  H1          -13.1036455050       -5.8205473398       -3.5200865310  CLST         356          1.0000000000
      1068       356  TIP3  H2          -13.7237482730       -4.7333358748       -3.6407956697  CLST         356          1.0000000000
      1069       357  TIP3  OH2          -6.8841885887       -9.5277944766        5.1214469029  CLST         357          1.0000000000
      1070       357  TIP3  H1           -6.0905834103       -9.4117280358        4.5686744885  CLST         357          1.0000000000
      1071       357  TIP3  H2           -6.7817210619       -8.5545050981        5.2312113263  CLST         357          1.0000000000
      1072       358  TIP3  OH2          -2.3958072683       -7.4687603483        4.0400013165  CLST         358          1.0000000000
      1073       358  TIP3  H1           -1.4178248295       -7.5323016785        4.0484430326  CLST         358          1.0000000000
      1074       358  TIP3  H2           -2.2889744423       -7.5141382383        5.0249710851  CLST         358          1.0000000000
      1075       359  TIP3  OH2          10.1927601372        9.9485317262       -1.3916541687  CLST         359          1.0000000000
      1076       359  TIP3  H1           10.2854975459       10.5989829113       -0.6178016678  CLST         359          1.0000000000
      1077       359  TIP3  H2           10.6760170907       10.6531176687       -1.8824571506  CLST         359          1.0000000000
      1078       360  TIP3  OH2           7.6352862639       12.9722288560       12.8631977829  CLST         360          1.0000000000
      1079       360  TIP3  H1            8.3522560649       13.4995783442       12.6962263997  CLST         360          1.0000000000
      1080       360  TIP3  H2            7.0436636192       13.0419223345       12.0637777525  CLST         360          1.0000000000
      1081       361  TIP3  OH2          -6.1363207864      -10.8751626616       10.3712873704  CLST         361          1.0000000000
      1082       361  TIP3  H1           -6.2489541479      -11.5020032593        9.6507507309  CLST         361          1.0000000000
      1083       361  TIP3  H2           -6.3719052825      -11.6554985284       10.8917391630  CLST         361          1.0000000000
      1084       362  TIP3  OH2           4.6433054579       -3.4017219297       10.2596741676  CLST         362          1.0000000000
      1085       362  TIP3  H1            5.0019594258       -3.3765589386        9.3636220723  CLST         362          1.0000000000
      1086       362  TIP3  H2            5.3578197937       -3.9684076613       10.5904268280  CLST         362          1.0000000000
      1087       363  TIP3  OH2           5.0432286060       -4.7129333910       14.0367469307  CLST         363          1.0000000000
      1088       363  TIP3  H1            5.2553965431       -5.0288002546       14.8898697230  CLST         363          1.0000000000
      1089       363  TIP3  H2            5.8710415054       -4.2230743286       14.0163532305  CLST         363          1.0000000000
      1090       364  TIP3  OH2          -1.1832842724        4.8727035663       13.5213554800  CLST         364          1.0000000000
      1091       364  TIP3  H1           -0.2526316479        4.6611328519       13.7941824468  CLST         364          1.0000000000
      1092       364  TIP3  H2           -0.9013478378        5.7556486096       13.2847618225  CLST         364          1.0000000000
      1093       365  TIP3  OH2          -7.7510514998        4.9125637103      -11.9424673885  CLST         365          1.0000000000
      1094       365  TIP3  H1           -7.8305485388        5.4185023684      -10.8835182132  CLST         365          1.0000000000
      1095       365  TIP3  H2           -6.9046789096        5.2281315375      -11.5432831834  CLST         365          1.0000000000
      1096       366  TIP3  OH2         -10.2423219580       -2.4937691843        0.7648771535  CLST         366          1.0000000000
      1097       366  TIP3  H1          -10.9969753340       -2.4619436409        1.3842169217  CLST         366          1.0000000000
      1098       366  TIP3  H2          -10.7177828528       -2.5849890659       -0.0898194310  CLST         366          1.0000000000
      1099       367  TIP3  OH2          13.4864287946       10.6513707199       11.7182131601  CLST         367          1.0000000000
      1100       367  TIP3  H1           13.1615972438       11.3235752560       11.3276374594  CLST         367          1.0000000000
      1101       367  TIP3  H2           12.7167286080       10.7687803978       12.3557210885  CLST         367          1.0000000000
      1102       368  TIP3  OH2          -9.7610797421       -1.1872437906       12.6655384580  CLST         368          1.0000000000
      1103       368  TIP3  H1          -10.6462152193       -1.1614483846       12.3213082574  CLST         368          1.0000000000
      1104       368  TIP3  H2           -9.7021340583       -2.1980208589       12.7327542887  CLST         368          1.0000000000
      1105       369  TIP3  OH2           7.7936129293        9.4939602247       -2.2935164078  CLST         369          1.0000000000
      1106       369  TIP3  H1            8.7036281988        9.3829304621       -2.0850711202  CLST         369          1.0000000000
      1107       369  TIP3  H2            7.5646772533        8.7175614029       -1.8068124058  CLST         369          1.0000000000
      1108       370  TIP3  OH2          -6.8654950504      -12.8073509419       -0.7898121663  CLST         370          1.0000000000
      1109       370  TIP3  H1           -6.1594076068      -13.3783980838       -0.5193623007  CLST         370          1.0000000000
      1110       370  TIP3  H2           -7.1686288262      -13.1434391754        0.0603656109  CLST         370          1.0000000000
      1111       371  TIP3  OH2           8.6734915539       12.3590793545        9.6250470897  CLST         371          1.0000000000
      1112       371  TIP3  H1            8.6402784707       11.7368815959        8.9336693410  CLST         371          1.0000000000
      1113       371  TIP3  H2            7.7242600427       12.4931257585        9.6413742476  CLST         371          1.0000000000
      1114       372  TIP3  OH2          -1.1056834962       11.6036517641       -2.0539778130  CLST         372          1.0000000000
      1115       372  TIP3  H1           -1.8394065278       10.9398481043       -2.2192510448  CLST         372          1.0000000000
      1116       372  TIP3  H2           -0.9863332318       11.0019995924       -1.2608183699  CLST         372          1.0000000000
      1117       373  TIP3  OH2           8.7527861736       -5.5028572350        8.3195490683  CLST         373          1.0000000000
      1118       373  TIP3  H1            8.9545896288       -6.4356218161        8.1524757084  CLST         373          1.0000000000
      1119       373  TIP3  H2            9.6497703477       -5.5193423614        7.9253545226  CLST         373          1.0000000000
      1120       374  TIP3  OH2          11.2411733621       -9.7848671338       -4.3307069703  CLST         374          1.0000000000
      1121       374  TIP3  H1           11.0784004536      -10.1252965619       -3.4163945339  CLST         374          1.0000000000
      1122       374  TIP3  H2           10.9177131220      -10.6760911123       -4.5797047831  CLST         374          1.0000000000
      1123       375  TIP3  OH2           1.5795099541       13.6196139727       -2.6585688034  CLST         375          1.0000000000
      1124       375  TIP3  H1            1.4207402906       14.1493415622       -1.9384953999  CLST         375          1.0000000000
      1125       375  TIP3  H2            0.8394138302       14.0739349560       -3.0846944829  CLST         375          1.0000000000
      1126       376  TIP3  OH2          10.6547972949        4.1752031199       -8.7358879433  CLST         376          1.0000000000
      1127       376  TIP3  H1            9.6808205899        4.2867239069       -8.6611403830  CLST         376          1.0000000000
      1128       376  TIP3  H2           10.8080655185        4.7468217421       -9.5203618160  CLST         376          1.0000000000
      1129       377  TIP3  OH2           7.8470778345       11.0143468001      -11.7474008865  CLST         377          1.0000000000
      1130       377  TIP3  H1            8.7825685739       10.9454497344      -12.1348260083  CLST         377          1.0000000000
      1131       377  TIP3  H2            8.4396695585       10.9885762319      -10.9153201539  CLST         377          1.0000000000
      1132       378  TIP3  OH2           6.5859980878        9.3309711809        7.3532553063  CLST         378          1.0000000000
      1133       378  TIP3  H1            7.0217641632        8.5597150067        7.5854964672  CLST         378          1.0000000000
      1134       378  TIP3  H2            6.0013694310        9.2858628210        8.1061240024  CLST         378          1.0000000000
      1135       379  TIP3  OH2          -7.0284519420      -10.5478682260       -2.1707021224  CLST         379          1.0000000000
      1136       379  TIP3  H1           -6.3823791903      -10.8528791854       -2.8355681691  CLST         379          1.0000000000
      1137       379  TIP3  H2           -7.1311394461      -11.4917465849       -2.0086303429  CLST         379          1.0000000000
      1138       380  TIP3  OH2           7.5545214684       11.5280413465        4.8879732711  CLST         380          1.0000000000
      1139       380  TIP3  H1            6.6608231838       11.6441949820        4.4340740021  CLST         380          1.0000000000
      1140       380  TIP3  H2            7.6482827418       10.9415594574        4.1275381016  CLST         380          1.0000000000
      1141       381  TIP3  OH2          -7.6489382951       -6.8414202127      -10.3395663812  CLST         381          1.0000000000
      1142       381  TIP3  H1           -7.6671165008       -7.4497121180      -11.0934132170  CLST         381          1.0000000000
      1143       381  TIP3  H2           -6.8087307990       -6.4715629161      -10.7070030191  CLST         381          1.0000000000
      1144       382  TIP3  OH2          -3.3632334338        2.6135437167       -2.1183904902  CLST         382          1.0000000000
      1145       382  TIP3  H1           -4.0553424607        2.7614091141       -2.7814521919  CLST         382          1.0000000000
      1146       382  TIP3  H2           -3.6506767292        1.6790558249       -2.3569991248  CLST         382          1.0000000000
      1147       383  TIP3  OH2          -7.3995398849       -9.5470042456        8.4033671739  CLST         383          1.0000000000
      1148       383  TIP3  H1           -6.4178979883       -9.7302052876        8.6178451785  CLST         383          1.0000000000
      1149       383  TIP3  H2           -7.1299032251      -10.1834724811        7.6711688568  CLST         383          1.0000000000
      1150       384  TIP3  OH2         -11.8356899299       -5.1618404811       13.3197262572  CLST         384          1.0000000000
      1151       384  TIP3  H1          -11.5491593976       -6.0756573311       13.4327399410  CLST         384          1.0000000000
      1152       384  TIP3  H2          -12.3649067571       -5.4813143563       12.5999398656  CLST         384          1.0000000000
      1153       385  TIP3  OH2           7.8348946347        0.3364801971        9.2555228185  CLST         385          1.0000000000
      1154       385  TIP3  H1            8.0278500493        1.2774057622        9.3850605772  CLST         385          1.0000000000
      1155       385  TIP3  H2            8.4498544373       -0.0960429093        9.9037775203  CLST         385          1.0000000000
      1156       386  TIP3  OH2         -12.2867458022       -9.0062191657        8.6052138881  CLST         386          1.0000000000
      1157       386  TIP3  H1          -12.4275168737       -8.0766043444        8.6064715943  CLST         386          1.0000000000
      1158       386  TIP3  H2          -11.6583396589       -8.9837425429        9.3177782511  CLST         386          1.0000000000
      1159       387  TIP3  OH2          -1.0181048791      -13.2168984534       -0.7538438034  CLST         387          1.0000000000
      1160       387  TIP3  H1           -1.2221391834      -13.3319997227        0.2035527014  CLST         387          1.0000000000
      1161       387  TIP3  H2           -1.0600806345      -12.3392683829       -1.0876277788  CLST         387          1.0000000000
      1162       388  TIP3  OH2           3.4692782276        7.2448452620        6.8394536132  CLST         388          1.0000000000
      1163       388  TIP3  H1            3.1456005745        6.6453896447        6.1103025341  CLST         388          1.0000000000
      1164       388  TIP3  H2            3.8429796123        7.6806253384        6.0566271324  CLST         388          1.0000000000
      1165       389  TIP3  OH2          -3.7236906560      -11.0216024466       -0.3294933232  CLST         389          1.0000000000
      1166       389  TIP3  H1           -4.6603205715      -11.0303788826       -0.6885073408  CLST         389          1.0000000000
      1167       389  TIP3  H2           -3.6329225703      -10.6613723251       -1.2551402468  CLST         389          1.0000000000
      1168       390  TIP3  OH2          -1.2677138232        4.7710534063        4.7375830045  CLST         390          1.0000000000
      1169       390  TIP3  H1           -0.5143826273        4.3380461276        4.6497740326  CLST         390          1.0000000000
      1170       390  TIP3  H2           -0.9269389539        4.4229944824        3.6688533782  CLST         390          1.0000000000
      1171       391  TIP3  OH2          -6.2512743646       -4.9166612126        1.8740044666  CLST         391          1.0000000000
      1172       391  TIP3  H1           -6.2203452044       -4.0317481619        2.0504554426  CLST         391          1.0000000000
      1173       391  TIP3  H2           -7.2106175329       -4.8492914253        2.0001147496  CLST         391          1.0000000000
      1174       392  TIP3  OH2           4.8853536733        9.0612099584       -5.2778869482  CLST         392          1.0000000000
      1175       392  TIP3  H1            5.6329471385        8.8973298652       -4.6385407895  CLST         392          1.0000000000
      1176       392  TIP3  H2            4.4692148055        9.4511244971       -4.4909707790  CLST         392          1.0000000000
      1177       393  TIP3  OH2          13.1037596485       11.2745587529       -8.0086786595  CLST         393          1.0000000000
      1178       393  TIP3  H1           13.0876740431       10.3114756952       -8.2963949410  CLST         393          1.0000000000
      1179       393  TIP3  H2           12.7159819807       11.0192686413       -7.1543366915  CLST         393          1.0000000000
      1180       394  TIP3  OH2           1.4877065446        6.8546022859        5.4690935271  CLST         394          1.0000000000
      1181       394  TIP3  H1            0.9849045206        7.2860678140        4.7733992833  CLST         394          1.0000000000
      1182       394  TIP3  H2            1.7066655507        6.2476243421        4.7154107926  CLST         394          1.0000000000
      1183       395  TIP3  OH2          -6.1327995906        7.2695229660        0.2680932731  CLST         395          1.0000000000
      1184       395  TIP3  H1           -6.3128006550        6.6321104741        0.9593724101  CLST         395          1.0000000000
      1185       395  TIP3  H2           -5.2300148992        7.2070706100        0.4852640361  CLST         395          1.0000000000
      1186       396  TIP3  OH2          -3.4093437933        9.1528813267       -2.3503679435  CLST         396          1.0000000000
      1187       396  TIP3  H1           -3.4268013170        8.4560994743       -3.0280210722  CLST         396          1.0000000000
      1188       396  TIP3  H2           -4.3114565259        9.3309696630       -2.6682708242  CLST         396          1.0000000000
      1189       397  TIP3  OH2           2.5958449854      -12.5412871498      -13.6292022378  CLST         397          1.0000000000
      1190       397  TIP3  H1            1.8231975015      -12.1714976037      -13.5628246439  CLST         397          1.0000000000
      1191       397  TIP3  H2            2.5912354213      -11.8551933135      -13.0821102047  CLST         397          1.0000000000
      1192       398  TIP3  OH2           8.5381116130       -4.2464484036        1.0587834132  CLST         398          1.0000000000
      1193       398  TIP3  H1            8.4320643352       -5.0075881343        0.4869098396  CLST         398          1.0000000000
      1194       398  TIP3  H2            7.8812218714       -3.7125210385        0.6939953511  CLST         398          1.0000000000
      1195       399  TIP3  OH2         -13.9789686954       -3.0605408810       13.3041366915  CLST         399          1.0000000000
      1196       399  TIP3  H1          -14.4913572450       -3.8183563461       13.5795442428  CLST         399          1.0000000000
      1197       399  TIP3  H2          -13.2311937041       -3.4578746845       13.6812202638  CLST         399          1.0000000000
      1198       400  TIP3  OH2         -13.4002047637        8.6248816756        4.5253222450  CLST         400          1.0000000000
      1199       400  TIP3  H1          -13.6623157209        9.1039024522        5.2782434322  CLST         400          1.0000000000
      1200       400  TIP3  H2          -13.2796232149        7.9114367840        5.1543983332  CLST         400          1.0000000000
      1201       401  TIP3  OH2           1.6379860658        5.1707966426      -13.5023231210  CLST         401          1.0000000000
      1202       401  TIP3  H1            1.6096183292        5.1466301334      -14.4875498617  CLST         401          1.0000000000
      1203       401  TIP3  H2            1.1078911908        5.9686730678      -13.5432026929  CLST         401          1.0000000000
      1204       402  TIP3  OH2          14.5019885260       -5.1876183499       13.9619173353  CLST         402          1.0000000000
      1205       402  TIP3  H1           13.9945349699       -6.0775748362       13.8550843620  CLST         402          1.0000000000
      1206       402  TIP3  H2           14.8610035614       -5.6935598332       14.7446292926  CLST         402          1.0000000000
      1207       403  TIP3  OH2         -12.9258154323       12.2599500918       -2.6205527193  CLST         403          1.0000000000
      1208       403  TIP3  H1          -13.6758902084       11.6609254004       -2.7660505880  CLST         403          1.0000000000
      1209       403  TIP3  H2          -12.9503571666       12.3583576365       -3.6885259068  CLST         403          1.0000000000
      1210       404  TIP3  OH2           5.3138974409       -3.2983970871        0.2997031323  CLST         404          1.0000000000
      1211       404  TIP3  H1            4.4915146922       -2.8020853592        0.7123996914  CLST         404          1.0000000000
      1212       404  TIP3  H2            5.1370420600       -3.2516837436        1.4419699191  CLST         404          1.0000000000
      1213       405  TIP3  OH2           2.4550061610        8.3392196872       -3.2204992495  CLST         405          1.0000000000
      1214       405  TIP3  H1            2.0439681919        9.2542314139       -3.2653344205  CLST         405          1.0000000000
      1215       405  TIP3  H2            1.4936168972        7.9788464367       -3.1141164891  CLST         405          1.0000000000
      1216       406  TIP3  OH2          -8.8544307046       -2.4545691186       -7.2299248891  CLST         406          1.0000000000
      1217       406  TIP3  H1           -8.9129430529       -1.5772134739       -6.8119917134  CLST         406          1.0000000000
      1218       406  TIP3  H2           -9.8024563380       -2.2807060089       -7.3590106775  CLST         406          1.0000000000
      1219       407  TIP3  OH2           5.5327881235        5.6270696048        4.5327808901  CLST         407          1.0000000000
      1220       407  TIP3  H1            6.1922532209        5.6437852273        5.2923753995  CLST         407          1.0000000000
      1221       407  TIP3  H2            6.3702571632        6.0321441026        4.1504935230  CLST         407          1.0000000000
      1222       408  TIP3  OH2         -14.0220913200       -4.6570123173       -5.3656399809  CLST         408          1.0000000000
      1223       408  TIP3  H1          -14.0006785906       -3.6718600869       -5.5663527776  CLST         408          1.0000000000
      1224       408  TIP3  H2          -14.2275144856       -4.8413262094       -6.2936926719  CLST         408          1.0000000000
      1225       409  TIP3  OH2          -2.1331984339      -13.0977839606        1.2227676674  CLST         409          1.0000000000
      1226       409  TIP3  H1           -2.6452602296      -13.4786368383        2.0267191708  CLST         409          1.0000000000
      1227       409  TIP3  H2           -1.8631203175      -12.4748612200        1.9771664662  CLST         409          1.0000000000
      1228       410  TIP3  OH2          11.9415122099       -2.6998571000       10.4863007967  CLST         410          1.0000000000
      1229       410  TIP3  H1           12.0797616656       -2.1236232901        9.6821133114  CLST         410          1.0000000000
      1230       410  TIP3  H2           12.4555216575       -3.3009727012        9.8942099460  CLST         410          1.0000000000
      1231       411  TIP3  OH2           8.7364801244      -13.7400044650       -2.6105155343  CLST         411          1.0000000000
      1232       411  TIP3  H1            8.5392495857      -13.8597945018       -1.6841881143  CLST         411          1.0000000000
      1233       411  TIP3  H2            7.7629793603      -13.8669735998       -2.7726819503  CLST         411          1.0000000000
      1234       412  TIP3  OH2          13.3295083594       -4.4228094380       -7.6554964887  CLST         412          1.0000000000
      1235       412  TIP3  H1           12.7166122668       -4.1699541842       -8.3101628838  CLST         412          1.0000000000
      1236       412  TIP3  H2           12.5964415630       -4.1074954766       -7.0768430933  CLST         412          1.0000000000
      1237       413  TIP3  OH2           7.3393142793        8.4426780977       -5.0400044708  CLST         413          1.0000000000
      1238       413  TIP3  H1            7.5162007391        8.0833994290       -4.1864564447  CLST         413          1.0000000000
      1239       413  TIP3  H2            8.2763196322        8.6418091941       -5.1529670046  CLST         413          1.0000000000
      1240       414  TIP3  OH2          -9.1001940480       -5.2385458826      -12.2059599727  CLST         414          1.0000000000
      1241       414  TIP3  H1           -8.3546898281       -4.6997757426      -12.6253628026  CLST         414          1.0000000000
      1242       414  TIP3  H2           -8.9907859799       -4.5005057560      -11.5857562142  CLST         414          1.0000000000
      1243       415  TIP3  OH2         -14.3285507802        0.8202638949        5.4488039051  CLST         415          1.0000000000
      1244       415  TIP3  H1          -14.2900354270        1.6165132267        5.9488066842  CLST         415          1.0000000000
      1245       415  TIP3  H2          -13.8562275357        0.3267586964        6.0684672888  CLST         415          1.0000000000
      1246       416  TIP3  OH2          11.5982783672       12.1030679440       -2.1977199588  CLST         416          1.0000000000
      1247       416  TIP3  H1           12.2033740265       12.6725684606       -2.6525474426  CLST         416          1.0000000000
      1248       416  TIP3  H2           10.9348224249       12.6649561073       -2.6706637633  CLST         416          1.0000000000
      1249       417  TIP3  OH2          10.6053529471      -12.5878092232       -5.1877483834  CLST         417          1.0000000000
      1250       417  TIP3  H1           10.3215539568      -13.4381780280       -4.7909592532  CLST         417          1.0000000000
      1251       417  TIP3  H2            9.9622598451      -12.7739676460       -5.8313776021  CLST         417          1.0000000000
      1252       418  TIP3  OH2          -1.9681116765        5.3231382355        1.0224553436  CLST         418          1.0000000000
      1253       418  TIP3  H1           -2.1803379210        4.9916708597        0.1382972966  CLST         418          1.0000000000
      1254       418  TIP3  H2           -2.7901824154        5.7902023195        0.8889369388  CLST         418          1.0000000000
      1255       419  TIP3  OH2          -8.3538235653        9.4048579824        8.2788221815  CLST         419          1.0000000000
      1256       419  TIP3  H1           -8.4951681792       10.2231778027        7.8014550964  CLST         419          1.0000000000
      1257       419  TIP3  H2           -8.6531143664        9.9533245901        9.0579336931  CLST         419          1.0000000000
      1258       420  TIP3  OH2           3.3551723575        9.3833226626      -14.1993240193  CLST         420          1.0000000000
      1259       420  TIP3  H1            4.0537187453        9.1634352276      -13.5232908446  CLST         420          1.0000000000
      1260       420  TIP3  H2            3.6410085504        8.4640574760      -14.4774507756  CLST         420          1.0000000000
      1261       421  TIP3  OH2          -3.8796206654        6.9306611947       -3.7550870718  CLST         421          1.0000000000
      1262       421  TIP3  H1           -4.7469862323        6.3981679073       -3.9669221713  CLST         421          1.0000000000
      1263       421  TIP3  H2           -3.6952303142        6.0949093338       -3.2683610276  CLST         421          1.0000000000
      1264       422  TIP3  OH2           3.2048395155      -10.5627398578       -2.4385054318  CLST         422          1.0000000000
      1265       422  TIP3  H1            2.6638043824      -11.1617607752       -1.8432363398  CLST         422          1.0000000000
      1266       422  TIP3  H2            3.0128233524       -9.9890746031       -1.6778716205  CLST         422          1.0000000000
      1267       423  TIP3  OH2          -5.6560278209        5.2249975434        1.8978281843  CLST         423          1.0000000000
      1268       423  TIP3  H1           -4.8782732505        4.4747574385        1.7609690310  CLST         423          1.0000000000
      1269       423  TIP3  H2           -4.6491937639        5.2693373059        2.3907712499  CLST         423          1.0000000000
      1270       424  TIP3  OH2          -9.6524197487        8.6405331188        4.7203400528  CLST         424          1.0000000000
      1271       424  TIP3  H1           -9.4812788482        8.9305513841        3.5870505685  CLST         424          1.0000000000
      1272       424  TIP3  H2          -10.1546748685        8.0881183939        4.0801329403  CLST         424          1.0000000000
      1273       425  TIP3  OH2          -9.6615278355        2.4991039386       -9.1507164275  CLST         425          1.0000000000
      1274       425  TIP3  H1           -9.8734519425        1.6253106156       -8.9553644151  CLST         425          1.0000000000
      1275       425  TIP3  H2          -10.4863064814        2.6774092478       -8.7094892813  CLST         425          1.0000000000
      1276       426  TIP3  OH2          -0.9094886928       -9.1869440469       -4.1410364393  CLST         426          1.0000000000
      1277       426  TIP3  H1            0.0840642870       -9.2986020868       -4.3264316164  CLST         426          1.0000000000
      1278       426  TIP3  H2           -0.9805821927       -9.2837361812       -5.1469904643  CLST         426          1.0000000000
      1279       427  TIP3  OH2          -9.9853656573        1.9688063163        5.1405278376  CLST         427          1.0000000000
      1280       427  TIP3  H1           -9.8959443097        2.9409685558        4.9959830691  CLST         427          1.0000000000
      1281       427  TIP3  H2          -10.8468209882        1.9132119607        5.5014352454  CLST         427          1.0000000000
      1282       428  TIP3  OH2          -6.6323508182       13.5424218849        6.9367979166  CLST         428          1.0000000000
      1283       428  TIP3  H1           -5.9768813439       14.1171607098        6.5234041818  CLST         428          1.0000000000
      1284       428  TIP3  H2           -6.3664706295       12.8122464965        6.3287607331  CLST         428          1.0000000000
      1285       429  TIP3  OH2           0.2982847916      -11.6931131917      -10.7020357194  CLST         429          1.0000000000
      1286       429  TIP3  H1           -0.5076349028      -11.8585960733      -11.0155483283  CLST         429          1.0000000000
      1287       429  TIP3  H2           -0.6990469157      -12.0051067651      -10.1197879355  CLST         429          1.0000000000
      1288       430  TIP3  OH2           0.4364311567        9.8059866986        9.9808949603  CLST         430          1.0000000000
      1289       430  TIP3  H1            0.0169442585       10.5886299838       10.3420221685  CLST         430          1.0000000000
      1290       430  TIP3  H2            0.8627720987        9.9066796980       10.8795642680  CLST         430          1.0000000000
      1291       431  TIP3  OH2          -5.9719022289       -3.4296239079       -4.1053758433  CLST         431          1.0000000000
      1292       431  TIP3  H1           -5.5418900562       -3.4682164209       -4.9590124210  CLST         431          1.0000000000
      1293       431  TIP3  H2           -6.6422265381       -3.9952391530       -4.4328796255  CLST         431          1.0000000000
      1294       432  TIP3  OH2          -5.2472126916        3.4324710722       -3.8083662650  CLST         432          1.0000000000
      1295       432  TIP3  H1           -6.1800998748        2.9409365209       -4.2034809177  CLST         432          1.0000000000
      1296       432  TIP3  H2           -6.0836464464        3.8609690564       -3.4848106952  CLST         432          1.0000000000
      1297       433  TIP3  OH2          -8.9561089226        3.3799967235       10.0342564567  CLST         433          1.0000000000
      1298       433  TIP3  H1           -8.0912709534        3.7035591051        9.9130122421  CLST         433          1.0000000000
      1299       433  TIP3  H2           -9.0750040221        3.6033181452       10.9446405554  CLST         433          1.0000000000
      1300       434  TIP3  OH2           0.9652515522       -4.3326600261        9.7728572847  CLST         434          1.0000000000
      1301       434  TIP3  H1            0.1699298703       -3.9148441725       10.1932482961  CLST         434          1.0000000000
      1302       434  TIP3  H2            1.4406709319       -3.4630281375        9.7720324538  CLST         434          1.0000000000
      1303       435  TIP3  OH2           7.6446217676       -8.0182817444        6.4375009708  CLST         435          1.0000000000
      1304       435  TIP3  H1            7.9976364045       -7.6789822475        5.6054092146  CLST         435          1.0000000000
      1305       435  TIP3  H2            6.7400540767       -7.8218771994        5.9991385743  CLST         435          1.0000000000
      1306       436  TIP3  OH2          -6.8185604841       14.1058857359       -1.6983623454  CLST         436          1.0000000000
      1307       436  TIP3  H1           -6.5566916351       14.8412720517       -1.9221188722  CLST         436          1.0000000000
      1308       436  TIP3  H2           -7.1128476968       14.5899359223       -0.9212902009  CLST         436          1.0000000000
      1309       437  TIP3  OH2          -0.7875506688      -13.2641359874        5.6887330660  CLST         437          1.0000000000
      1310       437  TIP3  H1           -1.2485253001      -12.6018772050        6.2913429388  CLST         437          1.0000000000
      1311       437  TIP3  H2           -0.0320462237      -12.6900106258        5.9940174285  CLST         437          1.0000000000
      1312       438  TIP3  OH2         -12.4652909565       -1.0743300761       -3.1838726541  CLST         438          1.0000000000
      1313       438  TIP3  H1          -12.2886192039       -1.7098136270       -2.4961477986  CLST         438          1.0000000000
      1314       438  TIP3  H2          -12.7096188165       -0.4882337891       -2.4847402847  CLST         438          1.0000000000
      1315       439  TIP3  OH2          -3.8381180065       -3.8851347015        3.3719945730  CLST         439          1.0000000000
      1316       439  TIP3  H1           -4.6007148469       -3.8240340192        4.0122935582  CLST         439          1.0000000000
      1317       439  TIP3  H2           -4.4673070887       -4.4338731225        2.9070374641  CLST         439          1.0000000000
      1318       440  TIP3  OH2          -9.8711469094      -11.3225834874       12.2171572732  CLST         440          1.0000000000
      1319       440  TIP3  H1           -9.3430940252      -10.8535056980       11.5868181056  CLST         440          1.0000000000
      1320       440  TIP3  H2          -10.3923471364      -11.4644937091       11.3736667170  CLST         440          1.0000000000
      1321       441  TIP3  OH2         -14.1819593416        3.4328283856        7.3920620775  CLST         441          1.0000000000
      1322       441  TIP3  H1          -14.2723358861        4.5341149230        7.3282274528  CLST         441          1.0000000000
      1323       441  TIP3  H2          -14.4105913443        4.0558187419        6.5034686857  CLST         441          1.0000000000
      1324       442  TIP3  OH2           9.4205743725        0.5131726090      -12.3180848776  CLST         442          1.0000000000
      1325       442  TIP3  H1            9.7864052553       -0.3732801464      -12.0138614792  CLST         442          1.0000000000
      1326       442  TIP3  H2           10.0799255039        0.3789250941      -13.0303015896  CLST         442          1.0000000000
      1327       443  TIP3  OH2           7.8574352030       -8.2928119552        3.9615667530  CLST         443          1.0000000000
      1328       443  TIP3  H1            8.7441440527       -8.0184725551        3.5703530574  CLST         443          1.0000000000
      1329       443  TIP3  H2            7.6406670019       -7.9230169741        3.1104859023  CLST         443          1.0000000000
      1330       444  TIP3  OH2          12.6665050999        8.4528240255       -0.4669735877  CLST         444          1.0000000000
      1331       444  TIP3  H1           12.9914902605        9.3054856515       -0.3350017509  CLST         444          1.0000000000
      1332       444  TIP3  H2           13.3491035024        8.1128145640        0.0965977597  CLST         444          1.0000000000
      1333       445  TIP3  OH2          -9.0878148293       -9.6970670543       14.1753855316  CLST         445          1.0000000000
      1334       445  TIP3  H1           -8.5350469745       -9.6507477150       13.3575875606  CLST         445          1.0000000000
      1335       445  TIP3  H2           -8.4415704791       -9.0605915374       14.5470174221  CLST         445          1.0000000000
      1336       446  TIP3  OH2          12.7714017524       10.9906871817       -0.1237160624  CLST         446          1.0000000000
      1337       446  TIP3  H1           12.3206344273       11.5351936213        0.5420256869  CLST         446          1.0000000000
      1338       446  TIP3  H2           12.4384514593       11.6847941285       -0.6833324062  CLST         446          1.0000000000
      1339       447  TIP3  OH2          -3.5880074554       13.3790506701        5.0297088802  CLST         447          1.0000000000
      1340       447  TIP3  H1           -4.1428101300       14.1809283643        5.1749339474  CLST         447          1.0000000000
      1341       447  TIP3  H2           -4.4031941345       12.8598437302        4.8121405291  CLST         447          1.0000000000
      1342       448  TIP3  OH2         -10.6867321346        9.1510465580      -12.9350050632  CLST         448          1.0000000000
      1343       448  TIP3  H1          -10.1099445120        9.2767207129      -12.1875422357  CLST         448          1.0000000000
      1344       448  TIP3  H2          -10.0831391372        8.4816687468      -13.2557713792  CLST         448          1.0000000000
      1345       449  TIP3  OH2           5.4574343410       -8.0234133208       -5.7617084057  CLST         449          1.0000000000
      1346       449  TIP3  H1            5.4198285665       -8.8415135550       -5.3118683144  CLST         449          1.0000000000
      1347       449  TIP3  H2            5.0475851961       -7.6416904610       -5.0337224156  CLST         449          1.0000000000
      1348       450  TIP3  OH2           4.5778849787       10.0790462842       11.4901246347  CLST         450          1.0000000000
      1349       450  TIP3  H1            5.5356110966        9.7471434512       11.6550353407  CLST         450          1.0000000000
      1350       450  TIP3  H2            4.6367774768        9.7217000177       10.5583584967  CLST         450          1.0000000000
      1351       451  TIP3  OH2         -12.7534379915       10.8947247867      -12.8246233424  CLST         451          1.0000000000
      1352       451  TIP3  H1          -12.2064845085       11.3421460448      -13.4786958934  CLST         451          1.0000000000
      1353       451  TIP3  H2          -11.8978152591       10.4019440425      -12.7033761664  CLST         451          1.0000000000
      1354       452  TIP3  OH2         -10.0009761321       14.5271389766        1.8528525050  CLST         452          1.0000000000
      1355       452  TIP3  H1          -10.9322246197       14.4098392247        2.1700957093  CLST         452          1.0000000000
      1356       452  TIP3  H2          -10.3026833498       13.9184908569        1.1443983508  CLST         452          1.0000000000
      1357       453  TIP3  OH2          -3.3533817481       -8.5451428359      -13.8168093074  CLST         453          1.0000000000
      1358       453  TIP3  H1           -4.2032724091       -8.8836717622      -13.5101768379  CLST         453          1.0000000000
      1359       453  TIP3  H2           -3.3776230076       -9.2212200599      -14.5528179984  CLST         453          1.0000000000
      1360       454  TIP3  OH2          13.4665791884      -13.2204976946       11.3562932802  CLST         454          1.0000000000
      1361       454  TIP3  H1           14.0426354751      -13.6756547577       11.9834327857  CLST         454          1.0000000000
      1362       454  TIP3  H2           13.8269112548      -12.4041507158       11.8386589124  CLST         454          1.0000000000
      1363       455  TIP3  OH2         -13.6003048703       -9.8558738953       -4.1595712141  CLST         455          1.0000000000
      1364       455  TIP3  H1          -13.4865963195       -8.8583143637       -4.1989901920  CLST         455          1.0000000000
      1365       455  TIP3  H2          -12.7344482411       -9.7933424589       -3.8032527763  CLST         455          1.0000000000
      1366       456  TIP3  OH2          -7.9252577404        7.0367616315        6.5776327959  CLST         456          1.0000000000
      1367       456  TIP3  H1           -8.0210061187        8.1464151695        6.9332145891  CLST         456          1.0000000000
      1368       456  TIP3  H2           -8.6025163836        7.8361291822        6.0165042450  CLST         456          1.0000000000
      1369       457  TIP3  OH2          -3.9595906208      -12.9254968733        8.2317643953  CLST         457          1.0000000000
      1370       457  TIP3  H1           -3.5292215383      -13.4291025911        8.9233980694  CLST         457          1.0000000000
      1371       457  TIP3  H2           -2.7982966826      -13.0681745816        8.2134355645  CLST         457          1.0000000000
      1372       458  TIP3  OH2          -2.5773794540       12.3752311227      -11.5291577869  CLST         458          1.0000000000
      1373       458  TIP3  H1           -3.4742872405       12.6668281649      -11.6302380223  CLST         458          1.0000000000
      1374       458  TIP3  H2           -2.8628024019       11.6378429732      -11.9869494061  CLST         458          1.0000000000
      1375       459  TIP3  OH2         -13.3752224691        7.2449019175       -3.9955349957  CLST         459          1.0000000000
      1376       459  TIP3  H1          -13.5505536519        7.9430904816       -3.3463011311  CLST         459          1.0000000000
      1377       459  TIP3  H2          -13.2379503391        7.8888673311       -4.7138983901  CLST         459          1.0000000000
      1378       460  TIP3  OH2           7.2976269402        9.8119547325      -13.9504155270  CLST         460          1.0000000000
      1379       460  TIP3  H1            6.8437134277       10.0851445217      -12.8397204199  CLST         460          1.0000000000
      1380       460  TIP3  H2            6.7297234199       10.6033768499      -14.0664207678  CLST         460          1.0000000000
      1381       461  TIP3  OH2           0.4838496737        7.4653976786      -12.9153419119  CLST         461          1.0000000000
      1382       461  TIP3  H1           -0.4204680771        7.2410267443      -12.5939946641  CLST         461          1.0000000000
      1383       461  TIP3  H2            0.4584443334        8.0848384946      -12.1476761495  CLST         461          1.0000000000
      1384       462  TIP3  OH2           4.2210345057        7.8867957231      -10.3626785265  CLST         462          1.0000000000
      1385       462  TIP3  H1            3.4853863843        7.2746700112      -10.6268270843  CLST         462          1.0000000000
      1386       462  TIP3  H2            4.0142404938        7.5699219213       -9.4536565073  CLST         462          1.0000000000
      1387       463  TIP3  OH2          -1.2261337623      -11.5440441737       -8.1566144642  CLST         463          1.0000000000
      1388       463  TIP3  H1           -2.0625645376      -11.7796916478       -8.6685006619  CLST         463          1.0000000000
      1389       463  TIP3  H2           -1.6108619666      -11.9439576570       -7.3797255603  CLST         463          1.0000000000
      1390       464  TIP3  OH2          -2.2598182084        2.6252348222       14.3256466215  CLST         464          1.0000000000
      1391       464  TIP3  H1           -2.7685862957        2.5935813518       13.4808491748  CLST         464          1.0000000000
      1392       464  TIP3  H2           -2.2948309582        3.5649661981       13.9907063412  CLST         464          1.0000000000
      1393       465  TIP3  OH2         -14.4842458172        5.8585109331        8.4585389824  CLST         465          1.0000000000
      1394       465  TIP3  H1          -14.5621168653        5.6110565940        9.3617201621  CLST         465          1.0000000000
      1395       465  TIP3  H2          -14.6805522572        6.7406770313        8.6809732658  CLST         465          1.0000000000
      1396       466  TIP3  OH2          -4.2426847647      -13.4403901546        2.9050919855  CLST         466          1.0000000000
      1397       466  TIP3  H1           -4.6769013022      -13.2139423129        3.7427225916  CLST         466          1.0000000000
      1398       466  TIP3  H2           -4.9775182824      -12.9574069975        2.5525995359  CLST         466          1.0000000000
      1399       467  TIP3  OH2           4.5810650462       14.4595424783        7.7867504960  CLST         467          1.0000000000
      1400       467  TIP3  H1            5.3178789225       14.2507841348        8.3571412636  CLST         467          1.0000000000
      1401       467  TIP3  H2            4.0092970360       14.5289253302        8.5613859787  CLST         467          1.0000000000
      1402       468  TIP3  OH2          -8.4431033026       -0.8683577125        1.9852208590  CLST         468          1.0000000000
      1403       468  TIP3  H1           -8.8056032250       -1.2470725349        2.7844971898  CLST         468          1.0000000000
      1404       468  TIP3  H2           -9.0921591662       -1.3528749096        1.4995315701  CLST         468          1.0000000000
      1405       469  TIP3  OH2           6.9093394058        0.6026137524       14.6194579350  CLST         469          1.0000000000
      1406       469  TIP3  H1            6.1013899993        0.4547972722       14.0410534877  CLST         469          1.0000000000
      1407       469  TIP3  H2            6.8806277884        1.4543578558       14.0422230713  CLST         469          1.0000000000
      1408       470  TIP3  OH2           0.9515370342       11.6586553558       -8.6671500138  CLST         470          1.0000000000
      1409       470  TIP3  H1            1.3208067245       12.5221887742       -8.3279153823  CLST         470          1.0000000000
      1410       470  TIP3  H2            1.6398769352       11.2187588213       -8.2764350104  CLST         470          1.0000000000
      1411       471  TIP3  OH2           5.3148745135        5.4535222430       -2.2431504128  CLST         471          1.0000000000
      1412       471  TIP3  H1            4.6889036922        5.9726168064       -2.8164415951  CLST         471          1.0000000000
      1413       471  TIP3  H2            4.5517577697        5.7976601283       -1.6083968742  CLST         471          1.0000000000
      1414       472  TIP3  OH2           5.1360672306      -12.3128685272       -6.9264107006  CLST         472          1.0000000000
      1415       472  TIP3  H1            4.7990709799      -13.0315520313       -7.4058388609  CLST         472          1.0000000000
      1416       472  TIP3  H2            5.6482096061      -12.8222408220       -6.3469636139  CLST         472          1.0000000000
      1417       473  TIP3  OH2          -4.0744218132        2.8011557209        1.2911217303  CLST         473          1.0000000000
      1418       473  TIP3  H1           -3.2495742387        2.5155674219        0.8365277171  CLST         473          1.0000000000
      1419       473  TIP3  H2           -4.4623530021        2.2113140235        0.6885222372  CLST         473          1.0000000000
      1420       474  TIP3  OH2           8.2669930370        4.6129189802        7.7133750745  CLST         474          1.0000000000
      1421       474  TIP3  H1            7.7777191352        4.0559525952        7.0794347028  CLST         474          1.0000000000
      1422       474  TIP3  H2            8.8891305915        3.8435709442        7.0952498759  CLST         474          1.0000000000
      1423       475  TIP3  OH2           6.1455215800       -4.1131316794       -7.9718391337  CLST         475          1.0000000000
      1424       475  TIP3  H1            5.8366018376       -3.4286554661       -8.5968061409  CLST         475          1.0000000000
      1425       475  TIP3  H2            7.0032497711       -3.7968217962       -8.2719146607  CLST         475          1.0000000000
      1426       476  TIP3  OH2           3.0037673044       10.0628878660       -8.1278519245  CLST         476          1.0000000000
      1427       476  TIP3  H1            3.4360429059        9.2638368738       -7.7246395708  CLST         476          1.0000000000
      1428       476  TIP3  H2            2.9902312247       10.3256948114       -7.1846336140  CLST         476          1.0000000000
      1429       477  TIP3  OH2          -7.5449923608       -3.2544880245       -9.9317554219  CLST         477          1.0000000000
      1430       477  TIP3  H1           -6.8112933588       -2.6580788174       -9.7825074109  CLST         477          1.0000000000
      1431       477  TIP3  H2           -7.1296267545       -3.8826970276       -9.3479128353  CLST         477          1.0000000000
      1432       478  TIP3  OH2           0.6375716849       -5.2024734058      -12.4499742272  CLST         478          1.0000000000
      1433       478  TIP3  H1            1.1215920533       -5.9564063624      -12.7925360690  CLST         478          1.0000000000
      1434       478  TIP3  H2            1.2470559635       -5.3206586134      -11.6331887596  CLST         478          1.0000000000
      1435       479  TIP3  OH2           0.2242011673       -1.5742053346       -7.4974823974  CLST         479          1.0000000000
      1436       479  TIP3  H1            0.5319091287       -1.3279963445       -6.5926447990  CLST         479          1.0000000000
      1437       479  TIP3  H2            1.2063247390       -1.7660322333       -7.6883844725  CLST         479          1.0000000000
      1438       480  TIP3  OH2           5.6476320492       -0.8667364366        9.3263440202  CLST         480          1.0000000000
      1439       480  TIP3  H1            6.1614797108       -1.5804066205        9.0535986445  CLST         480          1.0000000000
      1440       480  TIP3  H2            6.2097002886       -0.2951049570        8.7972671661  CLST         480          1.0000000000
      1441       481  TIP3  OH2          -6.7240526047        2.3653210987       -5.7157804273  CLST         481          1.0000000000
      1442       481  TIP3  H1           -7.0825495866        3.1566453573       -6.1211016734  CLST         481          1.0000000000
      1443       481  TIP3  H2           -5.9107273144        2.8452467601       -6.1087688422  CLST         481          1.0000000000
      1444       482  TIP3  OH2           3.5030312252       -8.1232046658        4.3406632715  CLST         482          1.0000000000
      1445       482  TIP3  H1            3.7939074445       -7.5844840691        5.0979391268  CLST         482          1.0000000000
      1446       482  TIP3  H2            3.3790012188       -7.3081912954        3.8563146114  CLST         482          1.0000000000
      1447       483  TIP3  OH2         -14.9097018341        0.1659902465       -7.9718005307  CLST         483          1.0000000000
      1448       483  TIP3  H1          -14.6295400248       -0.5971634929       -8.4420658313  CLST         483          1.0000000000
      1449       483  TIP3  H2          -13.9867015599        0.3199688565       -7.9305874123  CLST         483          1.0000000000
      1450       484  TIP3  OH2          14.9097018341       -2.2628410563       -8.9977488849  CLST         484          1.0000000000
      1451       484  TIP3  H1           14.5619128719       -3.0420083951       -8.5259246217  CLST         484          1.0000000000
      1452       484  TIP3  H2           14.0707654744       -2.0338863323       -9.4120345115  CLST         484          1.0000000000
      1453       485  TIP3  OH2          -3.7477844312        5.2894876802        3.7778894853  CLST         485          1.0000000000
      1454       485  TIP3  H1           -2.9408313558        5.1441148030        4.2605339563  CLST         485          1.0000000000
      1455       485  TIP3  H2           -4.0755555116        5.6909101564        4.6030469855  CLST         485          1.0000000000
      1456       486  TIP3  OH2          11.2171619066       12.8799820020       -9.0067538162  CLST         486          1.0000000000
      1457       486  TIP3  H1           11.8899071230       12.4607730630       -8.5402533563  CLST         486          1.0000000000
      1458       486  TIP3  H2           11.5739286089       12.4978758591       -9.8024248171  CLST         486          1.0000000000
      1459       487  TIP3  OH2           2.4303063422       -5.8458720846        3.3770032473  CLST         487          1.0000000000
      1460       487  TIP3  H1            2.7469985548       -5.0148945197        3.9222764825  CLST         487          1.0000000000
      1461       487  TIP3  H2            1.7122991934       -5.1860166815        3.1895584789  CLST         487          1.0000000000
      1462       488  TIP3  OH2         -11.7025409840       -0.5221772927       11.0829466668  CLST         488          1.0000000000
      1463       488  TIP3  H1          -12.1976612402        0.2279561715       10.8467204094  CLST         488          1.0000000000
      1464       488  TIP3  H2          -11.0397364320        0.3490654724       10.7666233525  CLST         488          1.0000000000
      1465       489  TIP3  OH2          -8.5178234895        8.2326307794       -4.6456707603  CLST         489          1.0000000000
      1466       489  TIP3  H1           -8.6721519910        8.6165148204       -3.7751546658  CLST         489          1.0000000000
      1467       489  TIP3  H2           -7.9208485130        7.6612931399       -4.1781353311  CLST         489          1.0000000000
      1468       490  TIP3  OH2         -11.2626763719       11.0333485995        4.9750478003  CLST         490          1.0000000000
      1469       490  TIP3  H1          -11.6210163273       10.3885563757        4.3407875136  CLST         490          1.0000000000
      1470       490  TIP3  H2          -10.4846369284       10.3925610184        4.8513317313  CLST         490          1.0000000000
      1471       491  TIP3  OH2          -1.1589097198      -10.0726410898       10.8188287640  CLST         491          1.0000000000
      1472       491  TIP3  H1           -0.4156214110       -9.7394834003       10.3071987935  CLST         491          1.0000000000
      1473       491  TIP3  H2           -0.7577906495       -9.4910384547       11.5032256012  CLST         491          1.0000000000
      1474       492  TIP3  OH2          -1.9485620891       10.1898652080        2.8744325272  CLST         492          1.0000000000
      1475       492  TIP3  H1           -1.4413170065       11.0169677859        2.7898084935  CLST         492          1.0000000000
      1476       492  TIP3  H2           -2.6070243888       10.6862369428        2.3435745189  CLST         492          1.0000000000
      1477       493  TIP3  OH2          -6.1402354720       10.5283200744       -2.9771842686  CLST         493          1.0000000000
      1478       493  TIP3  H1           -6.0754744253       11.1435015639       -3.7071867291  CLST         493          1.0000000000
      1479       493  TIP3  H2           -7.1033107580       10.5684271699       -3.1358175697  CLST         493          1.0000000000
      1480       494  TIP3  OH2         -13.9660257875       10.6266359048       11.9925121561  CLST         494          1.0000000000
      1481       494  TIP3  H1          -14.9097018341       10.6769925555       11.8384126496  CLST         494          1.0000000000
      1482       494  TIP3  H2          -13.6040860516       11.3938947826       11.5580763262  CLST         494          1.0000000000
      1483       495  TIP3  OH2           3.1938748430      -12.8920620583       13.9976430855  CLST         495          1.0000000000
      1484       495  TIP3  H1            2.9002284292      -12.7407335739       14.8873143846  CLST         495          1.0000000000
      1485       495  TIP3  H2            3.5100231196      -11.9845507252       13.9510802673  CLST         495          1.0000000000
      1486       496  TIP3  OH2         -14.6790622984        6.5574944664        0.4456899132  CLST         496          1.0000000000
      1487       496  TIP3  H1          -14.0915937307        6.4812476530        1.2237651720  CLST         496          1.0000000000
      1488       496  TIP3  H2          -14.9002056727        5.6535971536        0.6297040842  CLST         496          1.0000000000
      1489       497  TIP3  OH2         -13.2460065665       -8.7773180413        2.9789953452  CLST         497          1.0000000000
      1490       497  TIP3  H1          -13.9714318622       -8.1739039914        3.0039042350  CLST         497          1.0000000000
      1491       497  TIP3  H2          -13.7096566717       -9.5637370236        3.2445317223  CLST         497          1.0000000000
      1492       498  TIP3  OH2           4.1710597027       13.9415014549      -10.6571699805  CLST         498          1.0000000000
      1493       498  TIP3  H1            4.5279451261       13.5850323996      -11.3495083301  CLST         498          1.0000000000
      1494       498  TIP3  H2            5.1511340385       13.3740609436      -10.6723392244  CLST         498          1.0000000000
      1495       499  TIP3  OH2           1.2619424070       10.8831408704       -3.1954643471  CLST         499          1.0000000000
      1496       499  TIP3  H1            0.4012248822       11.0068937120       -2.8023280920  CLST         499          1.0000000000
      1497       499  TIP3  H2            1.2913717576       11.8702469686       -2.9791391909  CLST         499          1.0000000000
      1498       500  TIP3  OH2          -5.8980499256       -2.4908263942        4.0554873482  CLST         500          1.0000000000
      1499       500  TIP3  H1           -6.2872252781       -2.4257648746        3.3173536581  CLST         500          1.0000000000
      1500       500  TIP3  H2           -5.4635998964       -1.9597037587        3.1757255581  CLST         500          1.0000000000
      1501       501  TIP3  OH2         -12.4395262605      -13.3988200178       -5.9127246794  CLST         501          1.0000000000
      1502       501  TIP3  H1          -13.0813589384      -12.8133841093       -6.2244537455  CLST         501          1.0000000000
      1503       501  TIP3  H2          -11.7625127618      -12.7520127013       -6.2863435146  CLST         501          1.0000000000
      1504       502  TIP3  OH2          -1.6290326548       -3.8832130718      -11.7631543082  CLST         502          1.0000000000
      1505       502  TIP3  H1           -0.9367268976       -3.0173357206      -12.0449298313  CLST         502          1.0000000000
      1506       502  TIP3  H2           -0.5466064178       -4.0479691389      -11.9918390327  CLST         502          1.0000000000
      1507       503  TIP3  OH2          -0.2898701584       -4.9465185191        1.0398273923  CLST         503          1.0000000000
      1508       503  TIP3  H1            0.3972421932       -5.4199795925        0.5690260370  CLST         503          1.0000000000
      1509       503  TIP3  H2           -0.9554486110       -5.6090185982        0.8370821200  CLST         503          1.0000000000
      1510       504  TIP3  OH2          -4.1826215355       -3.4356374443       12.9734180248  CLST         504          1.0000000000
      1511       504  TIP3  H1           -4.4830132109       -4.2142452082       13.4832969700  CLST         504          1.0000000000
      1512       504  TIP3  H2           -4.1239265099       -2.9521361972       13.8435848088  CLST         504          1.0000000000
      1513       505  TIP3  OH2           5.5694985092       12.2356386971       -9.0784916332  CLST         505          1.0000000000
      1514       505  TIP3  H1            5.8791466277       11.5492692378       -8.3942421773  CLST         505          1.0000000000
      1515       505  TIP3  H2            6.4895182171       12.6175727463       -9.0247538838  CLST         505          1.0000000000
      1516       506  TIP3  OH2          -3.8639376051        3.8392424655       10.3241761470  CLST         506          1.0000000000
      1517       506  TIP3  H1           -4.5938862699        3.7088213985        9.7171326311  CLST         506          1.0000000000
      1518       506  TIP3  H2           -3.6556980534        2.9291635720       10.5355076075  CLST         506          1.0000000000
      1519       507  TIP3  OH2          -2.1140113671        7.1138178093      -12.6294714975  CLST         507          1.0000000000
      1520       507  TIP3  H1           -2.2333436053        6.2812225914      -12.1292211933  CLST         507          1.0000000000
      1521       507  TIP3  H2           -2.9991326534        7.1757362658      -12.8446769965  CLST         507          1.0000000000
      1522       508  TIP3  OH2         -11.2642952276        4.9939501254      -11.3549047577  CLST         508          1.0000000000
      1523       508  TIP3  H1          -11.9816340127        4.6840952993      -10.5842308867  CLST         508          1.0000000000
      1524       508  TIP3  H2          -11.5957918961        4.1928896602      -11.4667239373  CLST         508          1.0000000000
      1525       509  TIP3  OH2           4.8884517024        0.4837369745      -10.8655466426  CLST         509          1.0000000000
      1526       509  TIP3  H1            5.5082001385        0.2994200862      -10.1794455327  CLST         509          1.0000000000
      1527       509  TIP3  H2            5.4786017733        0.3350130666      -11.6835421674  CLST         509          1.0000000000
      1528       510  TIP3  OH2          -4.4446002056        0.1463198472       -3.6730820275  CLST         510          1.0000000000
      1529       510  TIP3  H1           -4.6494185429       -0.4656542088       -4.5431732942  CLST         510          1.0000000000
      1530       510  TIP3  H2           -3.8901164186        0.3859346939       -4.5863638786  CLST         510          1.0000000000
      1531       511  TIP3  OH2         -10.5518708580        1.7309663960       -1.0885899781  CLST         511          1.0000000000
      1532       511  TIP3  H1          -11.1289157517        2.2088306694       -0.5617607201  CLST         511          1.0000000000
      1533       511  TIP3  H2          -11.4499058112        1.2396545659       -0.4909638832  CLST         511          1.0000000000
      1534       512  TIP3  OH2          -3.4329337289       -8.1631830812       -8.5745749940  CLST         512          1.0000000000
      1535       512  TIP3  H1           -2.4569632744       -8.4578886231       -9.0930131958  CLST         512          1.0000000000
      1536       512  TIP3  H2           -3.1287013301       -7.5820729824       -9.0889184794  CLST         512          1.0000000000
      1537       513  TIP3  OH2           9.7241645788       14.0447544105       11.4857180299  CLST         513          1.0000000000
      1538       513  TIP3  H1            9.5376691458       14.8862774949       10.9823245081  CLST         513          1.0000000000
      1539       513  TIP3  H2            9.3637962065       13.6130936724       10.6881415893  CLST         513          1.0000000000
      1540       514  TIP3  OH2          -4.7074818635        7.7211699271      -12.9845208164  CLST         514          1.0000000000
      1541       514  TIP3  H1           -5.4152415481        7.7192144734      -13.6621236436  CLST         514          1.0000000000
      1542       514  TIP3  H2           -5.3605644504        8.1703755614      -12.4417430075  CLST         514          1.0000000000
      1543       515  TIP3  OH2           6.2141564640        6.1356200369       -6.2158369730  CLST         515          1.0000000000
      1544       515  TIP3  H1            6.0440755780        5.6506820233       -5.4460686666  CLST         515          1.0000000000
      1545       515  TIP3  H2            6.6255052997        6.7683547905       -5.6455919785  CLST         515          1.0000000000
      1546       516  TIP3  OH2           9.7696333552       -0.0091887652       -7.8269940067  CLST         516          1.0000000000
      1547       516  TIP3  H1           10.7305275158        0.0103845596       -7.6242777014  CLST         516          1.0000000000
      1548       516  TIP3  H2            9.7405632133        0.9542903440       -7.7859989890  CLST         516          1.0000000000
      1549       517  TIP3  OH2          14.0312613522       -7.0510460678       -9.0853735672  CLST         517          1.0000000000
      1550       517  TIP3  H1           14.7114790516       -6.4331918981       -8.6962016732  CLST         517          1.0000000000
      1551       517  TIP3  H2           14.5235021620       -7.6751575866       -8.5103206523  CLST         517          1.0000000000
      1552       518  TIP3  OH2          -0.6993439510       12.1913335587       -5.8040228014  CLST         518          1.0000000000
      1553       518  TIP3  H1           -0.4340054005       12.4624555151       -4.7157171955  CLST         518          1.0000000000
      1554       518  TIP3  H2           -0.3048489978       12.9276587548       -5.7029822585  CLST         518          1.0000000000
      1555       519  TIP3  OH2           0.9010878052        4.8585290165        1.2460712986  CLST         519          1.0000000000
      1556       519  TIP3  H1            0.2427198321        3.9965814127        0.9964966206  CLST         519          1.0000000000
      1557       519  TIP3  H2           -0.1523250104        4.9483575986        0.9986464093  CLST         519          1.0000000000
      1558       520  TIP3  OH2           6.5860996720        6.7317274538      -10.5562339601  CLST         520          1.0000000000
      1559       520  TIP3  H1            5.7338256526        6.9372064267      -10.9209054487  CLST         520          1.0000000000
      1560       520  TIP3  H2            6.6732874572        7.6415899143      -10.2240220992  CLST         520          1.0000000000
      1561       521  TIP3  OH2          -5.6262058110       10.1838513229        9.6650712676  CLST         521          1.0000000000
      1562       521  TIP3  H1           -4.7571450873       10.2331164943       10.0307355734  CLST         521          1.0000000000
      1563       521  TIP3  H2           -5.2153373437       10.3629600060        8.8072309297  CLST         521          1.0000000000
      1564       522  TIP3  OH2           3.1926262394        3.9965963252        2.3386624588  CLST         522          1.0000000000
      1565       522  TIP3  H1            2.3368763436        4.3574465736        2.0413083068  CLST         522          1.0000000000
      1566       522  TIP3  H2            3.0971949619        3.5121402721        1.4978418149  CLST         522          1.0000000000
      1567       523  TIP3  OH2           8.2650522866        0.6974632132       -3.2601561986  CLST         523          1.0000000000
      1568       523  TIP3  H1            7.3184166836        0.8562997963       -3.5938427092  CLST         523          1.0000000000
      1569       523  TIP3  H2            8.2259226743       -0.2450299613       -3.1118416990  CLST         523          1.0000000000
      1570       524  TIP3  OH2          -5.2217723311        5.4737966504      -10.5448981829  CLST         524          1.0000000000
      1571       524  TIP3  H1           -4.9413718407        6.4105243451      -10.5850866188  CLST         524          1.0000000000
      1572       524  TIP3  H2           -4.2946414096        5.2143884174      -10.7822149662  CLST         524          1.0000000000
      1573       525  TIP3  OH2          -5.6817253362        5.8137110965       -8.0393277005  CLST         525          1.0000000000
      1574       525  TIP3  H1           -5.0713484466        6.5954496613       -8.2377720960  CLST         525          1.0000000000
      1575       525  TIP3  H2           -5.3562839999        5.3759738773       -8.7820881235  CLST         525          1.0000000000
      1576       526  TIP3  OH2           9.2122536369      -10.9566129439      -12.5337679815  CLST         526          1.0000000000
      1577       526  TIP3  H1            9.0935133851      -10.5281265574      -13.5491112747  CLST         526          1.0000000000
      1578       526  TIP3  H2            8.6314277947      -11.2217057247      -13.0538992624  CLST         526          1.0000000000
      1579       527  TIP3  OH2         -11.5516524647       -3.0623619017       -1.5918075304  CLST         527          1.0000000000
      1580       527  TIP3  H1          -12.0111388538       -3.8404725711       -2.0462124288  CLST         527          1.0000000000
      1581       527  TIP3  H2          -10.8686919731       -3.3928383110       -2.1438853148  CLST         527          1.0000000000
      1582       528  TIP3  OH2           4.4386386918      -12.3113504967      -11.0343660623  CLST         528          1.0000000000
      1583       528  TIP3  H1            4.3000537408      -11.3472292753      -11.1853711054  CLST         528          1.0000000000
      1584       528  TIP3  H2            5.2917594079      -11.9226636830      -10.7126908365  CLST         528          1.0000000000
      1585       529  TIP3  OH2          -6.0609435309       -6.8704536836       -5.0598433483  CLST         529          1.0000000000
      1586       529  TIP3  H1           -5.4825807912       -7.5909097661       -5.1618667240  CLST         529          1.0000000000
      1587       529  TIP3  H2           -5.8348081619       -6.3608351057       -5.7749321580  CLST         529          1.0000000000
      1588       530  TIP3  OH2           3.1050401458       -5.5895337431        6.5178587420  CLST         530          1.0000000000
      1589       530  TIP3  H1            2.6041593305       -6.0418284508        7.2464273332  CLST         530          1.0000000000
      1590       530  TIP3  H2            2.2567749936       -5.4966068407        6.0462056759  CLST         530          1.0000000000
      1591       531  TIP3  OH2          -3.2817529032       -3.0165557514      -14.9097018341  CLST         531          1.0000000000
      1592       531  TIP3  H1           -3.8598848774       -2.3428624671      -14.4868690684  CLST         531          1.0000000000
      1593       531  TIP3  H2           -3.1240472887       -3.4116698941      -14.0533927255  CLST         531          1.0000000000
      1594       532  TIP3  OH2          -1.3520706288       -3.6596023170       -2.0929027586  CLST         532          1.0000000000
      1595       532  TIP3  H1           -1.8677487114       -2.8838300054       -2.3747587585  CLST         532          1.0000000000
      1596       532  TIP3  H2           -1.9303560558       -3.7244345907       -1.3106992062  CLST         532          1.0000000000
      1597       533  TIP3  OH2          -2.9209385438       12.9359171464        8.0465621836  CLST         533          1.0000000000
      1598       533  TIP3  H1           -3.5919751519       13.5084644032        7.6734725335  CLST         533          1.0000000000
      1599       533  TIP3  H2           -3.6650536958       12.3485369890        8.1806556794  CLST         533          1.0000000000
      1600       534  TIP3  OH2           6.8679636297       -4.2939780171       -5.0323418699  CLST         534          1.0000000000
      1601       534  TIP3  H1            5.9423754508       -4.0591305822       -4.6644775387  CLST         534          1.0000000000
      1602       534  TIP3  H2            6.2994973372       -4.3222652399       -5.8405837017  CLST         534          1.0000000000
      1603       535  TIP3  OH2           7.0989175237       -3.9768286245      -11.5005069452  CLST         535          1.0000000000
      1604       535  TIP3  H1            6.3466234431       -3.4266114260      -11.2305668896  CLST         535          1.0000000000
      1605       535  TIP3  H2            6.9659938036       -4.2175749816      -10.5160775745  CLST         535          1.0000000000
      1606       536  TIP3  OH2          14.3480143770        8.0584139458       10.8082335097  CLST         536          1.0000000000
      1607       536  TIP3  H1           13.9919736201        8.9760540646       11.0312743616  CLST         536          1.0000000000
      1608       536  TIP3  H2           14.7864361794        8.5757454090       10.0227692757  CLST         536          1.0000000000
      1609       537  TIP3  OH2           4.6518501819       -4.5327568332       -3.5060209267  CLST         537          1.0000000000
      1610       537  TIP3  H1            3.8798562463       -5.1916001690       -3.4100138552  CLST         537          1.0000000000
      1611       537  TIP3  H2            5.1035510973       -5.4254686695       -3.5152845788  CLST         537          1.0000000000
      1612       538  TIP3  OH2          -0.3639332864        7.4535125971       13.0179678851  CLST         538          1.0000000000
      1613       538  TIP3  H1           -0.9110426780        7.5769146554       12.2906353991  CLST         538          1.0000000000
      1614       538  TIP3  H2           -0.2912085161        8.4126450640       12.9652294795  CLST         538          1.0000000000
      1615       539  TIP3  OH2           6.0783128075        8.8681059583        1.2281440198  CLST         539          1.0000000000
      1616       539  TIP3  H1            6.6344871880        7.9905363362        0.8929852677  CLST         539          1.0000000000
      1617       539  TIP3  H2            5.7354867575        8.1510431550        1.3267407402  CLST         539          1.0000000000
      1618       540  TIP3  OH2          12.1752260023       -1.2874114306       -4.2569285680  CLST         540          1.0000000000
      1619       540  TIP3  H1           13.0859518349       -0.9649485331       -4.1703766384  CLST         540          1.0000000000
      1620       540  TIP3  H2           12.2550688773       -1.5778927132       -3.3755902183  CLST         540          1.0000000000
      1621       541  TIP3  OH2          10.4488176960        7.6019054889        8.5038031098  CLST         541          1.0000000000
      1622       541  TIP3  H1           10.5533468589        7.6413165897        9.3829379920  CLST         541          1.0000000000
      1623       541  TIP3  H2           11.0642533274        6.8847575028        9.1048048547  CLST         541          1.0000000000
      1624       542  TIP3  OH2          13.5162983963        0.5099527359       -5.0231650823  CLST         542          1.0000000000
      1625       542  TIP3  H1           12.6751205579        0.6861479139       -5.5433443432  CLST         542          1.0000000000
      1626       542  TIP3  H2           13.9423242339        0.6802374682       -5.8480325621  CLST         542          1.0000000000
      1627       543  TIP3  OH2          10.0560773895       -6.5559366441        5.3641833611  CLST         543          1.0000000000
      1628       543  TIP3  H1           10.4326832651       -6.9281065801        4.5329039147  CLST         543          1.0000000000
      1629       543  TIP3  H2            9.5399037291       -5.8962295979        4.7554342956  CLST         543          1.0000000000
      1630       544  TIP3  OH2           6.4855351230        4.5549571346      -12.1115267494  CLST         544          1.0000000000
      1631       544  TIP3  H1            7.1193175467        3.8609398658      -11.7035117275  CLST         544          1.0000000000
      1632       544  TIP3  H2            6.7072627995        5.0699145749      -11.3114144758  CLST         544          1.0000000000
      1633       545  TIP3  OH2         -11.9873078240        2.0104368389        7.4898977964  CLST         545          1.0000000000
      1634       545  TIP3  H1          -12.7041255539        2.3560552318        7.6932863152  CLST         545          1.0000000000
      1635       545  TIP3  H2          -11.8643357287        2.5928086031        8.0702916432  CLST         545          1.0000000000
      1636       546  TIP3  OH2          -0.8008696728       12.1210896019       10.5182695421  CLST         546          1.0000000000
      1637       546  TIP3  H1           -0.9345498796       13.0413733218       10.2413534128  CLST         546          1.0000000000
      1638       546  TIP3  H2           -0.5528189127       12.4726368302       11.3561981111  CLST         546          1.0000000000
      1639       547  TIP3  OH2          -1.8808097858        7.1137108164        5.9626308460  CLST         547          1.0000000000
      1640       547  TIP3  H1           -1.9401984052        6.4774635149        6.7265455026  CLST         547          1.0000000000
      1641       547  TIP3  H2           -1.6422291410        6.3495860987        5.3873474501  CLST         547          1.0000000000
      1642       548  TIP3  OH2           2.7322761459       -7.9864138893       12.3792513989  CLST         548          1.0000000000
      1643       548  TIP3  H1            2.4057402429       -7.1047892025       12.7126861609  CLST         548          1.0000000000
      1644       548  TIP3  H2            3.5917263925       -7.6060119261       12.1403488656  CLST         548          1.0000000000
      1645       549  TIP3  OH2          -7.0165380432       14.1527909519        3.0735854532  CLST         549          1.0000000000
      1646       549  TIP3  H1           -7.4114087181       14.9097018341        3.3734254944  CLST         549          1.0000000000
      1647       549  TIP3  H2           -6.9794611860       13.6259902231        3.8293001762  CLST         549          1.0000000000
      1648       550  TIP3  OH2          -7.8750199336        4.4921378571       -4.2808036522  CLST         550          1.0000000000
      1649       550  TIP3  H1           -8.6187579923        3.7484768483       -4.3120242763  CLST         550          1.0000000000
      1650       550  TIP3  H2           -8.3131759465        4.4532971112       -3.4083208993  CLST         550          1.0000000000
      1651       551  TIP3  OH2          -2.3656211689      -13.2589953167       -3.3568797943  CLST         551          1.0000000000
      1652       551  TIP3  H1           -1.8797196720      -12.9535880243       -2.5132387073  CLST         551          1.0000000000
      1653       551  TIP3  H2           -3.1068115072      -13.2814492586       -2.7838205113  CLST         551          1.0000000000
      1654       552  TIP3  OH2          -2.3261075636       -7.8555756725       13.5646120831  CLST         552          1.0000000000
      1655       552  TIP3  H1           -2.4300431300       -8.7672263044       13.8572830985  CLST         552          1.0000000000
      1656       552  TIP3  H2           -1.7681686432       -7.9933496506       12.8468151739  CLST         552          1.0000000000
      1657       553  TIP3  OH2           8.2388378896      -14.2057827837        0.3450870112  CLST         553          1.0000000000
      1658       553  TIP3  H1            8.4552540467      -13.3651114812        0.7370950784  CLST         553          1.0000000000
      1659       553  TIP3  H2            8.6816199245      -14.9097018341        0.8536291052  CLST         553          1.0000000000
      1660       554  TIP3  OH2          -9.0410723552      -12.1489703407       -3.7016221184  CLST         554          1.0000000000
      1661       554  TIP3  H1           -9.2838129105      -11.5864133105       -2.9787514584  CLST         554          1.0000000000
      1662       554  TIP3  H2           -9.8021597378      -12.7261171895       -3.3615505590  CLST         554          1.0000000000
      1663       555  TIP3  OH2         -11.1197458579       -5.4258538139       -7.5076640819  CLST         555          1.0000000000
      1664       555  TIP3  H1          -10.8452777682       -4.4434299077       -7.6709667159  CLST         555          1.0000000000
      1665       555  TIP3  H2          -11.0340660103       -5.2022637056       -6.5419511640  CLST         555          1.0000000000
      1666       556  TIP3  OH2         -10.5432199700       11.3934852766       13.4216231077  CLST         556          1.0000000000
      1667       556  TIP3  H1          -10.9723058501       10.5066968285       13.5784169846  CLST         556          1.0000000000
      1668       556  TIP3  H2           -9.6599861440       10.9076305544       13.3006267965  CLST         556          1.0000000000
      1669       557  TIP3  OH2          -2.4742120612       -6.5648301783        1.5103487088  CLST         557          1.0000000000
      1670       557  TIP3  H1           -2.3724296095       -6.5419916578        2.4852860075  CLST         557          1.0000000000
      1671       557  TIP3  H2           -2.7133653408       -7.5244032027        1.5786911005  CLST         557          1.0000000000
      1672       558  TIP3  OH2         -10.4835549915        6.3091808116        2.7839058906  CLST         558          1.0000000000
      1673       558  TIP3  H1          -10.2493093484        5.6349605863        3.4866635316  CLST         558          1.0000000000
      1674       558  TIP3  H2           -9.9550493527        5.7346699046        2.2259058676  CLST         558          1.0000000000
      1675       559  TIP3  OH2           0.8424909209        2.6732678782       -0.0963625539  CLST         559          1.0000000000
      1676       559  TIP3  H1            1.5126535832        2.8276384821       -0.9617126090  CLST         559          1.0000000000
      1677       559  TIP3  H2            1.7092580130        2.0489144501       -0.4412030156  CLST         559          1.0000000000
      1678       560  TIP3  OH2          12.5038171678      -11.9473446691        1.1058162610  CLST         560          1.0000000000
      1679       560  TIP3  H1           11.7893637617      -11.8735218496        0.4558721056  CLST         560          1.0000000000
      1680       560  TIP3  H2           12.6947587163      -12.7952773976        0.6656874065  CLST         560          1.0000000000
      1681       561  TIP3  OH2         -12.8059623036        8.5848389273      -10.7801590672  CLST         561          1.0000000000
      1682       561  TIP3  H1          -11.8589283733        8.4136449328      -11.0220727506  CLST         561          1.0000000000
      1683       561  TIP3  H2          -12.3363821274        8.4137739219      -10.0124467647  CLST         561          1.0000000000
      1684       562  TIP3  OH2          10.0462415029        6.7703982194       13.0579745944  CLST         562          1.0000000000
      1685       562  TIP3  H1           10.3655782999        7.2432808608       13.8823242063  CLST         562          1.0000000000
      1686       562  TIP3  H2           10.2388216486        5.9655503400       13.5924949908  CLST         562          1.0000000000
      1687       563  TIP3  OH2           3.3812851600      -10.4788981086       -6.7810097377  CLST         563          1.0000000000
      1688       563  TIP3  H1            4.1930883835      -10.8880904941       -6.7294362254  CLST         563          1.0000000000
      1689       563  TIP3  H2            2.9751570446      -11.3123824826       -6.6264891241  CLST         563          1.0000000000
      1690       564  TIP3  OH2           4.6455097730      -13.3342336293       -3.1131306571  CLST         564          1.0000000000
      1691       564  TIP3  H1            4.9944335780      -13.5884868467       -3.9624963470  CLST         564          1.0000000000
      1692       564  TIP3  H2            3.7863366796      -13.3473656177       -3.5395222471  CLST         564          1.0000000000
      1693       565  TIP3  OH2           1.3842707998       12.2583731705        0.4248615125  CLST         565          1.0000000000
      1694       565  TIP3  H1            1.1447972343       11.4105313698       -0.0155454889  CLST         565          1.0000000000
      1695       565  TIP3  H2            2.2178434230       12.2324583953       -0.0976996925  CLST         565          1.0000000000
      1696       566  TIP3  OH2          -8.8035204696        5.3974421745        0.8748162280  CLST         566          1.0000000000
      1697       566  TIP3  H1           -8.9394476807        4.9206226803        0.0338404872  CLST         566          1.0000000000
      1698       566  TIP3  H2           -9.1661728397        5.8191206375       -0.1551333178  CLST         566          1.0000000000
      1699       567  TIP3  OH2          12.3445545504        0.1268654543       -8.2878699701  CLST         567          1.0000000000
      1700       567  TIP3  H1           13.2983965553        0.1787909765       -8.0371150793  CLST         567          1.0000000000
      1701       567  TIP3  H2           12.6264777944       -0.3257604350       -9.1545173473  CLST         567          1.0000000000
      1702       568  TIP3  OH2           8.7969415976       -7.0514219831       11.8020867729  CLST         568          1.0000000000
      1703       568  TIP3  H1            9.5829832138       -6.9071081544       12.3734642526  CLST         568          1.0000000000
      1704       568  TIP3  H2            9.2841353389       -6.2929946662       11.3718154440  CLST         568          1.0000000000
      1705       569  TIP3  OH2          -8.7283788194       -6.2155395184        3.5812826583  CLST         569          1.0000000000
      1706       569  TIP3  H1           -9.0902614660       -5.9314321429        2.7605080742  CLST         569          1.0000000000
      1707       569  TIP3  H2           -9.4519863180       -6.7900981996        3.4915711207  CLST         569          1.0000000000
      1708       570  TIP3  OH2           6.0643053049       11.6113702341       14.9097018341  CLST         570          1.0000000000
      1709       570  TIP3  H1            5.4995927310       11.8849234721       14.1816118204  CLST         570          1.0000000000
      1710       570  TIP3  H2            6.7805883376       11.8700968355       14.2232001990  CLST         570          1.0000000000
      1711       571  TIP3  OH2           9.5498044558        1.0904531354        4.4522194485  CLST         571          1.0000000000
      1712       571  TIP3  H1            9.0491331793        1.9175377286        4.2882603033  CLST         571          1.0000000000
      1713       571  TIP3  H2            8.9799754986        0.6253166936        3.7806812203  CLST         571          1.0000000000
      1714       572  TIP3  OH2           5.0825645654        0.3695451651        2.3157458888  CLST         572          1.0000000000
      1715       572  TIP3  H1            5.2488200449       -0.4632085324        2.6997372243  CLST         572          1.0000000000
      1716       572  TIP3  H2            5.9232479069        0.4382384179        1.8720727566  CLST         572          1.0000000000
      1717       573  TIP3  OH2          -1.8452801869       -6.3850960730       -6.4538308874  CLST         573          1.0000000000
      1718       573  TIP3  H1           -1.4969981308       -7.1708939379       -6.9020273130  CLST         573          1.0000000000
      1719       573  TIP3  H2           -2.6470053062       -6.3485424110       -7.0196333430  CLST         573          1.0000000000
      1720       574  TIP3  OH2          -9.6883861199        0.9039413896        9.6297759080  CLST         574          1.0000000000
      1721       574  TIP3  H1           -9.7822169012        1.8819295214        9.5138231339  CLST         574          1.0000000000
      1722       574  TIP3  H2           -9.1847083996        1.0508304876        8.8085044221  CLST         574          1.0000000000
      1723       575  TIP3  OH2          -3.8920074181       10.7938240699        1.0494325362  CLST         575          1.0000000000
      1724       575  TIP3  H1           -3.9978760133       11.4153446907        0.2875533326  CLST         575          1.0000000000
      1725       575  TIP3  H2           -4.8606783021       11.0186648065        1.1753833407  CLST         575          1.0000000000
      1726       576  TIP3  OH2          -3.3626638467       -2.4882533551        6.2680333647  CLST         576          1.0000000000
      1727       576  TIP3  H1           -3.4410757144       -1.4979734434        6.1363890070  CLST         576          1.0000000000
      1728       576  TIP3  H2           -3.2393437411       -2.5454937958        5.3355628711  CLST         576          1.0000000000
      1729       577  TIP3  OH2         -11.9968352817       11.3489335547        8.5005981303  CLST         577          1.0000000000
      1730       577  TIP3  H1          -11.5054754906       12.1372500473        8.5782997863  CLST         577          1.0000000000
      1731       577  TIP3  H2          -11.6733582805       11.0000902586        7.6616924553  CLST         577          1.0000000000
      1732       578  TIP3  OH2          -1.5566488942        0.9627577861        5.2851038941  CLST         578          1.0000000000
      1733       578  TIP3  H1           -2.4553294149        1.4124284194        5.2409171190  CLST         578          1.0000000000
      1734       578  TIP3  H2           -1.7865738809        1.0245110254        6.2669654325  CLST         578          1.0000000000
      1735       579  TIP3  OH2          -6.4435868907       11.7250886643        1.6401158653  CLST         579          1.0000000000
      1736       579  TIP3  H1           -6.9051913782       12.4843804804        1.2264468686  CLST         579          1.0000000000
      1737       579  TIP3  H2           -7.0727117967       11.2133953348        1.0801485640  CLST         579          1.0000000000
      1738       580  TIP3  OH2          11.0547756940        3.5387201531       -3.5980524543  CLST         580          1.0000000000
      1739       580  TIP3  H1           11.3668370812        2.7235892348       -3.1177160865  CLST         580          1.0000000000
      1740       580  TIP3  H2           11.4485523602        3.9545246013       -2.7951431918  CLST         580          1.0000000000
      1741       581  TIP3  OH2          12.8874910554      -11.4703167120        3.6665054588  CLST         581          1.0000000000
      1742       581  TIP3  H1           12.9989035129      -11.9810349715        2.8251201191  CLST         581          1.0000000000
      1743       581  TIP3  H2           13.7916626404      -11.8515468021        3.8664870588  CLST         581          1.0000000000
      1744       582  TIP3  OH2           6.2803025944       10.5021355905       -6.9903430835  CLST         582          1.0000000000
      1745       582  TIP3  H1            5.6052971088       10.1411260404       -6.4405430541  CLST         582          1.0000000000
      1746       582  TIP3  H2            6.7238852740       10.8217374222       -6.1660738187  CLST         582          1.0000000000
      1747       583  TIP3  OH2          -2.6211481799        4.6340622993      -11.1313490884  CLST         583          1.0000000000
      1748       583  TIP3  H1           -3.0507503947        3.6586161871      -11.2470276310  CLST         583          1.0000000000
      1749       583  TIP3  H2           -2.0948060303        3.7751850040      -11.4377202442  CLST         583          1.0000000000
      1750       584  TIP3  OH2           2.0792467293       -4.2377155144      -10.0262403762  CLST         584          1.0000000000
      1751       584  TIP3  H1            2.9329432488       -4.6786577013      -10.3182261663  CLST         584          1.0000000000
      1752       584  TIP3  H2            2.6777337847       -3.5033064259       -9.9077171431  CLST         584          1.0000000000
      1753       585  TIP3  OH2         -13.8569358453        1.0665610360       -1.7884921324  CLST         585          1.0000000000
      1754       585  TIP3  H1          -13.7438312653        1.7940678765       -2.4752674580  CLST         585          1.0000000000
      1755       585  TIP3  H2          -14.7167550343        0.7989506681       -2.0415364801  CLST         585          1.0000000000
      1756       586  TIP3  OH2          -7.2793932754        8.6499554036       10.4748369994  CLST         586          1.0000000000
      1757       586  TIP3  H1           -7.0322387713        9.1244511339        9.6025627167  CLST         586          1.0000000000
      1758       586  TIP3  H2           -7.0475897238        7.9015290162        9.8905946751  CLST         586          1.0000000000
      1759       587  TIP3  OH2           5.0962602728        4.4198648036       -9.8823463135  CLST         587          1.0000000000
      1760       587  TIP3  H1            4.5200254767        5.1317121876      -10.1316076636  CLST         587          1.0000000000
      1761       587  TIP3  H2            4.9599552991        4.3207659845      -10.8598698064  CLST         587          1.0000000000
      1762       588  TIP3  OH2           5.0325031664       -9.6841283361      -13.9414324205  CLST         588          1.0000000000
      1763       588  TIP3  H1            4.2130504103       -9.7465836897      -14.4096856714  CLST         588          1.0000000000
      1764       588  TIP3  H2            4.5242678643       -9.6511658603      -13.1327243610  CLST         588          1.0000000000
      1765       589  TIP3  OH2           0.1840889348      -14.5295486802        3.4799272884  CLST         589          1.0000000000
      1766       589  TIP3  H1           -0.7103285974      -14.7581285844        3.1404975328  CLST         589          1.0000000000
      1767       589  TIP3  H2           -0.3110952078      -13.8211624786        3.9337684733  CLST         589          1.0000000000
      1768       590  TIP3  OH2           2.4297855206        1.8857502247       -8.2649039718  CLST         590          1.0000000000
      1769       590  TIP3  H1            1.8865492795        2.6319907747       -8.0668856120  CLST         590          1.0000000000
      1770       590  TIP3  H2            2.0093724682        2.1416747805       -9.1736829895  CLST         590          1.0000000000
      1771       591  TIP3  OH2         -12.7648413184        0.6921909588       -6.6213548829  CLST         591          1.0000000000
      1772       591  TIP3  H1          -11.8617481601        0.5583068924       -6.4487453534  CLST         591          1.0000000000
      1773       591  TIP3  H2          -12.8107048914        1.6263723233       -6.3318933519  CLST         591          1.0000000000
      1774       592  TIP3  OH2          -4.1895820931       -3.8813149735       -6.3381054014  CLST         592          1.0000000000
      1775       592  TIP3  H1           -3.4672461247       -3.5214726019       -6.9299376021  CLST         592          1.0000000000
      1776       592  TIP3  H2           -4.7280113793       -4.3093682929       -6.9856489026  CLST         592          1.0000000000
      1777       593  TIP3  OH2          -1.6038377900        5.2858235269       -4.6080414829  CLST         593          1.0000000000
      1778       593  TIP3  H1           -1.1534359142        6.1139058288       -4.3308000142  CLST         593          1.0000000000
      1779       593  TIP3  H2           -0.9926839505        5.3720699982       -5.3727796639  CLST         593          1.0000000000
      1780       594  TIP3  OH2          11.1954695053       10.5583886795       13.3286581287  CLST         594          1.0000000000
      1781       594  TIP3  H1           10.8085186322        9.8032893053       13.8589019214  CLST         594          1.0000000000
      1782       594  TIP3  H2           10.2742488725       10.7346465933       14.1041841561  CLST         594          1.0000000000
      1783       595  TIP3  OH2          -9.3104377162       13.6388986833        4.3279568926  CLST         595          1.0000000000
      1784       595  TIP3  H1           -9.8147401784       14.4281149530        4.3031673617  CLST         595          1.0000000000
      1785       595  TIP3  H2           -9.0956565498       13.7195142485        3.4077008042  CLST         595          1.0000000000
      1786       596  TIP3  OH2         -14.0247497932       -0.5186693331        8.6808863593  CLST         596          1.0000000000
      1787       596  TIP3  H1          -14.2969937328       -1.3625983925        8.9714876198  CLST         596          1.0000000000
      1788       596  TIP3  H2          -13.2691084448       -0.7256630389        8.1293505098  CLST         596          1.0000000000
      1789       597  TIP3  OH2          -3.0584390275       -5.2737040581       -4.3673546308  CLST         597          1.0000000000
      1790       597  TIP3  H1           -2.7864483080       -5.9387866274       -5.0339348795  CLST         597          1.0000000000
      1791       597  TIP3  H2           -3.0120322920       -4.6702993342       -5.2041207222  CLST         597          1.0000000000
      1792       598  TIP3  OH2          -8.2348785328       -9.5908507603       -9.1091654527  CLST         598          1.0000000000
      1793       598  TIP3  H1           -9.1427157236       -9.9005486772       -8.9922906958  CLST         598          1.0000000000
      1794       598  TIP3  H2           -8.5598835738       -9.2387276363       -9.9519631556  CLST         598          1.0000000000
      1795       599  TIP3  OH2          11.8115941246        0.0206815496      -13.0495248385  CLST         599          1.0000000000
      1796       599  TIP3  H1           12.2042495435        0.8885324313      -13.1959541792  CLST         599          1.0000000000
      1797       599  TIP3  H2           11.9935437389       -0.3643464519      -13.9098327090  CLST         599          1.0000000000
      1798       600  TIP3  OH2          14.0569158370       -9.5887587511        1.4811612407  CLST         600          1.0000000000
      1799       600  TIP3  H1           14.7388253730      -10.0407594173        0.9730155211  CLST         600          1.0000000000
      1800       600  TIP3  H2           13.8050375889      -10.7480308539        1.4950164025  CLST         600          1.0000000000
      1801       601  TIP3  OH2          -2.3283495716       13.4769503830       -8.1612569391  CLST         601          1.0000000000
      1802       601  TIP3  H1           -1.8798048154       12.6567198175       -8.3407017170  CLST         601          1.0000000000
      1803       601  TIP3  H2           -1.6680836029       14.0136324599       -8.5264621641  CLST         601          1.0000000000
      1804       602  TIP3  OH2          13.9847659433       -3.3364245240        8.5987417179  CLST         602          1.0000000000
      1805       602  TIP3  H1           13.5242283236       -2.8787477220        7.9417243494  CLST         602          1.0000000000
      1806       602  TIP3  H2           14.3300618181       -3.9893336841        8.0099050428  CLST         602          1.0000000000
      1807       603  TIP3  OH2          -8.1890361324       -9.4705412232      -11.8557613473  CLST         603          1.0000000000
      1808       603  TIP3  H1           -8.9966958668       -9.0296494149      -12.1042198284  CLST         603          1.0000000000
      1809       603  TIP3  H2           -8.5567901758      -10.3972218594      -11.9554064424  CLST         603          1.0000000000
      1810       604  TIP3  OH2          -0.0656425482       -8.0220983459       12.3356175361  CLST         604          1.0000000000
      1811       604  TIP3  H1            0.3943154799       -7.1507915245       12.4901576687  CLST         604          1.0000000000
      1812       604  TIP3  H2            0.6476932799       -8.3451432220       12.9673035835  CLST         604          1.0000000000
      1813       605  TIP3  OH2           9.8988167033        8.0775411274        3.9751234131  CLST         605          1.0000000000
      1814       605  TIP3  H1            9.2960422937        8.7010731560        3.6440769375  CLST         605          1.0000000000
      1815       605  TIP3  H2           10.3116470282        9.1021190969        3.8672767053  CLST         605          1.0000000000
      1816       606  TIP3  OH2           0.9224305869        8.6697641060       -6.4446669113  CLST         606          1.0000000000
      1817       606  TIP3  H1            1.4022869408        9.3531826122       -6.0218521394  CLST         606          1.0000000000
      1818       606  TIP3  H2            0.1722127745        9.2259519462       -6.2152367550  CLST         606          1.0000000000
      1819       607  TIP3  OH2          -5.0671892067        1.1543667507      -13.8019704368  CLST         607          1.0000000000
      1820       607  TIP3  H1           -6.1779620107        1.2891400979      -13.5514810862  CLST         607          1.0000000000
      1821       607  TIP3  H2           -5.6627571858        0.5299894389      -14.2829218596  CLST         607          1.0000000000
      1822       608  TIP3  OH2          -2.3342391605       -0.4338978173      -11.7596708195  CLST         608          1.0000000000
      1823       608  TIP3  H1           -1.5073129308       -0.3495558183      -11.2434275706  CLST         608          1.0000000000
      1824       608  TIP3  H2           -2.0122596802       -0.1852212830      -12.6494662944  CLST         608          1.0000000000
      1825       609  TIP3  OH2           3.8569193008        8.4998736557        2.9161360849  CLST         609          1.0000000000
      1826       609  TIP3  H1            4.2878490211        8.5995451738        3.7618063708  CLST         609          1.0000000000
      1827       609  TIP3  H2            4.4106204323        7.7105745173        2.8937988028  CLST         609          1.0000000000
      1828       610  TIP3  OH2          -7.6030640527       -9.1112596719       11.8881824773  CLST         610          1.0000000000
      1829       610  TIP3  H1           -6.8338149441       -9.7033675575       11.7181293654  CLST         610          1.0000000000
      1830       610  TIP3  H2           -7.1144784429       -8.5132109994       11.3326589629  CLST         610          1.0000000000
      1831       611  TIP3  OH2          13.9873606666       -4.4142836602        6.3975944492  CLST         611          1.0000000000
      1832       611  TIP3  H1           14.5657829077       -5.1312091774        6.0494569234  CLST         611          1.0000000000
      1833       611  TIP3  H2           14.0095202796       -4.1129483842        5.4642352928  CLST         611          1.0000000000
      1834       612  TIP3  OH2          -8.9221898622      -10.8547492501        6.1667558288  CLST         612          1.0000000000
      1835       612  TIP3  H1           -8.0986772474      -10.5155208707        5.8301852910  CLST         612          1.0000000000
      1836       612  TIP3  H2           -9.2230300350      -10.0400150732        5.6827376486  CLST         612          1.0000000000
      1837       613  TIP3  OH2           2.6924240422       -2.0776904876       14.8099601017  CLST         613          1.0000000000
      1838       613  TIP3  H1            2.3473512702       -2.9791776638       14.7635426927  CLST         613          1.0000000000
      1839       613  TIP3  H2            1.9889574385       -1.7786658475       14.2505313315  CLST         613          1.0000000000
      1840       614  TIP3  OH2           1.2749760026        4.5389543356       -8.9952889042  CLST         614          1.0000000000
      1841       614  TIP3  H1            1.3518428578        4.7820858469       -8.0748149508  CLST         614          1.0000000000
      1842       614  TIP3  H2            1.1352336331        5.4534259630       -9.1485366297  CLST         614          1.0000000000
      1843       615  TIP3  OH2           1.3216137988        4.5307090412        7.1143553156  CLST         615          1.0000000000
      1844       615  TIP3  H1            1.8074931622        5.3162738167        7.3457323906  CLST         615          1.0000000000
      1845       615  TIP3  H2            1.6638988878        4.7218012286        6.2219110395  CLST         615          1.0000000000
      1846       616  TIP3  OH2          -7.7875501790        4.5174659861       -7.1667859743  CLST         616          1.0000000000
      1847       616  TIP3  H1           -8.3898985532        4.7504345033       -7.9108919011  CLST         616          1.0000000000
      1848       616  TIP3  H2           -7.1809454326        5.0570951689       -7.6516142715  CLST         616          1.0000000000
      1849       617  TIP3  OH2          14.7578179295        2.2646788345       11.6440507858  CLST         617          1.0000000000
      1850       617  TIP3  H1           14.5472922826        1.3700665338       11.7959239518  CLST         617          1.0000000000
      1851       617  TIP3  H2           13.9233045399        2.5919087826       11.9775554085  CLST         617          1.0000000000
      1852       618  TIP3  OH2          -6.9710618662        3.3063206967        2.8643277934  CLST         618          1.0000000000
      1853       618  TIP3  H1           -6.9173117966        4.0741583241        2.2697722741  CLST         618          1.0000000000
      1854       618  TIP3  H2           -6.5535869232        3.7373322940        3.5495879109  CLST         618          1.0000000000
      1855       619  TIP3  OH2           1.3297495349        5.7215364564       -2.5346498546  CLST         619          1.0000000000
      1856       619  TIP3  H1            0.6001832113        5.0617454313       -2.3900489847  CLST         619          1.0000000000
      1857       619  TIP3  H2            0.5317179543        6.3733617489       -2.5911726070  CLST         619          1.0000000000
      1858       620  TIP3  OH2          -3.7078654758        8.6968287550       -5.8482201022  CLST         620          1.0000000000
      1859       620  TIP3  H1           -3.8592951412        7.9222525360       -5.2547946903  CLST         620          1.0000000000
      1860       620  TIP3  H2           -3.9032458037        8.2071228411       -6.6623901141  CLST         620          1.0000000000
      1861       621  TIP3  OH2           0.8394384029        7.4450139078       -8.8267812744  CLST         621          1.0000000000
      1862       621  TIP3  H1            1.1353355760        8.0940270318       -8.2024047826  CLST         621          1.0000000000
      1863       621  TIP3  H2            0.7144647758        8.0922558305       -9.5510611626  CLST         621          1.0000000000
      1864       622  TIP3  OH2           2.0741686450       10.4216293856        3.9032617242  CLST         622          1.0000000000
      1865       622  TIP3  H1            2.6460185881       10.2028561456        4.6032634948  CLST         622          1.0000000000
      1866       622  TIP3  H2            1.3632024213       10.1940362732        4.4950859387  CLST         622          1.0000000000
      1867       623  TIP3  OH2          -0.2780116708       12.2540791985        2.4988253944  CLST         623          1.0000000000
      1868       623  TIP3  H1            0.4019468112       12.3407239860        1.8259650775  CLST         623          1.0000000000
      1869       623  TIP3  H2            0.5822698791       12.0042297559        3.0212361318  CLST         623          1.0000000000
      1870       624  TIP3  OH2          -9.0530598866       -1.6711432817       -3.8651903780  CLST         624          1.0000000000
      1871       624  TIP3  H1           -8.9093121793       -1.1901121930       -4.6447351683  CLST         624          1.0000000000
      1872       624  TIP3  H2           -9.7746418779       -1.0631396849       -3.8449793132  CLST         624          1.0000000000
      1873       625  TIP3  OH2          -9.5631276446      -12.8575065558       -9.0011284203  CLST         625          1.0000000000
      1874       625  TIP3  H1          -10.0924824130      -12.2270319325       -8.2572443839  CLST         625          1.0000000000
      1875       625  TIP3  H2           -9.4726663560      -12.9698335565       -8.1642056454  CLST         625          1.0000000000
      1876       626  TIP3  OH2          13.2185962413       -5.3300105186       -2.9629883011  CLST         626          1.0000000000
      1877       626  TIP3  H1           12.9251849483       -6.2800681761       -3.1037740131  CLST         626          1.0000000000
      1878       626  TIP3  H2           13.1882071193       -5.3654699476       -3.8928778498  CLST         626          1.0000000000
      1879       627  TIP3  OH2          -1.0986465935      -11.7548118841        7.8587313130  CLST         627          1.0000000000
      1880       627  TIP3  H1           -0.0572805274      -11.5961177824        8.3663632589  CLST         627          1.0000000000
      1881       627  TIP3  H2           -0.7763870339      -12.2773529347        8.4728069594  CLST         627          1.0000000000
      1882       628  TIP3  OH2           6.8709728052        8.9707185504       -9.1212960191  CLST         628          1.0000000000
      1883       628  TIP3  H1            6.1031871744        9.5509379549       -9.0802959046  CLST         628          1.0000000000
      1884       628  TIP3  H2            6.7106732530        9.0490691921       -8.1613512096  CLST         628          1.0000000000
      1885       629  TIP3  OH2          -9.9238231935       -0.2422979247       -9.8067521583  CLST         629          1.0000000000
      1886       629  TIP3  H1           -9.1872932259        0.0926576362      -10.1700803149  CLST         629          1.0000000000
      1887       629  TIP3  H2           -9.0660608130       -0.9282286710      -10.0682206152  CLST         629          1.0000000000
      1888       630  TIP3  OH2          11.7569005345       12.2104084360       11.7731911160  CLST         630          1.0000000000
      1889       630  TIP3  H1           11.1039751023       12.9431647651       11.6522336391  CLST         630          1.0000000000
      1890       630  TIP3  H2           10.8682820106       11.8834214165       12.0861840864  CLST         630          1.0000000000
      1891       631  TIP3  OH2         -12.3256777827      -11.5704712185      -11.5459304669  CLST         631          1.0000000000
      1892       631  TIP3  H1          -12.3319734514      -11.5750521981      -12.5209922286  CLST         631          1.0000000000
      1893       631  TIP3  H2          -12.9913719277      -12.2284051817      -11.3530909419  CLST         631          1.0000000000
      1894       632  TIP3  OH2          10.8310529990        2.1191471587        9.3843309330  CLST         632          1.0000000000
      1895       632  TIP3  H1           10.8664134729        1.4926575998       10.0965277500  CLST         632          1.0000000000
      1896       632  TIP3  H2           11.3823772747        1.5475201875        8.9471991228  CLST         632          1.0000000000
      1897       633  TIP3  OH2          -4.4207621454        6.7397938207       10.1815173746  CLST         633          1.0000000000
      1898       633  TIP3  H1           -4.3480819813        5.7584229662       10.2888657986  CLST         633          1.0000000000
      1899       633  TIP3  H2           -5.3450956677        6.5526086013        9.8875887874  CLST         633          1.0000000000
      1900       634  TIP3  OH2          -2.5071429337       -7.3236722459        6.7924699007  CLST         634          1.0000000000
      1901       634  TIP3  H1           -2.5048377156       -8.1609348401        7.2377191587  CLST         634          1.0000000000
      1902       634  TIP3  H2           -2.1017560415       -6.9949142283        7.6713175858  CLST         634          1.0000000000
      1903       635  TIP3  OH2           2.6580180062        2.9797200680       -2.1077150051  CLST         635          1.0000000000
      1904       635  TIP3  H1            2.5374846686        3.7988115713       -2.9107395295  CLST         635          1.0000000000
      1905       635  TIP3  H2            2.4183428509        2.7514422563       -2.9856723602  CLST         635          1.0000000000
      1906       636  TIP3  OH2           5.0527881770       -2.7877605194      -10.1162501608  CLST         636          1.0000000000
      1907       636  TIP3  H1            4.6668862727       -2.3689810399      -10.9141116194  CLST         636          1.0000000000
      1908       636  TIP3  H2            5.0608757128       -1.8429158581       -9.9133489053  CLST         636          1.0000000000
      1909       637  TIP3  OH2           3.7260415465       10.8025911839      -10.6139744946  CLST         637          1.0000000000
      1910       637  TIP3  H1            3.9079284113       11.2754666970       -9.7656807320  CLST         637          1.0000000000
      1911       637  TIP3  H2            3.2307926096       10.2071656898      -10.0467923249  CLST         637          1.0000000000
      1912       638  TIP3  OH2           8.8980850920      -12.1459513126       -7.1617605675  CLST         638          1.0000000000
      1913       638  TIP3  H1            8.6658180955      -12.6435291302       -7.9151779649  CLST         638          1.0000000000
      1914       638  TIP3  H2            9.5503849302      -11.7790529212       -7.7406018705  CLST         638          1.0000000000
      1915       639  TIP3  OH2           7.4269546769      -13.3059086259       -8.9530704483  CLST         639          1.0000000000
      1916       639  TIP3  H1            6.5208362839      -13.5644735657       -9.2096866816  CLST         639          1.0000000000
      1917       639  TIP3  H2            7.4372776997      -14.3058551177       -8.8329780502  CLST         639          1.0000000000
      1918       640  TIP3  OH2         -10.1529299066       -2.8573254141      -10.0966831188  CLST         640          1.0000000000
      1919       640  TIP3  H1           -9.2931311123       -3.1155191110       -9.7998100859  CLST         640          1.0000000000
      1920       640  TIP3  H2          -10.3141542783       -2.6836741289       -9.2158348082  CLST         640          1.0000000000
      1921       641  TIP3  OH2         -13.7383256375       -2.9281336173      -13.2974047845  CLST         641          1.0000000000
      1922       641  TIP3  H1          -13.1573722376       -3.7631985639      -13.2250759578  CLST         641          1.0000000000
      1923       641  TIP3  H2          -12.5862085916       -2.7771659827      -13.2448897932  CLST         641          1.0000000000
      1924       642  TIP3  OH2          -1.8464204678        1.6205502246       10.8800198544  CLST         642          1.0000000000
      1925       642  TIP3  H1           -1.0677099801        1.6908918669       11.4044869385  CLST         642          1.0000000000
      1926       642  TIP3  H2           -2.2824081486        1.3539634597       11.7008285247  CLST         642          1.0000000000
      1927       643  TIP3  OH2         -14.0102608444       -3.0380627350        3.4665321399  CLST         643          1.0000000000
      1928       643  TIP3  H1          -13.5853811662       -2.4706552369        4.1672498940  CLST         643          1.0000000000
      1929       643  TIP3  H2          -14.8278196815       -2.4684755178        3.7818376398  CLST         643          1.0000000000
      1930       644  TIP3  OH2          12.9323219676       -2.8109134012        1.0973730643  CLST         644          1.0000000000
      1931       644  TIP3  H1           13.8227689223       -2.6153520514        1.4446172140  CLST         644          1.0000000000
      1932       644  TIP3  H2           13.4008001471       -3.4492633204        0.4790128322  CLST         644          1.0000000000
      1933       645  TIP3  OH2          -6.8147789947        6.3854546774        8.9521358257  CLST         645          1.0000000000
      1934       645  TIP3  H1           -7.1725251797        6.6182532260        8.0495193152  CLST         645          1.0000000000
      1935       645  TIP3  H2           -6.7883787807        5.4183707421        8.6616117215  CLST         645          1.0000000000
      1936       646  TIP3  OH2           7.3208306514      -11.2467059960       12.0686575377  CLST         646          1.0000000000
      1937       646  TIP3  H1            6.6765193691      -11.9421745706       12.3177624430  CLST         646          1.0000000000
      1938       646  TIP3  H2            7.8567314854      -11.9568731551       11.6555279450  CLST         646          1.0000000000
      1939       647  TIP3  OH2         -12.9434499342       -9.4051737294       -7.5008325248  CLST         647          1.0000000000
      1940       647  TIP3  H1          -13.5057769775       -9.1876877506       -6.7373069023  CLST         647          1.0000000000
      1941       647  TIP3  H2          -12.2710730405       -9.3604556543       -6.7764357429  CLST         647          1.0000000000
      1942       648  TIP3  OH2         -13.7605304311        3.1390419919       -6.2644527533  CLST         648          1.0000000000
      1943       648  TIP3  H1          -14.6742283668        3.5480939712       -6.1114308590  CLST         648          1.0000000000
      1944       648  TIP3  H2          -13.6772233327        3.1536368352       -5.2624671524  CLST         648          1.0000000000
      1945       649  TIP3  OH2          -1.7865546208       -3.4052637930       -7.4855778402  CLST         649          1.0000000000
      1946       649  TIP3  H1           -0.8626592709       -3.0984643590       -7.4906666005  CLST         649          1.0000000000
      1947       649  TIP3  H2           -1.5129185406       -4.2453145630       -7.8681450208  CLST         649          1.0000000000
      1948       650  TIP3  OH2          -4.2625618556       -3.4930325850      -12.0811238609  CLST         650          1.0000000000
      1949       650  TIP3  H1           -3.3718951173       -3.2937745689      -11.8149051758  CLST         650          1.0000000000
      1950       650  TIP3  H2           -3.9973020920       -2.4362909028      -11.8573846861  CLST         650          1.0000000000
      1951       651  TIP3  OH2           1.0736400986       -4.2411767958       14.7530925937  CLST         651          1.0000000000
      1952       651  TIP3  H1            1.5443467449       -4.4740638492       13.9575638499  CLST         651          1.0000000000
      1953       651  TIP3  H2            0.3704429354       -4.8952640294       14.7864811115  CLST         651          1.0000000000
      1954       652  TIP3  OH2           2.1389148434       -8.8325793295       10.1135397206  CLST         652          1.0000000000
      1955       652  TIP3  H1            1.8870126751       -8.2138412084       10.8244012467  CLST         652          1.0000000000
      1956       652  TIP3  H2            2.1998741312       -8.0892446043        9.4913246837  CLST         652          1.0000000000
      1957       653  TIP3  OH2          13.7406131433        1.2931177066       -2.4364247366  CLST         653          1.0000000000
      1958       653  TIP3  H1           12.8680886920        0.8744526662       -2.6358981422  CLST         653          1.0000000000
      1959       653  TIP3  H2           13.7030808025        1.3023053945       -3.4142304302  CLST         653          1.0000000000
      1960       654  TIP3  OH2          -5.8785799943        8.8115307485       12.8219235632  CLST         654          1.0000000000
      1961       654  TIP3  H1           -5.0907611201        9.4372125546       12.9570893069  CLST         654          1.0000000000
      1962       654  TIP3  H2           -5.7938169673        8.7058304084       11.8858042200  CLST         654          1.0000000000
      1963       655  TIP3  OH2          -3.9514737357        1.5165495603       12.3594292259  CLST         655          1.0000000000
      1964       655  TIP3  H1           -4.3391288065        0.6836195753       11.9943829099  CLST         655          1.0000000000
      1965       655  TIP3  H2           -4.4717375942        1.2732294271       13.0989364482  CLST         655          1.0000000000
      1966       656  TIP3  OH2         -14.0977373623       -4.3028783384      -10.7162277108  CLST         656          1.0000000000
      1967       656  TIP3  H1          -14.6083239995       -3.9768806317      -11.2747858088  CLST         656          1.0000000000
      1968       656  TIP3  H2          -14.1299591920       -4.7080325350      -11.8037026513  CLST         656          1.0000000000
      1969       657  TIP3  OH2           4.6709002120       -1.3071020748        5.1101491273  CLST         657          1.0000000000
      1970       657  TIP3  H1            5.0591126241       -0.4522699265        5.4530215227  CLST         657          1.0000000000
      1971       657  TIP3  H2            4.2081563418       -1.2205625209        5.9690324609  CLST         657          1.0000000000
      1972       658  TIP3  OH2         -14.0392068161       -7.2121425509       -4.7332528733  CLST         658          1.0000000000
      1973       658  TIP3  H1          -13.6306253825       -6.4400617260       -5.0933921184  CLST         658          1.0000000000
      1974       658  TIP3  H2          -14.7537873923       -7.0342819438       -5.3364104162  CLST         658          1.0000000000
      1975       659  TIP3  OH2           9.4162609151      -13.4417384873        9.8753369218  CLST         659          1.0000000000
      1976       659  TIP3  H1            9.1031330280      -12.8872793875        9.1686306650  CLST         659          1.0000000000
      1977       659  TIP3  H2            8.5203204822      -13.8613090566        9.9344100672  CLST         659          1.0000000000
      1978       660  TIP3  OH2         -14.5084286544       -9.0154715737        6.6944355863  CLST         660          1.0000000000
      1979       660  TIP3  H1          -14.8528611335       -9.9124400970        7.0735287058  CLST         660          1.0000000000
      1980       660  TIP3  H2          -13.9758728085       -9.0657519314        7.5152608860  CLST         660          1.0000000000
      1981       661  TIP3  OH2           2.8332394359        1.0203044465       -4.4501331653  CLST         661          1.0000000000
      1982       661  TIP3  H1            2.5041976913        1.7498841458       -4.7914713670  CLST         661          1.0000000000
      1983       661  TIP3  H2            2.2847791281        0.2137175180       -4.5911220261  CLST         661          1.0000000000
      1984       662  TIP3  OH2          -8.8771329397       -5.0631837622        1.2251280785  CLST         662          1.0000000000
      1985       662  TIP3  H1           -9.4640622126       -5.2918049143        0.4318409808  CLST         662          1.0000000000
      1986       662  TIP3  H2           -9.2145631989       -4.1298314897        1.0641507438  CLST         662          1.0000000000
      1987       663  TIP3  OH2           6.1098512437       -1.8855819599        3.2482830305  CLST         663          1.0000000000
      1988       663  TIP3  H1            6.1459922308       -1.6526280606        4.2033030568  CLST         663          1.0000000000
      1989       663  TIP3  H2            6.2672739919       -2.8333337107        3.4306870361  CLST         663          1.0000000000
      1990       664  TIP3  OH2          10.1709712090      -14.3717020467        2.4139066306  CLST         664          1.0000000000
      1991       664  TIP3  H1            9.9642515583      -13.4618390667        2.7813821632  CLST         664          1.0000000000
      1992       664  TIP3  H2           10.1477900055      -14.5242128544        3.3700892700  CLST         664          1.0000000000
      1993       665  TIP3  OH2           9.7336828713       10.5377194267      -14.5774077105  CLST         665          1.0000000000
      1994       665  TIP3  H1            9.1445399118        9.6466927829      -14.1215766520  CLST         665          1.0000000000
      1995       665  TIP3  H2            8.7712793884       10.4657014591      -14.6469341425  CLST         665          1.0000000000
      1996       666  TIP3  OH2         -11.4824550125       -7.6076549638       -9.2117590463  CLST         666          1.0000000000
      1997       666  TIP3  H1          -11.3545987465       -7.0339526357       -8.4691896041  CLST         666          1.0000000000
      1998       666  TIP3  H2          -12.2358309456       -7.9498569310       -8.6668791996  CLST         666          1.0000000000
      1999       667  TIP3  OH2         -11.1176853672        5.4258696977        7.6621689056  CLST         667          1.0000000000
      2000       667  TIP3  H1          -11.3625900379        4.9182350107        8.6576540485  CLST         667          1.0000000000
      2001       667  TIP3  H2          -10.7686426314        5.7273547324        8.4256960735  CLST         667          1.0000000000
      2002       668  TIP3  OH2         -12.5968651942        0.0075373892        0.1608909715  CLST         668          1.0000000000
      2003       668  TIP3  H1          -13.1533579795        0.3455113937        0.8404865041  CLST         668          1.0000000000
      2004       668  TIP3  H2          -13.3910696269        0.0359424482       -0.4056274454  CLST         668          1.0000000000
      2005       669  TIP3  OH2          -4.0285194670      -11.0952276048        5.4603563542  CLST         669          1.0000000000
      2006       669  TIP3  H1           -4.3992611819      -11.1350452031        4.5586155849  CLST         669          1.0000000000
      2007       669  TIP3  H2           -3.4940582218      -10.4341757061        5.0544009626  CLST         669          1.0000000000
      2008       670  TIP3  OH2          -6.3260465369       -2.3606157801        1.6253757813  CLST         670          1.0000000000
      2009       670  TIP3  H1           -7.0437108763       -1.7465871688        1.6402094627  CLST         670          1.0000000000
      2010       670  TIP3  H2           -6.3273753501       -2.1835621787        0.6868213382  CLST         670          1.0000000000
      2011       671  TIP3  OH2           4.3037703713       -9.4501244583      -11.3878856477  CLST         671          1.0000000000
      2012       671  TIP3  H1            3.9032010436       -9.4298446164      -10.5501134242  CLST         671          1.0000000000
      2013       671  TIP3  H2            5.1063095579       -8.9697801797      -11.4809285158  CLST         671          1.0000000000
      2014       672  TIP3  OH2          11.7948807362      -12.6720169296        9.1492104792  CLST         672          1.0000000000
      2015       672  TIP3  H1           11.1521562640      -13.1318462102        9.6722137897  CLST         672          1.0000000000
      2016       672  TIP3  H2           12.3965881115      -13.0216762166        9.9807478806  CLST         672          1.0000000000
      2017       673  TIP3  OH2           6.8476223956       -4.2921495403        6.9479951239  CLST         673          1.0000000000
      2018       673  TIP3  H1            7.1933409029       -3.3743414462        6.8328545434  CLST         673          1.0000000000
      2019       673  TIP3  H2            7.7086720973       -4.4789800267        7.3183099984  CLST         673          1.0000000000
      2020       674  TIP3  OH2          -4.0465045028       -0.9146491155        3.0532075856  CLST         674          1.0000000000
      2021       674  TIP3  H1           -3.3997072688       -1.6237974390        3.2021905264  CLST         674          1.0000000000
      2022       674  TIP3  H2           -3.8836700614       -1.2311498907        2.2010995354  CLST         674          1.0000000000
      2023       675  TIP3  OH2          -9.2167713063        2.3546965173       -3.5053559202  CLST         675          1.0000000000
      2024       675  TIP3  H1           -8.5856688251        1.7171340306       -3.1778507839  CLST         675          1.0000000000
      2025       675  TIP3  H2           -9.7156768353        2.2360732042       -2.7219077229  CLST         675          1.0000000000
      2026       676  TIP3  OH2         -13.1685394020       -0.2974608232      -13.5575683988  CLST         676          1.0000000000
      2027       676  TIP3  H1          -13.6590646941       -1.1054546933      -13.4813076889  CLST         676          1.0000000000
      2028       676  TIP3  H2          -12.8250845136       -0.2280995512      -12.7208412639  CLST         676          1.0000000000
      2029       677  TIP3  OH2           1.6537596435      -11.8778795557        2.3667446551  CLST         677          1.0000000000
      2030       677  TIP3  H1            2.0492045465      -11.5033853902        1.5198196340  CLST         677          1.0000000000
      2031       677  TIP3  H2            2.1388497267      -12.6453885193        2.3550027060  CLST         677          1.0000000000
      2032       678  TIP3  OH2          11.3172917477       -7.2505774070       -8.3366561312  CLST         678          1.0000000000
      2033       678  TIP3  H1           12.3273931723       -7.2593572960       -8.8520764655  CLST         678          1.0000000000
      2034       678  TIP3  H2           11.8370494943       -6.4801333487       -8.6242753041  CLST         678          1.0000000000
      2035       679  TIP3  OH2           7.4364301340      -10.2283313924      -14.0059543832  CLST         679          1.0000000000
      2036       679  TIP3  H1            6.8523019218       -9.4981716927      -14.2300589777  CLST         679          1.0000000000
      2037       679  TIP3  H2            6.5673238831      -10.7191253671      -13.9720430835  CLST         679          1.0000000000
      2038       680  TIP3  OH2           9.6388763226       -8.0623543337       -1.8025868971  CLST         680          1.0000000000
      2039       680  TIP3  H1            9.8350253327       -9.0285984857       -1.9036289588  CLST         680          1.0000000000
      2040       680  TIP3  H2            9.0335024018       -8.2694932436       -2.5565578722  CLST         680          1.0000000000
      2041       681  TIP3  OH2           7.3111272919        9.3122834922       11.2811014023  CLST         681          1.0000000000
      2042       681  TIP3  H1            7.4848576677        8.3062163479       11.1659338581  CLST         681          1.0000000000
      2043       681  TIP3  H2            8.2305231425        9.3555137490       10.8948915439  CLST         681          1.0000000000
      2044       682  TIP3  OH2           7.8259891958       14.3054643069        1.8281780547  CLST         682          1.0000000000
      2045       682  TIP3  H1            7.0448733565       13.8502068034        1.5002399313  CLST         682          1.0000000000
      2046       682  TIP3  H2            7.3104811424       14.7392210624        2.4530977574  CLST         682          1.0000000000
      2047       683  TIP3  OH2           3.2701091390       11.8673813389      -14.9097018341  CLST         683          1.0000000000
      2048       683  TIP3  H1            2.9962606860       11.7726188829      -13.9806016773  CLST         683          1.0000000000
      2049       683  TIP3  H2            3.7037456815       11.0247961979      -14.7923284965  CLST         683          1.0000000000
      2050       684  TIP3  OH2          12.5671263824        2.8371216955      -12.4518615860  CLST         684          1.0000000000
      2051       684  TIP3  H1           11.7531421189        2.6355196003      -11.9486278560  CLST         684          1.0000000000
      2052       684  TIP3  H2           13.0182632286        2.8538847939      -11.5086573603  CLST         684          1.0000000000
      2053       685  TIP3  OH2           3.8791000384       13.3603706114        2.2841628590  CLST         685          1.0000000000
      2054       685  TIP3  H1            3.6803106392       12.3954145877        2.2903878229  CLST         685          1.0000000000
      2055       685  TIP3  H2            3.4120562485       13.3134166614        1.4253981198  CLST         685          1.0000000000
      2056       686  TIP3  OH2          -1.9291632094      -12.1450530238       -5.6571104146  CLST         686          1.0000000000
      2057       686  TIP3  H1           -2.1977200744      -12.2297925336       -4.7711290494  CLST         686          1.0000000000
      2058       686  TIP3  H2           -2.6673939847      -12.8112823435       -5.8408629192  CLST         686          1.0000000000
      2059       687  TIP3  OH2           2.3616735993       10.7727584236       -5.6277332052  CLST         687          1.0000000000
      2060       687  TIP3  H1            1.8616041911       11.0597796658       -4.9072131099  CLST         687          1.0000000000
      2061       687  TIP3  H2            3.0765447418       11.3049277224       -5.2613211812  CLST         687          1.0000000000
      2062       688  TIP3  OH2          -4.5151694102       -0.9569413833      -10.2502484652  CLST         688          1.0000000000
      2063       688  TIP3  H1           -4.2725467649       -0.3049178076       -9.5318843655  CLST         688          1.0000000000
      2064       688  TIP3  H2           -3.5515610255       -0.7766196305      -10.4123463628  CLST         688          1.0000000000
      2065       689  TIP3  OH2         -11.4732606303       -2.7377279209       -7.5985646500  CLST         689          1.0000000000
      2066       689  TIP3  H1          -12.1079004798       -2.4782181698       -6.8808473521  CLST         689          1.0000000000
      2067       689  TIP3  H2          -12.1254550130       -2.3162280449       -8.2135189837  CLST         689          1.0000000000
      2068       690  TIP3  OH2           9.1050855613      -12.4298187315        4.2040718731  CLST         690          1.0000000000
      2069       690  TIP3  H1            9.6673428174      -12.3525502063        5.0461931470  CLST         690          1.0000000000
      2070       690  TIP3  H2            9.6285746643      -11.6309082348        3.9754852931  CLST         690          1.0000000000
      2071       691  TIP3  OH2          -0.6169420162       10.1456723899       13.4575211834  CLST         691          1.0000000000
      2072       691  TIP3  H1           -0.6123066747       11.0998766594       13.3503470661  CLST         691          1.0000000000
      2073       691  TIP3  H2           -0.0996810793       10.2265571415       14.2839409182  CLST         691          1.0000000000
      2074       692  TIP3  OH2           1.3355687164       -6.7314175309        8.5077510048  CLST         692          1.0000000000
      2075       692  TIP3  H1            0.3671275209       -6.9774630574        8.6777797472  CLST         692          1.0000000000
      2076       692  TIP3  H2            0.9807218711       -5.8332697907        8.7036244177  CLST         692          1.0000000000
      2077       693  TIP3  OH2          -9.3933023103       -4.2025303811       -3.0316972344  CLST         693          1.0000000000
      2078       693  TIP3  H1           -8.5555710585       -4.3417936322       -2.4588783719  CLST         693          1.0000000000
      2079       693  TIP3  H2           -9.0185565902       -3.5468936436       -3.6201036666  CLST         693          1.0000000000
      2080       694  TIP3  OH2          -1.7516784559       11.5504735990        5.8645982864  CLST         694          1.0000000000
      2081       694  TIP3  H1           -2.4233248682       12.2582868491        5.6454018767  CLST         694          1.0000000000
      2082       694  TIP3  H2           -1.1989324718       12.3668978909        5.9255629739  CLST         694          1.0000000000
      2083       695  TIP3  OH2           1.5390100851       10.5335105085        8.0607796781  CLST         695          1.0000000000
      2084       695  TIP3  H1            0.8898161566        9.9268444449        7.3703023467  CLST         695          1.0000000000
      2085       695  TIP3  H2            0.7961941337        9.6187670319        8.2700584985  CLST         695          1.0000000000
      2086       696  TIP3  OH2          -4.1403085420        3.1940674829       -6.1837437136  CLST         696          1.0000000000
      2087       696  TIP3  H1           -3.4372374269        3.8477910976       -6.3530987168  CLST         696          1.0000000000
      2088       696  TIP3  H2           -4.3323940197        3.6659360730       -5.3885970121  CLST         696          1.0000000000
      2089       697  TIP3  OH2           2.7674900036        5.6291793731       11.7511188122  CLST         697          1.0000000000
      2090       697  TIP3  H1            2.2280290762        5.6064071280       10.9498763100  CLST         697          1.0000000000
      2091       697  TIP3  H2            3.5937505409        5.3832885675       11.4023490537  CLST         697          1.0000000000
      2092       698  TIP3  OH2          -3.5778981663        5.3028559674       -1.1810256079  CLST         698          1.0000000000
      2093       698  TIP3  H1           -3.9418173284        4.2135416349       -1.4746111965  CLST         698          1.0000000000
      2094       698  TIP3  H2           -4.4222999789        5.0611800793       -1.3898567200  CLST         698          1.0000000000
      2095       699  TIP3  OH2          -1.2819415133       -4.8380353511        3.6418186735  CLST         699          1.0000000000
      2096       699  TIP3  H1           -2.1267575928       -4.4279416262        3.6574777153  CLST         699          1.0000000000
      2097       699  TIP3  H2           -1.0328124680       -4.7495276450        2.7098209394  CLST         699          1.0000000000
      2098       700  TIP3  OH2          -5.0466729558       -8.1758713604        8.8789905543  CLST         700          1.0000000000
      2099       700  TIP3  H1           -5.2797548400       -7.6284622856        8.1258350787  CLST         700          1.0000000000
      2100       700  TIP3  H2           -4.5076255373       -8.7764804408        8.4325670325  CLST         700          1.0000000000
      2101       701  TIP3  OH2         -13.9983686646       10.4434129273        0.2199246308  CLST         701          1.0000000000
      2102       701  TIP3  H1          -13.6526980530        9.6189691862       -0.1978580340  CLST         701          1.0000000000
      2103       701  TIP3  H2          -14.7327659235       10.4372197249       -0.3942613667  CLST         701          1.0000000000
      2104       702  TIP3  OH2          -5.5823792680       -9.5412274368      -12.4730476431  CLST         702          1.0000000000
      2105       702  TIP3  H1           -5.5159211115       -9.7763585829      -11.5064244713  CLST         702          1.0000000000
      2106       702  TIP3  H2           -6.5324214905       -9.5705205333      -12.4529899855  CLST         702          1.0000000000
      2107       703  TIP3  OH2           3.6964682936        6.4442732146       -4.2561212207  CLST         703          1.0000000000
      2108       703  TIP3  H1            3.0111045625        6.7397109672       -3.7481159261  CLST         703          1.0000000000
      2109       703  TIP3  H2            3.3952887426        7.5557745675       -4.3624671384  CLST         703          1.0000000000
      2110       704  TIP3  OH2         -10.0825965357        5.0088579424       11.5337676174  CLST         704          1.0000000000
      2111       704  TIP3  H1          -10.1684372775        6.1477883292       11.8995205683  CLST         704          1.0000000000
      2112       704  TIP3  H2           -9.5505948587        5.7261599605       11.1119669077  CLST         704          1.0000000000
      2113       705  TIP3  OH2          -0.9615005046       -8.8129239805       -6.9220829545  CLST         705          1.0000000000
      2114       705  TIP3  H1           -1.1102747287       -9.7044013440       -7.3366003633  CLST         705          1.0000000000
      2115       705  TIP3  H2           -0.2335157462       -8.7766651292       -7.6069321500  CLST         705          1.0000000000
      2116       706  TIP3  OH2          -2.0498356262       -1.4392604671        4.2224508980  CLST         706          1.0000000000
      2117       706  TIP3  H1           -1.9787867806       -0.5488464645        4.5037102606  CLST         706          1.0000000000
      2118       706  TIP3  H2           -1.2218041254       -1.6612213090        4.6086250750  CLST         706          1.0000000000
      2119       707  TIP3  OH2           8.7764710384       11.0405867578        7.1379531408  CLST         707          1.0000000000
      2120       707  TIP3  H1            8.3867458870       11.5409447033        6.4772967799  CLST         707          1.0000000000
      2121       707  TIP3  H2            7.9659156531       10.4963034729        6.9868154244  CLST         707          1.0000000000
      2122       708  TIP3  OH2          -1.0676048339       -7.6273312854      -12.4044092987  CLST         708          1.0000000000
      2123       708  TIP3  H1           -1.8301804274       -8.0063118096      -12.9195772900  CLST         708          1.0000000000
      2124       708  TIP3  H2           -0.9771443711       -7.1643626311      -13.2463593238  CLST         708          1.0000000000
      2125       709  TIP3  OH2          -6.4714918395       14.0308283648        0.5749639240  CLST         709          1.0000000000
      2126       709  TIP3  H1           -5.5219533010       14.0431808286        0.9583860322  CLST         709          1.0000000000
      2127       709  TIP3  H2           -6.7406245773       14.3904350094        1.3732666723  CLST         709          1.0000000000
      2128       710  TIP3  OH2          -0.8926546204       14.3860791589      -10.9008953071  CLST         710          1.0000000000
      2129       710  TIP3  H1           -0.4034193000       13.9345198174      -11.5381273478  CLST         710          1.0000000000
      2130       710  TIP3  H2           -1.6486735790       13.7625795367      -11.1845128738  CLST         710          1.0000000000
      2131       711  TIP3  OH2          11.6677796725      -10.9383640041      -11.0964900482  CLST         711          1.0000000000
      2132       711  TIP3  H1           11.7163583017      -11.7978231756      -11.5329145321  CLST         711          1.0000000000
      2133       711  TIP3  H2           12.1767490832      -10.2312492146      -11.4594762082  CLST         711          1.0000000000
      2134       712  TIP3  OH2          -3.6398108216      -10.8567490040       11.2566423445  CLST         712          1.0000000000
      2135       712  TIP3  H1           -4.0619310256      -10.0350729050       10.9675748863  CLST         712          1.0000000000
      2136       712  TIP3  H2           -2.8188622045      -10.4934013777       10.9254665408  CLST         712          1.0000000000
      2137       713  TIP3  OH2           6.8807078023        0.2123349307        6.3532957586  CLST         713          1.0000000000
      2138       713  TIP3  H1            7.4779668719        0.3288735553        7.1298231652  CLST         713          1.0000000000
      2139       713  TIP3  H2            7.7003827534       -0.2897037761        6.0493722442  CLST         713          1.0000000000
      2140       714  TIP3  OH2           5.0085893526       12.1746976633        4.4230350391  CLST         714          1.0000000000
      2141       714  TIP3  H1            4.9340060282       12.6808880734        3.6294982464  CLST         714          1.0000000000
      2142       714  TIP3  H2            4.2056173860       12.6309607981        4.6605287182  CLST         714          1.0000000000
      2143       715  TIP3  OH2          -9.1966804087       -9.5026789696        1.8372710433  CLST         715          1.0000000000
      2144       715  TIP3  H1           -9.7359797681       -8.7922717591        2.1452560087  CLST         715          1.0000000000
      2145       715  TIP3  H2           -9.7763737987      -10.0692045160        2.3224478640  CLST         715          1.0000000000
      2146       716  TIP3  OH2         -13.9403338314      -13.5267466301        0.1616900452  CLST         716          1.0000000000
      2147       716  TIP3  H1          -13.4731336790      -13.8410479040       -0.6238901162  CLST         716          1.0000000000
      2148       716  TIP3  H2          -14.2074517688      -12.8961612962       -0.5744296563  CLST         716          1.0000000000
      2149       717  TIP3  OH2          -6.4491155929      -12.0344479088        2.3007878226  CLST         717          1.0000000000
      2150       717  TIP3  H1           -6.4781236284      -11.3069746935        1.6744481535  CLST         717          1.0000000000
      2151       717  TIP3  H2           -7.2877550912      -12.2960917030        1.9965013591  CLST         717          1.0000000000
      2152       718  TIP3  OH2         -10.6426066370        7.3122576868       13.0394831699  CLST         718          1.0000000000
      2153       718  TIP3  H1          -11.2533886302        8.0293441292       13.4069397672  CLST         718          1.0000000000
      2154       718  TIP3  H2           -9.9030916068        7.9692214918       13.0165856447  CLST         718          1.0000000000
      2155       719  TIP3  OH2          10.2437570091       -7.4889128886        2.8164202718  CLST         719          1.0000000000
      2156       719  TIP3  H1           11.2153268092       -7.3369273089        2.7359522119  CLST         719          1.0000000000
      2157       719  TIP3  H2           10.1434143185       -6.9184226862        2.0044378992  CLST         719          1.0000000000
      2158       720  TIP3  OH2          -4.9298271549       13.0368094193       -8.8896515890  CLST         720          1.0000000000
      2159       720  TIP3  H1           -3.9812860491       13.1312769302       -8.7028011705  CLST         720          1.0000000000
      2160       720  TIP3  H2           -5.0077810274       13.3581845054       -7.9629126724  CLST         720          1.0000000000
      2161       721  TIP3  OH2           4.0944372448       -5.9166357806      -10.0131942411  CLST         721          1.0000000000
      2162       721  TIP3  H1            4.3359786654       -5.6729894159       -8.8897051698  CLST         721          1.0000000000
      2163       721  TIP3  H2            5.0199328865       -6.1463515892       -9.6232300091  CLST         721          1.0000000000
      2164       722  TIP3  OH2          10.3950944675       -2.6177002981        1.8218711108  CLST         722          1.0000000000
      2165       722  TIP3  H1           10.1162711628       -3.3439506059        1.2281912923  CLST         722          1.0000000000
      2166       722  TIP3  H2           11.2153050464       -2.4621092824        1.2704926432  CLST         722          1.0000000000
      2167       723  TIP3  OH2           0.4640630711       13.1652522757        6.0083853988  CLST         723          1.0000000000
      2168       723  TIP3  H1            1.3680847456       13.7978807944        5.8717946020  CLST         723          1.0000000000
      2169       723  TIP3  H2            1.5802987724       12.8073463500        5.8859051907  CLST         723          1.0000000000
      2170       724  TIP3  OH2           8.3577885139       -8.2549705514       -4.2831008484  CLST         724          1.0000000000
      2171       724  TIP3  H1            8.3101305653       -9.0488463106       -4.9017840683  CLST         724          1.0000000000
      2172       724  TIP3  H2            8.0953709262       -7.5288124910       -4.8680252429  CLST         724          1.0000000000
      2173       725  TIP3  OH2          -0.8809426341       -0.4271340384        2.0559418602  CLST         725          1.0000000000
      2174       725  TIP3  H1           -1.5757920550       -1.0650581059        2.4309670412  CLST         725          1.0000000000
      2175       725  TIP3  H2           -1.5889965103       -0.0225144875        1.6739085990  CLST         725          1.0000000000
      2176       726  TIP3  OH2         -14.1875144369       10.7073306282        6.0713310155  CLST         726          1.0000000000
      2177       726  TIP3  H1          -14.8981637351       10.9633090676        5.5116023649  CLST         726          1.0000000000
      2178       726  TIP3  H2          -13.7438827506       11.6030272116        5.9625325135  CLST         726          1.0000000000
      2179       727  TIP3  OH2          -4.3201435376      -13.6302667967       -0.4293604496  CLST         727          1.0000000000
      2180       727  TIP3  H1           -3.6273757162      -13.9304251776        0.1557901790  CLST         727          1.0000000000
      2181       727  TIP3  H2           -3.4690745833      -12.9881169161       -0.0356804271  CLST         727          1.0000000000
      2182       728  TIP3  OH2          -8.4804133331        3.3464100409       -0.7803011907  CLST         728          1.0000000000
      2183       728  TIP3  H1           -7.8586994419        2.6303969328       -0.4802976154  CLST         728          1.0000000000
      2184       728  TIP3  H2           -9.1466138625        2.5910652066       -0.6641524383  CLST         728          1.0000000000
      2185       729  TIP3  OH2          10.5081530235      -10.3978273895        3.0168038815  CLST         729          1.0000000000
      2186       729  TIP3  H1           10.8493659880       -9.5530067477        2.9203065969  CLST         729          1.0000000000
      2187       729  TIP3  H2           11.3546379576      -10.8781731539        2.8700601200  CLST         729          1.0000000000
      2188       730  TIP3  OH2          -4.2290224866       11.0469448141       -5.0612551539  CLST         730          1.0000000000
      2189       730  TIP3  H1           -4.3014966229       10.3834385302       -5.7403645126  CLST         730          1.0000000000
      2190       730  TIP3  H2           -5.0498802897       11.4359551772       -5.3173412727  CLST         730          1.0000000000
      2191       731  TIP3  OH2          13.1555577364       12.5878050331       -4.1295692122  CLST         731          1.0000000000
      2192       731  TIP3  H1           13.5951067910       12.9395860375       -4.9009476116  CLST         731          1.0000000000
      2193       731  TIP3  H2           12.7221905007       11.8987538584       -4.6706848386  CLST         731          1.0000000000
      2194       732  TIP3  OH2          -2.8962310460       -1.2519709187       -1.9943754546  CLST         732          1.0000000000
      2195       732  TIP3  H1           -3.4899271863       -1.1369697807       -1.1215161777  CLST         732          1.0000000000
      2196       732  TIP3  H2           -3.8800831205       -0.7110061231       -2.1508553125  CLST         732          1.0000000000
      2197       733  TIP3  OH2           5.6275194631        2.1895889928       12.9283185515  CLST         733          1.0000000000
      2198       733  TIP3  H1            5.3803382357        1.6041905721       12.4269686606  CLST         733          1.0000000000
      2199       733  TIP3  H2            4.8262082115        1.7047124938       13.3529485902  CLST         733          1.0000000000
      2200       734  TIP3  OH2           8.4063583142       -2.3681252267        5.8888924424  CLST         734          1.0000000000
      2201       734  TIP3  H1            8.3165790016       -3.1233786127        5.2361395728  CLST         734          1.0000000000
      2202       734  TIP3  H2            9.2869730951       -2.2000360041        5.5365958487  CLST         734          1.0000000000
      2203       735  TIP3  OH2         -10.9266514151      -12.6414102117        1.0146138318  CLST         735          1.0000000000
      2204       735  TIP3  H1          -10.9595023001      -12.0692101600        1.8077676297  CLST         735          1.0000000000
      2205       735  TIP3  H2          -11.8778204119      -12.6747843346        0.8914833241  CLST         735          1.0000000000
      2206       736  TIP3  OH2          13.7955609345        2.5674750283        2.9187472617  CLST         736          1.0000000000
      2207       736  TIP3  H1           13.7367603450        2.3778709855        1.7625475076  CLST         736          1.0000000000
      2208       736  TIP3  H2           13.2498260738        2.0169626024        2.6370213594  CLST         736          1.0000000000
      2209       737  TIP3  OH2          11.7793362502       -2.1003618638        7.8875548886  CLST         737          1.0000000000
      2210       737  TIP3  H1           11.2897358859       -2.2141047796        7.0465301293  CLST         737          1.0000000000
      2211       737  TIP3  H2           11.9384915826       -1.1898515923        7.7503832707  CLST         737          1.0000000000
      2212       738  TIP3  OH2          10.4596119202        1.0393675891       14.2021660320  CLST         738          1.0000000000
      2213       738  TIP3  H1            9.5671252120        0.7976985856       14.2466723326  CLST         738          1.0000000000
      2214       738  TIP3  H2           10.6303141908        0.0925206282       14.3354238883  CLST         738          1.0000000000
      2215       739  TIP3  OH2         -13.1736906028        1.4698891094       10.3687020721  CLST         739          1.0000000000
      2216       739  TIP3  H1          -14.0285411901        1.6618270290       10.7714878273  CLST         739          1.0000000000
      2217       739  TIP3  H2          -13.6772517268        0.8320549159        9.8234916167  CLST         739          1.0000000000
      2218       740  TIP3  OH2           5.9794732856      -14.2517735120       -5.2521705144  CLST         740          1.0000000000
      2219       740  TIP3  H1            5.2865510732      -14.7585890570       -5.7513398668  CLST         740          1.0000000000
      2220       740  TIP3  H2            6.4842119268      -14.9097018341       -5.8017408578  CLST         740          1.0000000000
      2221       741  TIP3  OH2          11.7636720927        5.0295479211        9.4592133037  CLST         741          1.0000000000
      2222       741  TIP3  H1           12.6700739917        4.4008548181        9.1415895465  CLST         741          1.0000000000
      2223       741  TIP3  H2           11.7718551022        4.2903136022        8.9202549215  CLST         741          1.0000000000
      2224       742  TIP3  OH2           8.4021654108       -9.2846474620       -6.4288639064  CLST         742          1.0000000000
      2225       742  TIP3  H1            8.1394815716      -10.5043718074       -6.4980845371  CLST         742          1.0000000000
      2226       742  TIP3  H2            7.8862494159       -9.7222040302       -7.1034786072  CLST         742          1.0000000000
      2227       743  TIP3  OH2          -7.2451418028       -0.2367457570      -10.9264628464  CLST         743          1.0000000000
      2228       743  TIP3  H1           -6.5627118431        0.6684585311      -10.6482218128  CLST         743          1.0000000000
      2229       743  TIP3  H2           -6.3504686895       -0.3841018999      -10.6489140822  CLST         743          1.0000000000
      2230       744  TIP3  OH2          -5.8722729957        3.6402505810        5.1977836546  CLST         744          1.0000000000
      2231       744  TIP3  H1           -5.0740116102        3.1782653674        5.5583287980  CLST         744          1.0000000000
      2232       744  TIP3  H2           -5.5387491773        4.4637273500        5.4886175969  CLST         744          1.0000000000
      2233       745  TIP3  OH2           0.2114905606       -8.3651814121        6.8281686365  CLST         745          1.0000000000
      2234       745  TIP3  H1            0.8563671416       -9.3438700555        6.7294179392  CLST         745          1.0000000000
      2235       745  TIP3  H2            1.1832635135       -8.3518136535        7.4010385806  CLST         745          1.0000000000
      2236       746  TIP3  OH2          -8.0291268861       -4.3578940326       -5.4822503744  CLST         746          1.0000000000
      2237       746  TIP3  H1           -8.3606082752       -5.1612270912       -5.8578018233  CLST         746          1.0000000000
      2238       746  TIP3  H2           -8.3506819045       -3.8045639602       -6.1834427100  CLST         746          1.0000000000
      2239       747  TIP3  OH2          11.3569336009       11.9450955414        1.9505657948  CLST         747          1.0000000000
      2240       747  TIP3  H1           11.0422465890       12.4070341450        2.8023361041  CLST         747          1.0000000000
      2241       747  TIP3  H2           11.6857904434       11.3754001829        2.7212101552  CLST         747          1.0000000000
      2242       748  TIP3  OH2           3.3259420850        5.1867002130        8.4481838243  CLST         748          1.0000000000
      2243       748  TIP3  H1            3.8410676645        5.0845690405        9.2321861434  CLST         748          1.0000000000
      2244       748  TIP3  H2            3.5716958013        6.1272737450        8.2337284234  CLST         748          1.0000000000
      2245       749  TIP3  OH2          10.8838229548        9.4622573136        6.4899047198  CLST         749          1.0000000000
      2246       749  TIP3  H1           10.7007364906        8.8776637714        7.2354025040  CLST         749          1.0000000000
      2247       749  TIP3  H2           10.2863871532        9.9729472011        7.0862119710  CLST         749          1.0000000000
      2248       750  TIP3  OH2         -14.0087568769       12.2376310505       -7.7050266063  CLST         750          1.0000000000
      2249       750  TIP3  H1          -14.8995029816       12.1164952347       -7.6566995162  CLST         750          1.0000000000
      2250       750  TIP3  H2          -13.8491495799       11.8896660962       -8.5751574337  CLST         750          1.0000000000
      2251       751  TIP3  OH2           8.5573200664        4.1990079322       -4.1696996257  CLST         751          1.0000000000
      2252       751  TIP3  H1            7.8327774652        3.7314804264       -4.5534288232  CLST         751          1.0000000000
      2253       751  TIP3  H2            8.8866337631        3.4850794634       -3.6836924064  CLST         751          1.0000000000
      2254       752  TIP3  OH2         -12.5070418159       13.3401917277        2.2669376094  CLST         752          1.0000000000
      2255       752  TIP3  H1          -12.7545013388       13.4448299631        1.3702135399  CLST         752          1.0000000000
      2256       752  TIP3  H2          -12.6351508424       12.4117490588        2.0977105020  CLST         752          1.0000000000
      2257       753  TIP3  OH2           8.9868896405        2.4257941793       -6.8065615475  CLST         753          1.0000000000
      2258       753  TIP3  H1            8.6011317551        3.1934370489       -7.3088577839  CLST         753          1.0000000000
      2259       753  TIP3  H2            8.1733660206        2.4069933786       -6.3148841918  CLST         753          1.0000000000
      2260       754  TIP3  OH2          11.5148698439        2.3588255519       -5.9658016543  CLST         754          1.0000000000
      2261       754  TIP3  H1           11.1438423387        2.5582054028       -5.0708213083  CLST         754          1.0000000000
      2262       754  TIP3  H2           10.6129852451        2.5645738874       -6.2233404682  CLST         754          1.0000000000
      2263       755  TIP3  OH2           7.5335802432       -2.0497938247       -0.4146395959  CLST         755          1.0000000000
      2264       755  TIP3  H1            6.6605270835       -2.1826639302       -0.0532696026  CLST         755          1.0000000000
      2265       755  TIP3  H2            7.3398241018       -1.1050967247       -0.2354451328  CLST         755          1.0000000000
      2266       756  TIP3  OH2         -12.6190428610        6.2557778294        5.7550450693  CLST         756          1.0000000000
      2267       756  TIP3  H1          -12.5314216959        5.3683470751        5.9169805832  CLST         756          1.0000000000
      2268       756  TIP3  H2          -12.1855276890        6.4466141645        6.5610633532  CLST         756          1.0000000000
      2269       757  TIP3  OH2          -4.5859078194       -4.7670597911       -2.2065576590  CLST         757          1.0000000000
      2270       757  TIP3  H1           -4.0156791690       -5.1447764809       -2.9434159410  CLST         757          1.0000000000
      2271       757  TIP3  H2           -4.8220569397       -4.0814868552       -2.9008771345  CLST         757          1.0000000000
      2272       758  TIP3  OH2          12.0557200957        4.1089617575       -0.6381728862  CLST         758          1.0000000000
      2273       758  TIP3  H1           12.3150919817        4.5310034434        0.2011978031  CLST         758          1.0000000000
      2274       758  TIP3  H2           12.7735191100        3.3625704338       -0.0903956265  CLST         758          1.0000000000
      2275       759  TIP3  OH2          -7.7045842439       11.9431401121      -11.1280134162  CLST         759          1.0000000000
      2276       759  TIP3  H1           -7.1849116497       12.1393127787      -11.8697796613  CLST         759          1.0000000000
      2277       759  TIP3  H2           -7.1673631691       11.2326698710      -10.7499908716  CLST         759          1.0000000000
      2278       760  TIP3  OH2           7.9036374570       14.1987246378       -6.2823002632  CLST         760          1.0000000000
      2279       760  TIP3  H1            7.9520224859       13.8172393102       -7.1704850384  CLST         760          1.0000000000
      2280       760  TIP3  H2            7.8618139209       13.3733640562       -5.8127135852  CLST         760          1.0000000000
      2281       761  TIP3  OH2          -6.8922055316        8.1549432451      -11.5936649230  CLST         761          1.0000000000
      2282       761  TIP3  H1           -7.7190908723        8.1069047047      -12.0574858218  CLST         761          1.0000000000
      2283       761  TIP3  H2           -7.3540568942        8.0082722623      -10.8087395774  CLST         761          1.0000000000
      2284       762  TIP3  OH2           7.7756977137       -6.0634888808      -13.2430890889  CLST         762          1.0000000000
      2285       762  TIP3  H1            7.2337079205       -6.7019475816      -12.7065563578  CLST         762          1.0000000000
      2286       762  TIP3  H2            7.6306038263       -5.4084282105      -12.5785142263  CLST         762          1.0000000000
      2287       763  TIP3  OH2          -1.2327856963       -6.1728161038        8.9727999053  CLST         763          1.0000000000
      2288       763  TIP3  H1           -1.7551294479       -5.1621358957        9.0670385583  CLST         763          1.0000000000
      2289       763  TIP3  H2           -1.9120306939       -5.8739796399        9.9731068386  CLST         763          1.0000000000
      2290       764  TIP3  OH2           8.5509509177      -11.1003738559        0.7462242947  CLST         764          1.0000000000
      2291       764  TIP3  H1            7.7968690688      -10.5532543226        0.9754262061  CLST         764          1.0000000000
      2292       764  TIP3  H2            9.0542773395      -11.0910077940        1.5182262069  CLST         764          1.0000000000
      2293       765  TIP3  OH2         -14.2606071808      -12.4655984291       13.2152097493  CLST         765          1.0000000000
      2294       765  TIP3  H1          -13.5381467036      -11.9296291793       13.5865279371  CLST         765          1.0000000000
      2295       765  TIP3  H2          -14.8824313052      -12.2906419849       13.8697999073  CLST         765          1.0000000000
      2296       766  TIP3  OH2          11.6617229102       -8.1768706517      -12.0458190087  CLST         766          1.0000000000
      2297       766  TIP3  H1           10.9502517391       -7.6875390656      -12.3690513750  CLST         766          1.0000000000
      2298       766  TIP3  H2           11.1035266375       -8.9445576793      -12.1566342574  CLST         766          1.0000000000
      2299       767  TIP3  OH2           2.2371697701       12.0070175814      -12.4742893153  CLST         767          1.0000000000
      2300       767  TIP3  H1            2.5584047109       11.7184710982      -11.6554717659  CLST         767          1.0000000000
      2301       767  TIP3  H2            2.0152756315       12.9298909703      -12.3147611290  CLST         767          1.0000000000
      2302       768  TIP3  OH2           7.7657006422        7.1327282213        8.3506998085  CLST         768          1.0000000000
      2303       768  TIP3  H1            8.7174732774        7.1546908130        8.6037877289  CLST         768          1.0000000000
      2304       768  TIP3  H2            7.9284962785        6.1968008209        8.6535211440  CLST         768          1.0000000000
      2305       769  TIP3  OH2         -11.8935915839        3.2107333897        0.7920957131  CLST         769          1.0000000000
      2306       769  TIP3  H1          -11.8328040425        2.8026762379        1.7782449412  CLST         769          1.0000000000
      2307       769  TIP3  H2          -12.7201565981        3.3575874827        1.5115141501  CLST         769          1.0000000000
      2308       770  TIP3  OH2          10.3272245342       -4.7486510583       11.4678182816  CLST         770          1.0000000000
      2309       770  TIP3  H1           10.2563089424       -3.9515120507       10.8894006657  CLST         770          1.0000000000
      2310       770  TIP3  H2           10.9774629034       -4.8632205609       10.7632495127  CLST         770          1.0000000000
      2311       771  TIP3  OH2         -10.3855309774        1.0752840164       -5.6437896955  CLST         771          1.0000000000
      2312       771  TIP3  H1           -9.7650972557        0.5298381164       -5.9505066217  CLST         771          1.0000000000
      2313       771  TIP3  H2           -9.8491750259        1.3995161372       -4.9416035572  CLST         771          1.0000000000
      2314       772  TIP3  OH2          13.1337525081      -12.3635628903       -6.4962021800  CLST         772          1.0000000000
      2315       772  TIP3  H1           13.1360679703      -11.5336142986       -6.5440448226  CLST         772          1.0000000000
      2316       772  TIP3  H2           12.4277590688      -12.1248797096       -6.0042078868  CLST         772          1.0000000000
      2317       773  TIP3  OH2          12.3010039745       -4.6592230839        3.5459565746  CLST         773          1.0000000000
      2318       773  TIP3  H1           11.8124197263       -3.9709551990        3.9904990850  CLST         773          1.0000000000
      2319       773  TIP3  H2           12.0973904221       -4.3919879532        2.6309390899  CLST         773          1.0000000000
      2320       774  TIP3  OH2          -8.1553414005       -0.1927557389       -6.0308410178  CLST         774          1.0000000000
      2321       774  TIP3  H1           -6.9852997495       -0.2424517649       -6.1641437569  CLST         774          1.0000000000
      2322       774  TIP3  H2           -7.6390775308        0.5640119914       -5.9857794461  CLST         774          1.0000000000
      2323       775  TIP3  OH2           2.5269662496        1.7647489698        5.4925484664  CLST         775          1.0000000000
      2324       775  TIP3  H1            2.5660293250        1.1846239928        6.3040747671  CLST         775          1.0000000000
      2325       775  TIP3  H2            2.4973712407        2.4335056925        6.1765651836  CLST         775          1.0000000000
      2326       776  TIP3  OH2          -0.0523203066        9.4496724393        5.8895637782  CLST         776          1.0000000000
      2327       776  TIP3  H1           -0.6746926662       10.1905721689        5.6670944058  CLST         776          1.0000000000
      2328       776  TIP3  H2           -0.8426121437        8.8803304039        5.8620031591  CLST         776          1.0000000000
      2329       777  TIP3  OH2         -13.1481174952      -10.2333482698        0.0903155930  CLST         777          1.0000000000
      2330       777  TIP3  H1          -12.7270012020       -9.3783827764        0.1160330372  CLST         777          1.0000000000
      2331       777  TIP3  H2          -13.0388150457      -10.2248641961        1.0303584952  CLST         777          1.0000000000
      2332       778  TIP3  OH2         -11.6932388945        5.5894779274       -0.5186275383  CLST         778          1.0000000000
      2333       778  TIP3  H1          -11.6988844405        4.7759883319        0.0122076660  CLST         778          1.0000000000
      2334       778  TIP3  H2          -11.7770570154        5.0068314828       -1.2792491401  CLST         778          1.0000000000
      2335       779  TIP3  OH2          -6.1303179431        5.3282234918       -1.6502867942  CLST         779          1.0000000000
      2336       779  TIP3  H1           -7.0093955117        5.0680889841       -1.3710706761  CLST         779          1.0000000000
      2337       779  TIP3  H2           -6.4261742088        6.1370066884       -1.1992958919  CLST         779          1.0000000000
      2338       780  TIP3  OH2           2.5185421385       14.0966451918       -8.4911886970  CLST         780          1.0000000000
      2339       780  TIP3  H1            2.0366874783       14.5010908113       -9.0594732353  CLST         780          1.0000000000
      2340       780  TIP3  H2            2.9089657842       14.1537555273       -9.6227033634  CLST         780          1.0000000000
      2341       781  TIP3  OH2           9.2650473986       -8.6899276437       -9.5883519162  CLST         781          1.0000000000
      2342       781  TIP3  H1            9.9700248355       -8.1288516797       -9.2333028276  CLST         781          1.0000000000
      2343       781  TIP3  H2            9.5784899178       -9.4469762306       -9.1859652798  CLST         781          1.0000000000
      2344       782  TIP3  OH2           0.2792691602        2.8507152207        4.4561466566  CLST         782          1.0000000000
      2345       782  TIP3  H1           -0.0181079660        1.8463808753        4.8431915971  CLST         782          1.0000000000
      2346       782  TIP3  H2            0.8367617190        2.2976200226        4.8747060395  CLST         782          1.0000000000
      2347       783  TIP3  OH2          -7.1039125285      -12.3145496598      -13.6737664546  CLST         783          1.0000000000
      2348       783  TIP3  H1           -7.9915732916      -12.1609051301      -13.1872999867  CLST         783          1.0000000000
      2349       783  TIP3  H2           -7.7248937382      -12.2627423833      -14.4519367696  CLST         783          1.0000000000
      2350       784  TIP3  OH2          14.5544720177        5.0567179316       -4.1087381474  CLST         784          1.0000000000
      2351       784  TIP3  H1           14.4243195434        5.4808811843       -4.9608627462  CLST         784          1.0000000000
      2352       784  TIP3  H2           14.1750378290        5.6178070916       -3.4910169413  CLST         784          1.0000000000
      2353       785  TIP3  OH2          10.4482242929        7.9830933650        0.8732564264  CLST         785          1.0000000000
      2354       785  TIP3  H1           10.5000804143        8.6701104252        1.5141364339  CLST         785          1.0000000000
      2355       785  TIP3  H2           10.8491857175        8.4828349042        0.1934326349  CLST         785          1.0000000000
      2356       786  TIP3  OH2          12.4465946969        3.3907505999       12.8087271713  CLST         786          1.0000000000
      2357       786  TIP3  H1           12.8249410640        4.4332270581       12.7385361458  CLST         786          1.0000000000
      2358       786  TIP3  H2           12.2007881087        4.1837262643       13.4581675690  CLST         786          1.0000000000
      2359       787  TIP3  OH2          -7.9246732646        0.0852636087       11.5302087274  CLST         787          1.0000000000
      2360       787  TIP3  H1           -8.6257109901        0.1962901055       10.8738976537  CLST         787          1.0000000000
      2361       787  TIP3  H2           -8.4897898285       -0.6855705669       11.6169699258  CLST         787          1.0000000000
      2362       788  TIP3  OH2           2.5798039884      -13.2712401398       10.5723551782  CLST         788          1.0000000000
      2363       788  TIP3  H1            3.0944266210      -13.1146073082       11.4291146377  CLST         788          1.0000000000
      2364       788  TIP3  H2            2.8591564361      -14.2131839805       10.7642030489  CLST         788          1.0000000000
      2365       789  TIP3  OH2          -6.9224738072        1.0563818872       -3.1692747572  CLST         789          1.0000000000
      2366       789  TIP3  H1           -7.1232796570        0.1873010885       -3.0104671129  CLST         789          1.0000000000
      2367       789  TIP3  H2           -6.0415112707        0.7743679145       -3.3114640992  CLST         789          1.0000000000
      2368       790  TIP3  OH2         -11.1490836432       -9.2750619963        5.5786099728  CLST         790          1.0000000000
      2369       790  TIP3  H1          -11.5777655520       -9.7127175863        6.3805160329  CLST         790          1.0000000000
      2370       790  TIP3  H2          -11.5229640573       -8.3599313893        5.6898256697  CLST         790          1.0000000000
      2371       791  TIP3  OH2          -5.0544221884       -5.7963872511      -10.7281577655  CLST         791          1.0000000000
      2372       791  TIP3  H1           -4.1331551592       -6.0176582330      -10.8871921230  CLST         791          1.0000000000
      2373       791  TIP3  H2           -4.7902131587       -5.0148026365      -11.1559592394  CLST         791          1.0000000000
      2374       792  TIP3  OH2           6.8253107169       -3.8937136751        9.5515259664  CLST         792          1.0000000000
      2375       792  TIP3  H1            7.4555768748       -4.6776483235        9.3547094159  CLST         792          1.0000000000
      2376       792  TIP3  H2            7.6141069012       -3.4126280810        9.4218718637  CLST         792          1.0000000000
      2377       793  TIP3  OH2          -3.2571699872       12.9618560898       -3.7659462284  CLST         793          1.0000000000
      2378       793  TIP3  H1           -3.6481666718       12.8122454930       -2.9016523681  CLST         793          1.0000000000
      2379       793  TIP3  H2           -3.2456956513       12.0895442903       -4.0871268738  CLST         793          1.0000000000
      2380       794  TIP3  OH2          -0.8274649458        2.7638493424       -6.4708318613  CLST         794          1.0000000000
      2381       794  TIP3  H1           -0.9551481363        2.1593260749       -7.2239384234  CLST         794          1.0000000000
      2382       794  TIP3  H2           -1.1871905542        3.3839588768       -7.1617444595  CLST         794          1.0000000000
      2383       795  TIP3  OH2          -2.2208521195       -9.2516270569        1.2777096741  CLST         795          1.0000000000
      2384       795  TIP3  H1           -2.5998857607      -10.0410402234        0.7953566388  CLST         795          1.0000000000
      2385       795  TIP3  H2           -1.9147724055       -9.8590298317        2.0071195909  CLST         795          1.0000000000
      2386       796  TIP3  OH2           2.8765531422        5.0363712479        4.8557518955  CLST         796          1.0000000000
      2387       796  TIP3  H1            3.0213393620        4.4662897046        4.1933458385  CLST         796          1.0000000000
      2388       796  TIP3  H2            3.9055986446        4.9424659981        4.4524676417  CLST         796          1.0000000000
      2389       797  TIP3  OH2         -11.5964785403        5.4810194962       -3.0125826573  CLST         797          1.0000000000
      2390       797  TIP3  H1          -12.0655797405        6.2560103638       -3.4199781790  CLST         797          1.0000000000
      2391       797  TIP3  H2          -11.2106695174        5.3543901238       -3.9163131008  CLST         797          1.0000000000
      2392       798  TIP3  OH2         -10.9318051662        9.9551558632       10.5242330865  CLST         798          1.0000000000
      2393       798  TIP3  H1          -11.4540018342       10.6489220148       10.0917557975  CLST         798          1.0000000000
      2394       798  TIP3  H2          -11.1492446269       10.3969797842       11.3696600408  CLST         798          1.0000000000
      2395       799  TIP3  OH2           4.4720775809       -1.7111835495      -12.6073206702  CLST         799          1.0000000000
      2396       799  TIP3  H1            5.3785747443       -1.2952623702      -12.6967544966  CLST         799          1.0000000000
      2397       799  TIP3  H2            4.3314201705       -1.6247278452      -13.5591541758  CLST         799          1.0000000000
      2398       800  TIP3  OH2         -10.1895601809        7.3144593741       10.5487738382  CLST         800          1.0000000000
      2399       800  TIP3  H1          -10.7169321738        8.1130333090       10.7021345936  CLST         800          1.0000000000
      2400       800  TIP3  H2           -9.6654577419        7.8333790710        9.9902795045  CLST         800          1.0000000000
      2401       801  TIP3  OH2           7.8113827654      -11.5302527095      -10.4333476434  CLST         801          1.0000000000
      2402       801  TIP3  H1            8.2170222516      -12.3925719215      -10.3348622651  CLST         801          1.0000000000
      2403       801  TIP3  H2            8.6949652809      -11.3686303988      -10.8856472597  CLST         801          1.0000000000
      2404       802  TIP3  OH2           5.6797249077       -0.1156542757       11.9884411295  CLST         802          1.0000000000
      2405       802  TIP3  H1            5.2310273569        0.1433128953       10.9463260036  CLST         802          1.0000000000
      2406       802  TIP3  H2            5.9567580193       -0.5632113417       11.2194277573  CLST         802          1.0000000000
      2407       803  TIP3  OH2           6.6080510938       -9.5521628530        0.1100310337  CLST         803          1.0000000000
      2408       803  TIP3  H1            6.1242214773      -10.3897739010       -0.0614082411  CLST         803          1.0000000000
      2409       803  TIP3  H2            5.9859265317       -9.3812660898        0.8417619463  CLST         803          1.0000000000
      2410       804  TIP3  OH2           5.5147591180        6.5014388919        1.9189921301  CLST         804          1.0000000000
      2411       804  TIP3  H1            4.7745700429        5.6794995194        1.6223871955  CLST         804          1.0000000000
      2412       804  TIP3  H2            6.0032553672        5.7240560710        1.8046122350  CLST         804          1.0000000000
      2413       805  TIP3  OH2           7.5743801999       -4.6771238507       14.0848279223  CLST         805          1.0000000000
      2414       805  TIP3  H1            8.4676193951       -4.7577515486       13.8773813314  CLST         805          1.0000000000
      2415       805  TIP3  H2            7.8571027430       -5.0752974014       14.9092357201  CLST         805          1.0000000000
      2416       806  TIP3  OH2           8.6866552048       10.1684409473       13.6521968906  CLST         806          1.0000000000
      2417       806  TIP3  H1            8.1665560768        9.6040958895       13.1832086130  CLST         806          1.0000000000
      2418       806  TIP3  H2            8.7322170684       11.0911866006       13.2085013507  CLST         806          1.0000000000
      2419       807  TIP3  OH2          -3.7523902104        8.0795405820        1.1791004815  CLST         807          1.0000000000
      2420       807  TIP3  H1           -3.8361194557        9.0968610796        1.2098630794  CLST         807          1.0000000000
      2421       807  TIP3  H2           -3.9574650847        8.2121455376        2.1263227838  CLST         807          1.0000000000
      2422       808  TIP3  OH2          -3.6539981800       13.8532311166        1.2232133687  CLST         808          1.0000000000
      2423       808  TIP3  H1           -3.3368073134       14.2891202318        2.0591174897  CLST         808          1.0000000000
      2424       808  TIP3  H2           -2.6742751546       13.7452195441        1.2123220007  CLST         808          1.0000000000
      2425       809  TIP3  OH2           1.8949096075       12.8423859579        9.5195643965  CLST         809          1.0000000000
      2426       809  TIP3  H1            1.6964385635       11.9353257125        9.1494303465  CLST         809          1.0000000000
      2427       809  TIP3  H2            0.9832477870       12.9821731795        9.3622990261  CLST         809          1.0000000000
      2428       810  TIP3  OH2          -1.9049959970        8.8141019608        8.5168248976  CLST         810          1.0000000000
      2429       810  TIP3  H1           -1.0750076845        8.3266805312        8.2138126714  CLST         810          1.0000000000
      2430       810  TIP3  H2           -1.4022150521        8.5193202436        9.4073282807  CLST         810          1.0000000000
      2431       811  TIP3  OH2          -3.7093912505      -12.3627989478       -9.2598938292  CLST         811          1.0000000000
      2432       811  TIP3  H1           -3.8205233753      -12.8707287499      -10.0137618020  CLST         811          1.0000000000
      2433       811  TIP3  H2           -4.2744036732      -11.5968556921       -9.5146785431  CLST         811          1.0000000000
      2434       812  TIP3  OH2          10.7864223810        4.0681817966      -13.6245334673  CLST         812          1.0000000000
      2435       812  TIP3  H1           11.5948962524        3.6081963508      -13.8429723856  CLST         812          1.0000000000
      2436       812  TIP3  H2           11.1355324882        4.7124549697      -14.2584371397  CLST         812          1.0000000000
      2437       813  TIP3  OH2          -2.2509540002        0.7149804252      -13.9085763904  CLST         813          1.0000000000
      2438       813  TIP3  H1           -2.3579885606        1.4940392886      -14.5832957339  CLST         813          1.0000000000
      2439       813  TIP3  H2           -3.2619313612        0.9205645870      -13.9695802932  CLST         813          1.0000000000
      2440       814  TIP3  OH2          -7.3639031500        7.9630849732       -8.7237086875  CLST         814          1.0000000000
      2441       814  TIP3  H1           -6.7666904772        8.6917022085       -8.7076085542  CLST         814          1.0000000000
      2442       814  TIP3  H2           -6.8153938788        7.2773080086       -8.3938487650  CLST         814          1.0000000000
      2443       815  TIP3  OH2          -5.0380322461        0.9865243807       -8.5097607664  CLST         815          1.0000000000
      2444       815  TIP3  H1           -4.8015622318        1.6897699562       -7.9437809160  CLST         815          1.0000000000
      2445       815  TIP3  H2           -5.6361701132        1.6339839828       -8.8551369411  CLST         815          1.0000000000
      2446       816  TIP3  OH2          -8.3412421531      -13.4900907622        1.3016792192  CLST         816          1.0000000000
      2447       816  TIP3  H1           -8.8743445454      -14.4989826745        1.4879182876  CLST         816          1.0000000000
      2448       816  TIP3  H2           -9.1592849720      -13.5912334143        1.0621801794  CLST         816          1.0000000000
      2449       817  TIP3  OH2           3.5684120443       14.4038955836       10.9615048652  CLST         817          1.0000000000
      2450       817  TIP3  H1            3.0385855788       13.7771197823       10.4762206277  CLST         817          1.0000000000
      2451       817  TIP3  H2            3.2641361129       14.2012365668       11.8417815216  CLST         817          1.0000000000
      2452       818  TIP3  OH2          11.5923964760       -3.4273901346       -5.6945223876  CLST         818          1.0000000000
      2453       818  TIP3  H1           11.5736463294       -2.5330383951       -5.3146251770  CLST         818          1.0000000000
      2454       818  TIP3  H2           10.6474068197       -3.1516484314       -5.8329511859  CLST         818          1.0000000000
      2455       819  TIP3  OH2           0.0701981044        0.3229792468      -10.6989716459  CLST         819          1.0000000000
      2456       819  TIP3  H1            0.7226515963       -0.6231192389      -10.9464170090  CLST         819          1.0000000000
      2457       819  TIP3  H2            1.0274343112        0.3756825282      -10.9872689716  CLST         819          1.0000000000
      2458       820  TIP3  OH2         -11.1199948090       -7.6576541292       14.0922588005  CLST         820          1.0000000000
      2459       820  TIP3  H1          -11.8079569644       -8.2728732872       14.2538747791  CLST         820          1.0000000000
      2460       820  TIP3  H2          -10.6304664808       -8.3902644633       14.5661275648  CLST         820          1.0000000000
      2461       821  TIP3  OH2          11.8593743183       -1.1029222079       14.8050594178  CLST         821          1.0000000000
      2462       821  TIP3  H1           12.5682827843       -0.7733793404       14.0035743173  CLST         821          1.0000000000
      2463       821  TIP3  H2           12.0025053801       -1.8260139749       14.2056733594  CLST         821          1.0000000000
      2464       822  TIP3  OH2          -7.3744830881       14.3816623407        9.4444124753  CLST         822          1.0000000000
      2465       822  TIP3  H1           -7.5604444499       14.4219873268        8.3162672407  CLST         822          1.0000000000
      2466       822  TIP3  H2           -6.8604764021       13.8758519856        9.0020154803  CLST         822          1.0000000000
      2467       823  TIP3  OH2          -9.3872978173       -1.7703099577        7.7279141973  CLST         823          1.0000000000
      2468       823  TIP3  H1           -9.5553258567       -2.6182812088        8.1614163347  CLST         823          1.0000000000
      2469       823  TIP3  H2           -8.7096817115       -1.5576167545        8.3641865942  CLST         823          1.0000000000
      2470       824  TIP3  OH2          11.0087466646        0.5908752348        6.8712439659  CLST         824          1.0000000000
      2471       824  TIP3  H1           10.3229760326        0.7677857203        6.1556876657  CLST         824          1.0000000000
      2472       824  TIP3  H2           11.1258934919        1.5790843196        6.8551510022  CLST         824          1.0000000000
      2473       825  TIP3  OH2          -4.7812690724      -11.6532657585      -14.0072362318  CLST         825          1.0000000000
      2474       825  TIP3  H1           -5.3859511531      -12.2735754731      -13.5706197201  CLST         825          1.0000000000
      2475       825  TIP3  H2           -5.3108514208      -11.0198610533      -13.5026927378  CLST         825          1.0000000000
      2476       826  TIP3  OH2           4.6217539114      -13.9839229458        2.3606938878  CLST         826          1.0000000000
      2477       826  TIP3  H1            4.3202983122      -14.8902359803        2.3361408531  CLST         826          1.0000000000
      2478       826  TIP3  H2            5.5806247960      -14.0965521873        2.3264006457  CLST         826          1.0000000000
      2479       827  TIP3  OH2         -10.1878080508        8.5094473013       -6.8494107326  CLST         827          1.0000000000
      2480       827  TIP3  H1           -9.2900500270        8.3916586810       -6.5414158788  CLST         827          1.0000000000
      2481       827  TIP3  H2           -9.9567413023        7.6607274880       -6.1481817175  CLST         827          1.0000000000
      2482       828  TIP3  OH2          -9.8839762910       -7.6344447101       11.2662401108  CLST         828          1.0000000000
      2483       828  TIP3  H1           -8.9759990837       -7.8805560856       11.3296991708  CLST         828          1.0000000000
      2484       828  TIP3  H2           -9.5264746246       -6.7984334073       11.0537872536  CLST         828          1.0000000000
      2485       829  TIP3  OH2           3.1363740190       13.2855179904        6.0692154668  CLST         829          1.0000000000
      2486       829  TIP3  H1            3.8815506271       13.3889630679        6.6427087401  CLST         829          1.0000000000
      2487       829  TIP3  H2            3.3812641438       14.2705210456        5.9968820640  CLST         829          1.0000000000
      2488       830  TIP3  OH2          14.1472769753        2.6282599780        8.9933165028  CLST         830          1.0000000000
      2489       830  TIP3  H1           14.7201583893        3.0007476923        9.7568064916  CLST         830          1.0000000000
      2490       830  TIP3  H2           14.9097018341        2.9436431674        8.5063838075  CLST         830          1.0000000000
      2491       831  TIP3  OH2           2.8227597245        2.4654303393        8.0102620122  CLST         831          1.0000000000
      2492       831  TIP3  H1            3.4054553149        3.0732520467        8.4301864119  CLST         831          1.0000000000
      2493       831  TIP3  H2            2.5612498394        3.5728339972        8.1028189389  CLST         831          1.0000000000
      2494       832  TIP3  OH2         -12.6724044745       -2.4973392908        1.2049578536  CLST         832          1.0000000000
      2495       832  TIP3  H1          -13.0561668639       -1.6116253573        1.0752772816  CLST         832          1.0000000000
      2496       832  TIP3  H2          -13.0521791789       -2.5167272545        2.1048394978  CLST         832          1.0000000000
      2497       833  TIP3  OH2           1.1239565317      -11.3896532155        5.2666566184  CLST         833          1.0000000000
      2498       833  TIP3  H1            2.2920049367      -11.5474348310        5.2043329575  CLST         833          1.0000000000
      2499       833  TIP3  H2            1.7340705328      -11.5360036879        4.2300710092  CLST         833          1.0000000000
      2500       834  TIP3  OH2           3.5982698598       -3.1741178730        3.9159885063  CLST         834          1.0000000000
      2501       834  TIP3  H1            2.8513979757       -2.7210722266        3.5245378197  CLST         834          1.0000000000
      2502       834  TIP3  H2            4.0540158003       -2.4879209032        4.4666988476  CLST         834          1.0000000000
      2503       835  TIP3  OH2           4.2078720675        2.7561216519        0.2757886237  CLST         835          1.0000000000
      2504       835  TIP3  H1            3.8040337130        3.0296478667       -0.7462827144  CLST         835          1.0000000000
      2505       835  TIP3  H2            4.2220220125        1.9369377815       -0.2105684617  CLST         835          1.0000000000
      2506       836  TIP3  OH2           7.4546900901       -5.3922682438       -9.3058009120  CLST         836          1.0000000000
      2507       836  TIP3  H1            6.8528398059       -5.7667632093       -8.6977214428  CLST         836          1.0000000000
      2508       836  TIP3  H2            7.7308437378       -6.2980197213       -9.5126568036  CLST         836          1.0000000000
      2509       837  TIP3  OH2           3.1712994262        6.0599087012       -0.4976055808  CLST         837          1.0000000000
      2510       837  TIP3  H1            2.4818866389        5.9404426491       -1.1694730599  CLST         837          1.0000000000
      2511       837  TIP3  H2            2.3648036309        6.4889121245       -0.0775128202  CLST         837          1.0000000000
      2512       838  TIP3  OH2          -1.7093492753      -13.1923441419      -10.7718423887  CLST         838          1.0000000000
      2513       838  TIP3  H1           -1.3090470692      -14.0911315615      -10.8108656138  CLST         838          1.0000000000
      2514       838  TIP3  H2           -2.4606106185      -13.7686764621      -11.1565752907  CLST         838          1.0000000000
      2515       839  TIP3  OH2           1.2897112460       -7.2145018690       -1.2401237915  CLST         839          1.0000000000
      2516       839  TIP3  H1            1.0256862203       -7.7436819799       -0.4149472184  CLST         839          1.0000000000
      2517       839  TIP3  H2            0.3160760493       -7.0820809148       -1.4491609586  CLST         839          1.0000000000
      2518       840  TIP3  OH2          -7.6825633367       11.5806286279       10.9378191337  CLST         840          1.0000000000
      2519       840  TIP3  H1           -7.7123186348       11.1313681771       11.7727870304  CLST         840          1.0000000000
      2520       840  TIP3  H2           -6.9596477420       11.1054229105       10.5273550049  CLST         840          1.0000000000
      2521       841  TIP3  OH2          -8.6118518173       -7.4679875872       -4.3254067553  CLST         841          1.0000000000
      2522       841  TIP3  H1           -8.3522251124       -7.5023439280       -3.4168245871  CLST         841          1.0000000000
      2523       841  TIP3  H2           -7.7056982467       -7.1540574309       -4.5575729250  CLST         841          1.0000000000
      2524       842  TIP3  OH2          11.3914562303      -14.0390094985        0.3289304848  CLST         842          1.0000000000
      2525       842  TIP3  H1           11.3803348389      -14.5087746751        1.1505526138  CLST         842          1.0000000000
      2526       842  TIP3  H2           10.5368414550      -14.4818045753        0.2513403818  CLST         842          1.0000000000
      2527       843  TIP3  OH2           9.5701741782       13.0801263907        3.4653449272  CLST         843          1.0000000000
      2528       843  TIP3  H1            9.0296264906       12.6524769710        4.1043271316  CLST         843          1.0000000000
      2529       843  TIP3  H2            8.9282676959       13.5311818491        3.0453742264  CLST         843          1.0000000000
      2530       844  TIP3  OH2           1.6482662910      -12.6054533079       -1.7930820060  CLST         844          1.0000000000
      2531       844  TIP3  H1            1.5738848774      -13.0279682490       -0.8849215196  CLST         844          1.0000000000
      2532       844  TIP3  H2            0.7320289661      -12.3455149992       -1.5124865213  CLST         844          1.0000000000
      2533       845  TIP3  OH2         -14.4688423909        4.6053134031       10.7053323579  CLST         845          1.0000000000
      2534       845  TIP3  H1          -14.9097018341        4.0832355312       11.4778344452  CLST         845          1.0000000000
      2535       845  TIP3  H2          -13.9528008949        5.0482259771       11.3466124697  CLST         845          1.0000000000
      2536       846  TIP3  OH2         -10.8994629173       -7.4953415721        2.5698280056  CLST         846          1.0000000000
      2537       846  TIP3  H1          -11.6344795418       -8.0891545508        2.7797460611  CLST         846          1.0000000000
      2538       846  TIP3  H2          -11.5777343073       -6.8277034913        2.4270008692  CLST         846          1.0000000000
      2539       847  TIP3  OH2           4.6825923460        9.6916228791        5.3749164788  CLST         847          1.0000000000
      2540       847  TIP3  H1            4.8144606917       10.6236994122        5.1788370908  CLST         847          1.0000000000
      2541       847  TIP3  H2            5.4857342816        9.8119098582        5.8936117188  CLST         847          1.0000000000
      2542       848  TIP3  OH2          -9.2413165531        5.9630111945       -9.8848377988  CLST         848          1.0000000000
      2543       848  TIP3  H1          -10.0419703462        5.4394094635      -10.0568277003  CLST         848          1.0000000000
      2544       848  TIP3  H2          -10.0059604885        6.6118171702       -9.9403825206  CLST         848          1.0000000000
      2545       849  TIP3  OH2          -1.6795169070        1.7837201957        0.2669995497  CLST         849          1.0000000000
      2546       849  TIP3  H1           -0.6194124268        1.4160826749        0.4188649215  CLST         849          1.0000000000
      2547       849  TIP3  H2           -0.9353946729        2.2018924365       -0.0940068255  CLST         849          1.0000000000
      2548       850  TIP3  OH2           5.5403994252       -6.3956033199        5.7266067073  CLST         850          1.0000000000
      2549       850  TIP3  H1            4.7518072226       -6.3064052010        6.3132338636  CLST         850          1.0000000000
      2550       850  TIP3  H2            5.9284917847       -5.7358701790        6.3812676703  CLST         850          1.0000000000
      2551       851  TIP3  OH2           7.8757866907        6.0817971931        5.4011516782  CLST         851          1.0000000000
      2552       851  TIP3  H1            7.9726180802        6.2846071813        6.3625636917  CLST         851          1.0000000000
      2553       851  TIP3  H2            8.4952873642        6.8657179290        5.4568605091  CLST         851          1.0000000000
      2554       852  TIP3  OH2           9.2569552000        4.1017654289        1.6047965817  CLST         852          1.0000000000
      2555       852  TIP3  H1            9.3192514484        4.2190521849        2.5163747982  CLST         852          1.0000000000
      2556       852  TIP3  H2            8.3101238657        4.2910353212        1.7331238933  CLST         852          1.0000000000
      2557       853  TIP3  OH2           9.0964318610       -5.0394709556       -3.3399362193  CLST         853          1.0000000000
      2558       853  TIP3  H1            8.2147291882       -4.6485911142       -3.8656537402  CLST         853          1.0000000000
      2559       853  TIP3  H2            8.0717347514       -4.9776528149       -2.9771361342  CLST         853          1.0000000000
      2560       854  TIP3  OH2         -10.3449356655       -9.1619746932       -5.8557132062  CLST         854          1.0000000000
      2561       854  TIP3  H1           -9.6450192171       -8.5118329974       -5.6725646455  CLST         854          1.0000000000
      2562       854  TIP3  H2          -10.5181366202       -8.9860923194       -4.9229049960  CLST         854          1.0000000000
      2563       855  TIP3  OH2           2.7392702295       -3.4306624074       -6.6402467849  CLST         855          1.0000000000
      2564       855  TIP3  H1            2.2509927286       -2.9809860131       -5.9544838813  CLST         855          1.0000000000
      2565       855  TIP3  H2            3.0821523538       -2.5864842409       -6.9028563734  CLST         855          1.0000000000
      2566       856  TIP3  OH2           2.8516088027      -12.6775715740        0.3457608557  CLST         856          1.0000000000
      2567       856  TIP3  H1            3.6202101313      -12.1491521997        0.1478275755  CLST         856          1.0000000000
      2568       856  TIP3  H2            3.4593071767      -13.4110068118        0.5653004570  CLST         856          1.0000000000
      2569       857  TIP3  OH2          -3.2252318372       -5.6876063116       11.3444253408  CLST         857          1.0000000000
      2570       857  TIP3  H1           -3.6587989668       -6.0016562884       12.1296440525  CLST         857          1.0000000000
      2571       857  TIP3  H2           -3.1431303010       -4.7756148990       11.7206938088  CLST         857          1.0000000000
      2572       858  TIP3  OH2           5.7648777772      -14.0853031993       12.9692158739  CLST         858          1.0000000000
      2573       858  TIP3  H1            5.9428424994      -14.7439858737       13.6275552542  CLST         858          1.0000000000
      2574       858  TIP3  H2            4.9745641858      -13.8737359292       13.4594694004  CLST         858          1.0000000000
      2575       859  TIP3  OH2          -8.6518171541       -1.5570762618      -12.8355276145  CLST         859          1.0000000000
      2576       859  TIP3  H1           -7.8670664627       -2.1553290425      -12.8739557689  CLST         859          1.0000000000
      2577       859  TIP3  H2           -8.1580728915       -1.2619733728      -12.0525078730  CLST         859          1.0000000000
      2578       860  TIP3  OH2          -9.6325829251       -6.3695449179       -1.0383186925  CLST         860          1.0000000000
      2579       860  TIP3  H1           -9.3118714285       -5.5822072582       -1.4701212095  CLST         860          1.0000000000
      2580       860  TIP3  H2           -8.8052455640       -6.8170979586       -1.2934601829  CLST         860          1.0000000000
      2581       861  TIP3  OH2           5.0405804772      -10.3333470831       -4.4131895559  CLST         861          1.0000000000
      2582       861  TIP3  H1            4.6003250938      -10.4747201934       -3.6039720933  CLST         861          1.0000000000
      2583       861  TIP3  H2            4.7845240896      -11.2309276223       -4.5736759285  CLST         861          1.0000000000
      2584       862  TIP3  OH2         -10.9950693082       -2.6969446353      -12.5984291624  CLST         862          1.0000000000
      2585       862  TIP3  H1          -10.1839166330       -2.5528375341      -13.0238596048  CLST         862          1.0000000000
      2586       862  TIP3  H2          -10.5296595630       -2.7683994046      -11.7955622750  CLST         862          1.0000000000
      2587       863  TIP3  OH2          10.5914194788      -10.7236950417       -8.5887295351  CLST         863          1.0000000000
      2588       863  TIP3  H1           11.4084613123      -10.6287546485       -8.0294974567  CLST         863          1.0000000000
      2589       863  TIP3  H2           11.2067059505      -10.9709785191       -9.2881781116  CLST         863          1.0000000000
      2590       864  TIP3  OH2         -13.7025053147        3.2853499419        2.9729198520  CLST         864          1.0000000000
      2591       864  TIP3  H1          -14.5042548036        2.8338103688        3.2420582179  CLST         864          1.0000000000
      2592       864  TIP3  H2          -14.4258193888        3.5780240293        3.9164631970  CLST         864          1.0000000000
      2593       865  TIP3  OH2          12.5347331212        8.8937630126      -11.0950513530  CLST         865          1.0000000000
      2594       865  TIP3  H1           12.6358224476        7.9341936718      -10.9543632786  CLST         865          1.0000000000
      2595       865  TIP3  H2           12.9859580147        8.9425261090      -10.2271339824  CLST         865          1.0000000000
      2596       866  TIP3  OH2           6.6711708125       -9.9708386650       -8.5023431031  CLST         866          1.0000000000
      2597       866  TIP3  H1            6.2463710746      -10.8102703145       -8.2720535028  CLST         866          1.0000000000
      2598       866  TIP3  H2            7.2758370271      -10.4771091913       -9.0580084608  CLST         866          1.0000000000
      2599       867  TIP3  OH2          -8.1937260678       12.0821452862       -3.2549542802  CLST         867          1.0000000000
      2600       867  TIP3  H1           -8.9711370099       12.0160120515       -2.7072663676  CLST         867          1.0000000000
      2601       867  TIP3  H2           -7.7304705188       12.6754767199       -2.5937889582  CLST         867          1.0000000000
      2602       868  TIP3  OH2          -9.9102191017       13.2215831703       10.3151099084  CLST         868          1.0000000000
      2603       868  TIP3  H1           -9.2093816884       12.7950444922       10.2605155396  CLST         868          1.0000000000
      2604       868  TIP3  H2           -8.8629636043       13.6960409744       10.3294175187  CLST         868          1.0000000000
      2605       869  TIP3  OH2           3.2679850849       -1.4712447275        1.2336487198  CLST         869          1.0000000000
      2606       869  TIP3  H1            2.3640230671       -1.7381799832        1.0678806315  CLST         869          1.0000000000
      2607       869  TIP3  H2            3.0301116379       -0.9866546741        1.9969689182  CLST         869          1.0000000000
      2608       870  TIP3  OH2          -6.9153078752       -3.6050839642      -13.1110877500  CLST         870          1.0000000000
      2609       870  TIP3  H1           -6.0059537913       -3.6881658556      -12.7391237520  CLST         870          1.0000000000
      2610       870  TIP3  H2           -6.4049406886       -4.0564517552      -13.8823766191  CLST         870          1.0000000000
      2611       871  TIP3  OH2          -7.0417807658        2.1151785574       -9.8238951526  CLST         871          1.0000000000
      2612       871  TIP3  H1           -7.4224972062        2.3063820194      -10.7232303494  CLST         871          1.0000000000
      2613       871  TIP3  H2           -7.9439823523        2.3090068948       -9.6171441555  CLST         871          1.0000000000
      2614       872  TIP3  OH2         -13.1190342048       11.3878325311      -10.0340404181  CLST         872          1.0000000000
      2615       872  TIP3  H1          -13.5053459426       11.3947961140      -11.1084586706  CLST         872          1.0000000000
      2616       872  TIP3  H2          -13.3379724315       10.5081951784      -10.7629962011  CLST         872          1.0000000000
      2617       873  TIP3  OH2          11.9891266205       -4.2269864658       -9.9139022808  CLST         873          1.0000000000
      2618       873  TIP3  H1           11.2477679790       -3.6882094405      -10.1581549483  CLST         873          1.0000000000
      2619       873  TIP3  H2           12.0921777816       -4.4105184480      -10.8776136803  CLST         873          1.0000000000
      2620       874  TIP3  OH2          12.8398792043        8.5518236005       -8.5255944389  CLST         874          1.0000000000
      2621       874  TIP3  H1           13.0873974563        7.8817296612       -7.8399454729  CLST         874          1.0000000000
      2622       874  TIP3  H2           11.8904371125        8.3303530396       -8.3625108304  CLST         874          1.0000000000
      2623       875  TIP3  OH2           1.4381133555       -1.6022587943      -12.1522817035  CLST         875          1.0000000000
      2624       875  TIP3  H1            2.1655650423       -1.8848197410      -12.6628506293  CLST         875          1.0000000000
      2625       875  TIP3  H2            0.8939344217       -1.7101620144      -12.9156161200  CLST         875          1.0000000000
      2626       876  TIP3  OH2           9.0070735539        7.1893285727      -11.8514847861  CLST         876          1.0000000000
      2627       876  TIP3  H1            8.6292797997        6.9559784386      -12.6887706766  CLST         876          1.0000000000
      2628       876  TIP3  H2            8.1039322734        7.1323478632      -11.5501472637  CLST         876          1.0000000000
      2629       877  TIP3  OH2          -6.9531050034      -13.3375941158       -4.8750118419  CLST         877          1.0000000000
      2630       877  TIP3  H1           -7.5801010111      -12.7429665204       -4.5417089770  CLST         877          1.0000000000
      2631       877  TIP3  H2           -6.1914099532      -12.7558775684       -4.7394593355  CLST         877          1.0000000000
      2632       878  TIP3  OH2           5.8424541092      -11.1163937353        6.9643541793  CLST         878          1.0000000000
      2633       878  TIP3  H1            5.6829656917      -10.9560900718        6.1768840158  CLST         878          1.0000000000
      2634       878  TIP3  H2            5.1085198215      -10.3435392491        6.5825430420  CLST         878          1.0000000000
      2635       879  TIP3  OH2           2.7870233570        5.3238910184       -7.1414758999  CLST         879          1.0000000000
      2636       879  TIP3  H1            3.1438970284        6.2091635330       -7.3668341411  CLST         879          1.0000000000
      2637       879  TIP3  H2            3.7397623438        5.0914166221       -7.1153746422  CLST         879          1.0000000000
      2638       880  TIP3  OH2          -5.3692264095       -1.8404900454       14.9097018341  CLST         880          1.0000000000
      2639       880  TIP3  H1           -6.0933326417       -2.3954734899       14.5355867802  CLST         880          1.0000000000
      2640       880  TIP3  H2           -5.9154909766       -1.2274312694       14.3994998190  CLST         880          1.0000000000
      2641       881  TIP3  OH2          -0.4807418719       13.6887950718        8.5268739275  CLST         881          1.0000000000
      2642       881  TIP3  H1           -0.1345275720       13.3930286065        7.6404203330  CLST         881          1.0000000000
      2643       881  TIP3  H2           -1.2993220473       13.4151176662        8.1322411633  CLST         881          1.0000000000
      2644       882  TIP3  OH2          11.8074422740       -1.7801748275       -1.6810439672  CLST         882          1.0000000000
      2645       882  TIP3  H1           10.9185699063       -1.3620157671       -1.3999648424  CLST         882          1.0000000000
      2646       882  TIP3  H2           11.3640810642       -2.5449400073       -1.8743351541  CLST         882          1.0000000000
      2647       883  TIP3  OH2           1.7392834450       -9.8128858509       -4.4017259786  CLST         883          1.0000000000
      2648       883  TIP3  H1            2.5376047819       -9.5774826203       -3.8551974602  CLST         883          1.0000000000
      2649       883  TIP3  H2            2.1906375711       -9.2831061113       -5.0823621132  CLST         883          1.0000000000
      2650       884  TIP3  OH2         -14.0459996498       -6.0944087397      -13.0039283380  CLST         884          1.0000000000
      2651       884  TIP3  H1          -13.4587678067       -6.8140603616      -13.2037313292  CLST         884          1.0000000000
      2652       884  TIP3  H2          -14.6196094563       -6.8306303421      -12.6767069563  CLST         884          1.0000000000
      2653       885  TIP3  OH2           0.4859484210       14.5971793806       -0.5498681413  CLST         885          1.0000000000
      2654       885  TIP3  H1           -0.3501948949       14.3070533930       -0.1946969015  CLST         885          1.0000000000
      2655       885  TIP3  H2            0.7379591711       13.8714924644        0.0223857992  CLST         885          1.0000000000
      2656       886  TIP3  OH2          11.9418083591       10.2715737234        4.0390624877  CLST         886          1.0000000000
      2657       886  TIP3  H1           12.3273089378        9.5828139346        4.6095323611  CLST         886          1.0000000000
      2658       886  TIP3  H2           11.6588762125       10.3787571226        5.1140738604  CLST         886          1.0000000000
      2659       887  TIP3  OH2          -7.3860982352       -7.8404468004       -1.9582210518  CLST         887          1.0000000000
      2660       887  TIP3  H1           -7.2233165061       -8.7778102037       -2.1768337910  CLST         887          1.0000000000
      2661       887  TIP3  H2           -6.4579589484       -7.8715912051       -1.6387768972  CLST         887          1.0000000000
      2662       888  TIP3  OH2         -12.5940369319       -3.0546108863       10.5910400548  CLST         888          1.0000000000
      2663       888  TIP3  H1          -13.3429761322       -2.8485098775       11.1288641908  CLST         888          1.0000000000
      2664       888  TIP3  H2          -12.2858962615       -2.1701549785       10.7541422117  CLST         888          1.0000000000
      2665       889  TIP3  OH2           4.7762018638      -12.9649124476        8.5219554999  CLST         889          1.0000000000
      2666       889  TIP3  H1            5.3749369742      -12.4924039529        7.9775714979  CLST         889          1.0000000000
      2667       889  TIP3  H2            4.6224854375      -12.1624061372        8.9926850992  CLST         889          1.0000000000
      2668       890  TIP3  OH2         -13.8017760514        6.0889490696       -9.2760898324  CLST         890          1.0000000000
      2669       890  TIP3  H1          -13.6868289226        6.2373904675      -10.2331349911  CLST         890          1.0000000000
      2670       890  TIP3  H2          -14.6092140231        6.5564977819       -9.4364777990  CLST         890          1.0000000000
      2671       891  TIP3  OH2         -12.5707270890       -5.8088600334       10.8689383465  CLST         891          1.0000000000
      2672       891  TIP3  H1          -12.6238288724       -4.8665937801       10.6934542498  CLST         891          1.0000000000
      2673       891  TIP3  H2          -12.4928834596       -5.9308394835        9.9569996978  CLST         891          1.0000000000
      2674       892  TIP3  OH2           3.1213928390       13.6383132226       13.5005815986  CLST         892          1.0000000000
      2675       892  TIP3  H1            3.5076865536       14.0507200291       14.3144304782  CLST         892          1.0000000000
      2676       892  TIP3  H2            2.9809305337       13.0272097627       14.2272054901  CLST         892          1.0000000000
      2677       893  TIP3  OH2           0.0663370734        7.6691792128        3.1591225766  CLST         893          1.0000000000
      2678       893  TIP3  H1           -0.3888210402        7.1110407611        2.5501242365  CLST         893          1.0000000000
      2679       893  TIP3  H2           -0.6884508346        8.2613141514        3.0025138120  CLST         893          1.0000000000
      2680       894  TIP3  OH2           9.3099829815       11.2955602067        0.7532410365  CLST         894          1.0000000000
      2681       894  TIP3  H1            9.8571678479       11.9738584868        1.0860816288  CLST         894          1.0000000000
      2682       894  TIP3  H2            8.6929411743       11.6564007071        0.1524595593  CLST         894          1.0000000000
      2683       895  TIP3  OH2          -9.8764998248       10.4051143040      -10.7096682562  CLST         895          1.0000000000
      2684       895  TIP3  H1          -10.5833757335       11.0186759238      -10.6729462393  CLST         895          1.0000000000
      2685       895  TIP3  H2           -9.3774002180       11.2729439827      -10.6068350487  CLST         895          1.0000000000
      2686       896  TIP3  OH2           8.1350293385       -6.5992846168       -0.1246972615  CLST         896          1.0000000000
      2687       896  TIP3  H1            7.7207536926       -6.7410946531       -0.9925095678  CLST         896          1.0000000000
      2688       896  TIP3  H2            8.8910081636       -6.9991392709       -0.5179544601  CLST         896          1.0000000000
      2689       897  TIP3  OH2           9.4194742210       -2.6526314098       -8.9773136349  CLST         897          1.0000000000
      2690       897  TIP3  H1            9.2453078535       -3.0200912796       -8.0587725634  CLST         897          1.0000000000
      2691       897  TIP3  H2            9.4891836701       -1.7446348112       -8.5288102577  CLST         897          1.0000000000
      2692       898  TIP3  OH2          13.8745691506        5.8174655876      -11.5139089578  CLST         898          1.0000000000
      2693       898  TIP3  H1           14.2387352122        4.9965302619      -11.2148744705  CLST         898          1.0000000000
      2694       898  TIP3  H2           12.9583037392        5.6129503474      -11.1696010167  CLST         898          1.0000000000
      2695       899  TIP3  OH2          14.4183766008       -6.6503735297        1.5375395611  CLST         899          1.0000000000
      2696       899  TIP3  H1           14.4384514374       -7.5954378400        1.3840533796  CLST         899          1.0000000000
      2697       899  TIP3  H2           13.8396406651       -6.6605790496        2.3818762673  CLST         899          1.0000000000
      2698       900  TIP3  OH2          -9.4856610770      -10.3272777486        9.7433083763  CLST         900          1.0000000000
      2699       900  TIP3  H1           -9.2119923013       -9.4074491128        9.0601964028  CLST         900          1.0000000000
      2700       900  TIP3  H2           -8.5473970460      -10.0895491017        9.6816936315  CLST         900          1.0000000000
      2701       901  TIP3  OH2          10.1356633718        8.6453683608       -8.4909690624  CLST         901          1.0000000000
      2702       901  TIP3  H1            9.8186985217        9.5157386424       -8.7299844846  CLST         901          1.0000000000
      2703       901  TIP3  H2            9.4351879051        8.2830534832       -9.0080068423  CLST         901          1.0000000000
      2704       902  TIP3  OH2           3.8036309211        0.5087030157        9.8055905369  CLST         902          1.0000000000
      2705       902  TIP3  H1            3.9447296517       -0.0487937848        9.0355730315  CLST         902          1.0000000000
      2706       902  TIP3  H2            3.2991742762        1.1535221294        9.2824870570  CLST         902          1.0000000000
      2707       903  TIP3  OH2          -0.8510730972        0.7713923968       -8.2737177112  CLST         903          1.0000000000
      2708       903  TIP3  H1           -0.8745991329        0.4317775688       -9.2114889073  CLST         903          1.0000000000
      2709       903  TIP3  H2           -0.2072330001        0.0615823976       -8.1718737466  CLST         903          1.0000000000
