* Geometry rescue: EQUI at step 7000
*
        2709  EXT
         1         1  TIP3  OH2           5.5041493161        0.8000360366       -3.3838540504  CLST           1          1.0000000000
         2         1  TIP3  H1            5.1002232640        0.5900309361       -2.4763116905  CLST           1          1.0000000000
         3         1  TIP3  H2            4.6812458420        0.8310616273       -3.9267179003  CLST           1          1.0000000000
         4         2  TIP3  OH2          14.8934714496       -2.2160682076       -1.4220772582  CLST           2          1.0000000000
         5         2  TIP3  H1           13.9601895688       -2.0304581849       -1.5025321209  CLST           2          1.0000000000
         6         2  TIP3  H2           14.8858871355       -3.1633662429       -1.2212100044  CLST           2          1.0000000000
         7         3  TIP3  OH2          -8.3159365524       -6.4419551583       -7.7446563828  CLST           3          1.0000000000
         8         3  TIP3  H1           -9.2864199089       -6.2578946251       -7.7202790224  CLST           3          1.0000000000
         9         3  TIP3  H2           -8.2084204261       -6.5797722027       -8.7104838335  CLST           3          1.0000000000
        10         4  TIP3  OH2          -9.5885880538       -3.8092432809       13.0824349669  CLST           4          1.0000000000
        11         4  TIP3  H1          -10.3557529337       -4.3359468733       13.3181780707  CLST           4          1.0000000000
        12         4  TIP3  H2           -9.3945866322       -4.2201525195       12.1813056671  CLST           4          1.0000000000
        13         5  TIP3  OH2          -3.3909988928      -10.3586886121       14.2843998443  CLST           5          1.0000000000
        14         5  TIP3  H1           -3.7997195455      -11.0364743747       14.8606486966  CLST           5          1.0000000000
        15         5  TIP3  H2           -3.5362704971      -10.6201960312       13.3604490042  CLST           5          1.0000000000
        16         6  TIP3  OH2          -3.5604591608        9.6241141078       14.0230802501  CLST           6          1.0000000000
        17         6  TIP3  H1           -2.5962131241        9.7560960421       13.9984864907  CLST           6          1.0000000000
        18         6  TIP3  H2           -3.5528992137        9.2299457254       14.8934714496  CLST           6          1.0000000000
        19         7  TIP3  OH2          -5.3584170747       -1.5095664899        8.9738869437  CLST           7          1.0000000000
        20         7  TIP3  H1           -4.9619327466       -1.2940236863        8.0825784279  CLST           7          1.0000000000
        21         7  TIP3  H2           -5.8796019104       -2.2632245936        8.5877776399  CLST           7          1.0000000000
        22         8  TIP3  OH2          -7.2183677287       -5.0908628683       -1.3976347831  CLST           8          1.0000000000
        23         8  TIP3  H1           -7.5059673577       -5.2167326046       -0.4703193661  CLST           8          1.0000000000
        24         8  TIP3  H2           -6.4622525599       -5.6336760027       -1.5619914715  CLST           8          1.0000000000
        25         9  TIP3  OH2         -13.2644072036       -5.4171465700        0.3761793910  CLST           9          1.0000000000
        26         9  TIP3  H1          -14.1979250721       -5.1263615684        0.1824459484  CLST           9          1.0000000000
        27         9  TIP3  H2          -12.8722393995       -4.5295594968        0.2916074462  CLST           9          1.0000000000
        28        10  TIP3  OH2          -4.5300769289        8.0632999684       -8.8580997971  CLST          10          1.0000000000
        29        10  TIP3  H1           -4.6937636756        9.0445028301       -8.9049284853  CLST          10          1.0000000000
        30        10  TIP3  H2           -3.5759390304        7.9010229155       -8.7283128545  CLST          10          1.0000000000
        31        11  TIP3  OH2           5.8404689593       12.6785284339       10.5977629352  CLST          11          1.0000000000
        32        11  TIP3  H1            5.1274467211       13.3373687171       10.9317176041  CLST          11          1.0000000000
        33        11  TIP3  H2            5.3830927372       11.8703821269       10.8643620891  CLST          11          1.0000000000
        34        12  TIP3  OH2         -11.8711929650      -13.5113366433       -3.1199740745  CLST          12          1.0000000000
        35        12  TIP3  H1          -12.5219530724      -12.8672639963       -2.7539914329  CLST          12          1.0000000000
        36        12  TIP3  H2          -12.2844179245      -13.6254175229       -4.0013965155  CLST          12          1.0000000000
        37        13  TIP3  OH2          -0.3433292210      -10.9536852017        3.0005891249  CLST          13          1.0000000000
        38        13  TIP3  H1            0.5592930216      -11.2223694777        2.6975062601  CLST          13          1.0000000000
        39        13  TIP3  H2           -0.0454964867      -10.9880654014        3.9692246423  CLST          13          1.0000000000
        40        14  TIP3  OH2          -1.6487199409        4.8688057813        7.9113249080  CLST          14          1.0000000000
        41        14  TIP3  H1           -1.6085400490        4.7126597341        8.8596129192  CLST          14          1.0000000000
        42        14  TIP3  H2           -0.7316102635        4.7284122445        7.5390948339  CLST          14          1.0000000000
        43        15  TIP3  OH2           1.3718135586       -1.3032079718       -4.6760730065  CLST          15          1.0000000000
        44        15  TIP3  H1            0.4816653998       -0.9560251440       -4.3555222448  CLST          15          1.0000000000
        45        15  TIP3  H2            1.3998181358       -2.0946896889       -4.0610190042  CLST          15          1.0000000000
        46        16  TIP3  OH2          -4.4891341771       -6.2280195367       13.5851715527  CLST          16          1.0000000000
        47        16  TIP3  H1           -3.9190629175       -7.0034381270       13.7579184372  CLST          16          1.0000000000
        48        16  TIP3  H2           -5.0368096924       -6.3052372729       14.3855361347  CLST          16          1.0000000000
        49        17  TIP3  OH2           8.4165211064       -0.6916538511        2.6884554063  CLST          17          1.0000000000
        50        17  TIP3  H1            7.6960388431       -1.3273465291        2.9952964086  CLST          17          1.0000000000
        51        17  TIP3  H2            8.8521168417       -1.4800179984        2.2148264821  CLST          17          1.0000000000
        52        18  TIP3  OH2           2.7050111054       -8.5281007764       -8.8858201125  CLST          18          1.0000000000
        53        18  TIP3  H1            3.0450948191       -7.6183553733       -8.8326408279  CLST          18          1.0000000000
        54        18  TIP3  H2            2.8144511596       -8.9649789065       -8.0452471225  CLST          18          1.0000000000
        55        19  TIP3  OH2           6.4004687859        7.7207126978       14.4150932560  CLST          19          1.0000000000
        56        19  TIP3  H1            7.2103287399        7.2485414916       14.6690164382  CLST          19          1.0000000000
        57        19  TIP3  H2            6.6197630184        8.5658469509       14.8934714496  CLST          19          1.0000000000
        58        20  TIP3  OH2           4.0139464639        9.4453330430        8.7059645103  CLST          20          1.0000000000
        59        20  TIP3  H1            3.2330611037       10.0472888139        8.5390461270  CLST          20          1.0000000000
        60        20  TIP3  H2            3.5935160794        8.6525799775        8.2081224179  CLST          20          1.0000000000
        61        21  TIP3  OH2           0.6380363518       -8.5541287508        0.9787955563  CLST          21          1.0000000000
        62        21  TIP3  H1            0.5861295733       -8.2597845718        1.9311886822  CLST          21          1.0000000000
        63        21  TIP3  H2           -0.3186789914       -8.8130277449        0.9139809388  CLST          21          1.0000000000
        64        22  TIP3  OH2          11.4281974759       -9.5352635193       10.2787011975  CLST          22          1.0000000000
        65        22  TIP3  H1           11.1010355803       -9.3637445788        9.3702841190  CLST          22          1.0000000000
        66        22  TIP3  H2           11.0755949974      -10.4509064110       10.3612088215  CLST          22          1.0000000000
        67        23  TIP3  OH2          12.2715271234      -14.2031623023      -10.5193056571  CLST          23          1.0000000000
        68        23  TIP3  H1           11.6876989357      -14.8934714496      -10.1755131228  CLST          23          1.0000000000
        69        23  TIP3  H2           13.0094280020      -14.4029935964       -9.9405039340  CLST          23          1.0000000000
        70        24  TIP3  OH2          13.0704733502       -7.6780127606       14.1292185240  CLST          24          1.0000000000
        71        24  TIP3  H1           12.3423074157       -7.6178388814       13.4851064667  CLST          24          1.0000000000
        72        24  TIP3  H2           12.6759890166       -8.1400029226       14.8638585410  CLST          24          1.0000000000
        73        25  TIP3  OH2           0.1222697907       -5.7284252968        5.5420219574  CLST          25          1.0000000000
        74        25  TIP3  H1           -0.5468098041       -5.3151410605        4.9440040162  CLST          25          1.0000000000
        75        25  TIP3  H2           -0.2937749305       -6.3981553957        6.0847606814  CLST          25          1.0000000000
        76        26  TIP3  OH2          -5.3939321179       -5.4504869860       -7.9888980132  CLST          26          1.0000000000
        77        26  TIP3  H1           -6.2302372123       -5.9128893578       -8.0133247218  CLST          26          1.0000000000
        78        26  TIP3  H2           -5.0794144874       -5.6206889369       -8.9296978260  CLST          26          1.0000000000
        79        27  TIP3  OH2           4.2096251347       12.5419528394       -1.1206566768  CLST          27          1.0000000000
        80        27  TIP3  H1            5.1139832337       12.4002425727       -0.7217341688  CLST          27          1.0000000000
        81        27  TIP3  H2            4.1534292450       13.5115228455       -1.2380863726  CLST          27          1.0000000000
        82        28  TIP3  OH2          -5.2591156319       -6.4911096628        6.5269478650  CLST          28          1.0000000000
        83        28  TIP3  H1           -4.2533783510       -6.5817686221        6.5400623157  CLST          28          1.0000000000
        84        28  TIP3  H2           -5.3667990824       -6.8498842542        5.5932747776  CLST          28          1.0000000000
        85        29  TIP3  OH2           4.0500430047      -10.3503606279       12.8912089136  CLST          29          1.0000000000
        86        29  TIP3  H1            4.9052572046       -9.9074484051       13.2137635665  CLST          29          1.0000000000
        87        29  TIP3  H2            3.4990892869       -9.5742416361       12.7950635912  CLST          29          1.0000000000
        88        30  TIP3  OH2          -0.8023896032       -3.6444203274       11.9261282197  CLST          30          1.0000000000
        89        30  TIP3  H1           -1.2862892059       -4.1712455994       12.6139580925  CLST          30          1.0000000000
        90        30  TIP3  H2           -0.5203380817       -2.9188588040       12.5801054656  CLST          30          1.0000000000
        91        31  TIP3  OH2          -5.3863067393      -10.1900460929       -9.9046621588  CLST          31          1.0000000000
        92        31  TIP3  H1           -6.3310822436      -10.0524995136       -9.6708112093  CLST          31          1.0000000000
        93        31  TIP3  H2           -4.9891761276       -9.4401455547       -9.4020325125  CLST          31          1.0000000000
        94        32  TIP3  OH2           4.2665329775        6.1269487073       14.8934714496  CLST          32          1.0000000000
        95        32  TIP3  H1            4.9914727020        6.7475803942       14.7727271967  CLST          32          1.0000000000
        96        32  TIP3  H2            3.5429218959        6.4424472285       14.3239125116  CLST          32          1.0000000000
        97        33  TIP3  OH2           1.9669270830       -5.3929112993       12.0333360087  CLST          33          1.0000000000
        98        33  TIP3  H1            2.8179528480       -4.9309392198       11.9313461672  CLST          33          1.0000000000
        99        33  TIP3  H2            1.4258387243       -4.9100818586       11.3597516926  CLST          33          1.0000000000
       100        34  TIP3  OH2         -12.6511457070       -6.5915288725        5.6607461513  CLST          34          1.0000000000
       101        34  TIP3  H1          -12.5342120505       -6.2604445820        4.7121245476  CLST          34          1.0000000000
       102        34  TIP3  H2          -13.6473914719       -6.5858138816        5.6155824810  CLST          34          1.0000000000
       103        35  TIP3  OH2         -12.5982714051        9.2569943450       14.0152735818  CLST          35          1.0000000000
       104        35  TIP3  H1          -13.2061964312        9.8057870217       13.4583039800  CLST          35          1.0000000000
       105        35  TIP3  H2          -12.7993612721        9.6034691898       14.8934714496  CLST          35          1.0000000000
       106        36  TIP3  OH2           6.6116973771       -8.4324601151      -11.3944967580  CLST          36          1.0000000000
       107        36  TIP3  H1            7.1267990564       -8.2716329205      -10.5630092069  CLST          36          1.0000000000
       108        36  TIP3  H2            7.0797718972       -9.3152134206      -11.5815527730  CLST          36          1.0000000000
       109        37  TIP3  OH2          10.6177300246      -11.9880231801        6.7108779634  CLST          37          1.0000000000
       110        37  TIP3  H1            9.7918176655      -11.7030326318        7.1296026640  CLST          37          1.0000000000
       111        37  TIP3  H2           11.0061515475      -12.4180586000        7.5344273132  CLST          37          1.0000000000
       112        38  TIP3  OH2           5.7508374232      -11.9952931877       -0.6947136769  CLST          38          1.0000000000
       113        38  TIP3  H1            6.5761916816      -12.5092263400       -0.8171185217  CLST          38          1.0000000000
       114        38  TIP3  H2            5.2803709452      -12.1917930080       -1.5339992404  CLST          38          1.0000000000
       115        39  TIP3  OH2          13.5173823044        6.4226407345       -6.6776654630  CLST          39          1.0000000000
       116        39  TIP3  H1           13.6244701858        5.5859585249       -7.1893516651  CLST          39          1.0000000000
       117        39  TIP3  H2           12.6423313617        6.2020335296       -6.2445445044  CLST          39          1.0000000000
       118        40  TIP3  OH2          -4.9925228593       14.0556525873       -5.7786378276  CLST          40          1.0000000000
       119        40  TIP3  H1           -5.8109626177       13.6375951392       -5.4399008435  CLST          40          1.0000000000
       120        40  TIP3  H2           -4.3788846599       13.7395444188       -5.0562739021  CLST          40          1.0000000000
       121        41  TIP3  OH2          11.1679189743        5.7842294515      -11.1832333926  CLST          41          1.0000000000
       122        41  TIP3  H1           10.8872274876        5.3220351311      -12.0125138519  CLST          41          1.0000000000
       123        41  TIP3  H2           10.4376425948        6.4868454795      -11.2566613389  CLST          41          1.0000000000
       124        42  TIP3  OH2          -1.2652098759       -7.0096555797       -2.1020340561  CLST          42          1.0000000000
       125        42  TIP3  H1           -1.6042109535       -6.0850245177       -2.1579733391  CLST          42          1.0000000000
       126        42  TIP3  H2           -1.3437056784       -7.1569335738       -3.0700622384  CLST          42          1.0000000000
       127        43  TIP3  OH2          10.1401400003      -11.0843083165       -1.7519670796  CLST          43          1.0000000000
       128        43  TIP3  H1            9.6981141091      -11.1919371306       -0.8691382930  CLST          43          1.0000000000
       129        43  TIP3  H2            9.6863398744      -11.8509972903       -2.1720048575  CLST          43          1.0000000000
       130        44  TIP3  OH2           0.2853765032       -3.1175929699        6.6801854738  CLST          44          1.0000000000
       131        44  TIP3  H1           -0.4572677387       -3.1222389995        7.3240550795  CLST          44          1.0000000000
       132        44  TIP3  H2            0.3053456659       -4.0542286533        6.3770933470  CLST          44          1.0000000000
       133        45  TIP3  OH2           4.6872942080       -6.4696369916        9.0974942074  CLST          45          1.0000000000
       134        45  TIP3  H1            4.7602307975       -5.5432980372        8.8047615148  CLST          45          1.0000000000
       135        45  TIP3  H2            4.9263552097       -6.4199696511       10.0490349594  CLST          45          1.0000000000
       136        46  TIP3  OH2           7.7546700919        4.8342648237       -8.1777680972  CLST          46          1.0000000000
       137        46  TIP3  H1            7.0650777106        5.2144164664       -7.5140305465  CLST          46          1.0000000000
       138        46  TIP3  H2            7.3877972200        5.2607914030       -8.9872073474  CLST          46          1.0000000000
       139        47  TIP3  OH2         -10.8939758038      -11.1066408342        3.1358426625  CLST          47          1.0000000000
       140        47  TIP3  H1          -11.2063778164      -10.4562922664        3.8128116584  CLST          47          1.0000000000
       141        47  TIP3  H2          -10.9393182977      -11.8639123971        3.7842803490  CLST          47          1.0000000000
       142        48  TIP3  OH2         -14.4669002284        9.1554749166        8.6211268672  CLST          48          1.0000000000
       143        48  TIP3  H1          -14.4574337394        9.6901504434        7.7991418256  CLST          48          1.0000000000
       144        48  TIP3  H2          -13.5977524129        9.4582284198        8.9557904137  CLST          48          1.0000000000
       145        49  TIP3  OH2           8.6351548860       -4.4290560154        4.2044314895  CLST          49          1.0000000000
       146        49  TIP3  H1            7.7056632245       -4.5210349954        3.8024129642  CLST          49          1.0000000000
       147        49  TIP3  H2            9.1231160759       -4.2976690624        3.3626652100  CLST          49          1.0000000000
       148        50  TIP3  OH2          11.2354625078        5.6607782848       -5.2508137236  CLST          50          1.0000000000
       149        50  TIP3  H1           11.6545709793        4.9560513425       -4.7001466728  CLST          50          1.0000000000
       150        50  TIP3  H2           10.3062629956        5.3175392136       -5.1064402740  CLST          50          1.0000000000
       151        51  TIP3  OH2          13.0194943681       -1.4204087592      -10.6522540723  CLST          51          1.0000000000
       152        51  TIP3  H1           13.1888007556       -2.1977527291      -11.2660131103  CLST          51          1.0000000000
       153        51  TIP3  H2           12.7487640437       -0.7296118843      -11.3039153458  CLST          51          1.0000000000
       154        52  TIP3  OH2          -1.8099282573       -1.7260474977       10.1979795204  CLST          52          1.0000000000
       155        52  TIP3  H1           -2.5770353552       -1.2478818249       10.6678415114  CLST          52          1.0000000000
       156        52  TIP3  H2           -1.4779741067       -2.3509557473       10.8719985556  CLST          52          1.0000000000
       157        53  TIP3  OH2         -10.9915156543       14.0910290909       -6.7342431230  CLST          53          1.0000000000
       158        53  TIP3  H1          -11.4102440957       14.8934714496       -6.2908750432  CLST          53          1.0000000000
       159        53  TIP3  H2          -10.1042499822       14.5129002320       -6.8316850912  CLST          53          1.0000000000
       160        54  TIP3  OH2         -13.8652170063       -5.4329652182       -8.0582045656  CLST          54          1.0000000000
       161        54  TIP3  H1          -12.9175554291       -5.6102276546       -7.9957933797  CLST          54          1.0000000000
       162        54  TIP3  H2          -13.9058555978       -4.9117900267       -8.8973149255  CLST          54          1.0000000000
       163        55  TIP3  OH2           0.1505145114        9.1502664188      -10.3904103591  CLST          55          1.0000000000
       164        55  TIP3  H1           -0.6904746386        9.4252859885      -10.8508397710  CLST          55          1.0000000000
       165        55  TIP3  H2            0.6176669990        9.9285035428      -10.0821742779  CLST          55          1.0000000000
       166        56  TIP3  OH2          -1.7421157928       -5.1127447440       14.1393769272  CLST          56          1.0000000000
       167        56  TIP3  H1           -2.3678812390       -4.6485290103       14.7490520655  CLST          56          1.0000000000
       168        56  TIP3  H2           -2.0066729467       -6.0526009806       14.0797146714  CLST          56          1.0000000000
       169        57  TIP3  OH2         -10.6360778391       11.5587524075       -1.7841028603  CLST          57          1.0000000000
       170        57  TIP3  H1          -11.0580646861       12.0173228634       -1.0209196079  CLST          57          1.0000000000
       171        57  TIP3  H2          -11.4771184628       11.4993400038       -2.2994090987  CLST          57          1.0000000000
       172        58  TIP3  OH2           9.7918344973        1.3021742220        0.0894036359  CLST          58          1.0000000000
       173        58  TIP3  H1            8.8853434009        0.9594371851        0.2882864359  CLST          58          1.0000000000
       174        58  TIP3  H2            9.6334808003        2.1874913668        0.5209340322  CLST          58          1.0000000000
       175        59  TIP3  OH2         -13.0861173991       13.1602468747        5.2202208514  CLST          59          1.0000000000
       176        59  TIP3  H1          -13.1118423730       13.6332967932        4.3931044804  CLST          59          1.0000000000
       177        59  TIP3  H2          -12.1770570272       12.8207510279        5.2273168146  CLST          59          1.0000000000
       178        60  TIP3  OH2          -3.8344268656        3.4424214033        7.1558862682  CLST          60          1.0000000000
       179        60  TIP3  H1           -3.2223296598        2.6620910290        7.2388262788  CLST          60          1.0000000000
       180        60  TIP3  H2           -3.1705727431        4.0993543861        7.5162506557  CLST          60          1.0000000000
       181        61  TIP3  OH2           0.4628956708       -2.0571919785        0.4898279822  CLST          61          1.0000000000
       182        61  TIP3  H1           -0.1421570182       -1.6468270433        1.1428669295  CLST          61          1.0000000000
       183        61  TIP3  H2           -0.0559415629       -2.8493837414        0.2251889472  CLST          61          1.0000000000
       184        62  TIP3  OH2          -3.8265252162        8.9098891281        4.6246559104  CLST          62          1.0000000000
       185        62  TIP3  H1           -3.3728750333        8.2649507545        5.2193595450  CLST          62          1.0000000000
       186        62  TIP3  H2           -3.0512352251        9.2837175822        4.1469795614  CLST          62          1.0000000000
       187        63  TIP3  OH2          -0.2375850126        7.6647461710       -2.9130397493  CLST          63          1.0000000000
       188        63  TIP3  H1           -0.4998236713        8.2850799760       -3.6274612425  CLST          63          1.0000000000
       189        63  TIP3  H2           -0.8375271599        7.9199487288       -2.1813206935  CLST          63          1.0000000000
       190        64  TIP3  OH2         -13.8358277574        3.5919840349       -3.2528629288  CLST          64          1.0000000000
       191        64  TIP3  H1          -13.0205211937        4.1419259862       -3.2409944382  CLST          64          1.0000000000
       192        64  TIP3  H2          -14.4934585183        4.2752268951       -3.5736252198  CLST          64          1.0000000000
       193        65  TIP3  OH2          -9.3822004546      -12.4362831717      -11.7311831287  CLST          65          1.0000000000
       194        65  TIP3  H1           -9.3744154308      -12.6148250699      -10.7642163415  CLST          65          1.0000000000
       195        65  TIP3  H2          -10.3548222094      -12.2132741868      -11.7614713564  CLST          65          1.0000000000
       196        66  TIP3  OH2          12.9624476035       -8.1353510824        3.6828795574  CLST          66          1.0000000000
       197        66  TIP3  H1           13.1975121985       -8.8138939985        2.9925738911  CLST          66          1.0000000000
       198        66  TIP3  H2           12.7520912260       -8.7338152719        4.4440108278  CLST          66          1.0000000000
       199        67  TIP3  OH2           7.2674018910       -0.4231377264       -6.3642404786  CLST          67          1.0000000000
       200        67  TIP3  H1            7.6950396412       -1.0925452412       -5.7945956304  CLST          67          1.0000000000
       201        67  TIP3  H2            8.0563538935       -0.1468782407       -6.9001727122  CLST          67          1.0000000000
       202        68  TIP3  OH2          -6.9363132868        1.1590686053        0.9698080731  CLST          68          1.0000000000
       203        68  TIP3  H1           -7.5493703113        0.5320592095        1.3860257879  CLST          68          1.0000000000
       204        68  TIP3  H2           -6.9548495417        1.9140666510        1.5638854364  CLST          68          1.0000000000
       205        69  TIP3  OH2         -11.8530170290       -0.5553150391        7.0131005879  CLST          69          1.0000000000
       206        69  TIP3  H1          -10.9641135224       -0.8750609797        7.3763941144  CLST          69          1.0000000000
       207        69  TIP3  H2          -11.7246719562        0.3938552627        7.2817945149  CLST          69          1.0000000000
       208        70  TIP3  OH2          -1.7950259108        7.4817362051       -8.3067424689  CLST          70          1.0000000000
       209        70  TIP3  H1           -0.8123295664        7.3059839102       -8.1886752385  CLST          70          1.0000000000
       210        70  TIP3  H2           -1.7051448947        8.4390758038       -8.0468065686  CLST          70          1.0000000000
       211        71  TIP3  OH2         -13.2998438028       -1.7060375960       -5.6900151130  CLST          71          1.0000000000
       212        71  TIP3  H1          -12.9404274342       -1.5556691109       -4.7806709314  CLST          71          1.0000000000
       213        71  TIP3  H2          -13.3586743198       -0.7696221472       -5.9324374121  CLST          71          1.0000000000
       214        72  TIP3  OH2          10.9034307714       -2.5740158359        4.7278402128  CLST          72          1.0000000000
       215        72  TIP3  H1           10.4298512500       -2.7644014784        3.8701489152  CLST          72          1.0000000000
       216        72  TIP3  H2           11.3829330644       -1.7501722410        4.4234961995  CLST          72          1.0000000000
       217        73  TIP3  OH2          -3.9055552355      -13.4268313253       -6.3899737239  CLST          73          1.0000000000
       218        73  TIP3  H1           -4.1526608519      -13.2238096976       -7.3103955650  CLST          73          1.0000000000
       219        73  TIP3  H2           -4.2287050964      -14.2760729047       -6.1348302433  CLST          73          1.0000000000
       220        74  TIP3  OH2          -4.6249360277       12.1006944799       -1.5528197745  CLST          74          1.0000000000
       221        74  TIP3  H1           -5.0564648836       11.3428755145       -2.0136116518  CLST          74          1.0000000000
       222        74  TIP3  H2           -5.3212754851       12.8022119525       -1.6070484451  CLST          74          1.0000000000
       223        75  TIP3  OH2          -9.5495163608        4.9152585667        5.5535667929  CLST          75          1.0000000000
       224        75  TIP3  H1           -8.7531859895        5.4438936258        5.6255742556  CLST          75          1.0000000000
       225        75  TIP3  H2          -10.0377159098        5.3751809911        6.3274077251  CLST          75          1.0000000000
       226        76  TIP3  OH2           8.4241813632       13.6613210672       -9.1627896780  CLST          76          1.0000000000
       227        76  TIP3  H1            8.6044493342       13.8202852484      -10.1781627635  CLST          76          1.0000000000
       228        76  TIP3  H2            9.4411741844       13.4128099120       -9.1177428840  CLST          76          1.0000000000
       229        77  TIP3  OH2           0.4498217570       -5.1764003875       -5.4694574459  CLST          77          1.0000000000
       230        77  TIP3  H1            0.7620353346       -5.0867762863       -6.3833594688  CLST          77          1.0000000000
       231        77  TIP3  H2           -0.4176907149       -5.6050061907       -5.6970680711  CLST          77          1.0000000000
       232        78  TIP3  OH2          -5.5863844681       -7.9566904836        1.4875368477  CLST          78          1.0000000000
       233        78  TIP3  H1           -5.1309373394       -7.5061246772        0.7316129958  CLST          78          1.0000000000
       234        78  TIP3  H2           -6.1524123586       -8.5982501824        0.9864960893  CLST          78          1.0000000000
       235        79  TIP3  OH2           6.8444811245      -14.1027726469       10.3825731409  CLST          79          1.0000000000
       236        79  TIP3  H1            6.2941763429      -14.2986665655       11.1935057240  CLST          79          1.0000000000
       237        79  TIP3  H2            6.0799188918      -13.8901219165        9.7383447584  CLST          79          1.0000000000
       238        80  TIP3  OH2           6.5407622051       -0.1006200294      -12.9409571351  CLST          80          1.0000000000
       239        80  TIP3  H1            6.4093664049        0.2699244770      -13.8286571560  CLST          80          1.0000000000
       240        80  TIP3  H2            7.4709060054        0.0701575023      -12.7141835333  CLST          80          1.0000000000
       241        81  TIP3  OH2          -7.5475393364        0.9485974826        5.8534399795  CLST          81          1.0000000000
       242        81  TIP3  H1           -8.4842962084        1.2684381742        5.9767706681  CLST          81          1.0000000000
       243        81  TIP3  H2           -7.2040549704        1.8299459416        5.5466499097  CLST          81          1.0000000000
       244        82  TIP3  OH2           2.0785022807       -1.8722420468       10.8105806962  CLST          82          1.0000000000
       245        82  TIP3  H1            2.4777240061       -1.1214240033       10.3136626036  CLST          82          1.0000000000
       246        82  TIP3  H2            2.9137942632       -2.4131823072       10.9070619517  CLST          82          1.0000000000
       247        83  TIP3  OH2          10.3799043673        8.3696093198       -5.0663899320  CLST          83          1.0000000000
       248        83  TIP3  H1           10.6355191893        7.5417883440       -5.5182831737  CLST          83          1.0000000000
       249        83  TIP3  H2           10.5929525525        8.1153898141       -4.1454853984  CLST          83          1.0000000000
       250        84  TIP3  OH2         -13.0148614699        8.0625846180       -1.4619336187  CLST          84          1.0000000000
       251        84  TIP3  H1          -13.7216809686        7.5103087968       -1.0756404270  CLST          84          1.0000000000
       252        84  TIP3  H2          -12.2528768994        7.4682094072       -1.2033950682  CLST          84          1.0000000000
       253        85  TIP3  OH2           2.4016268529       -1.6309323381        7.6597739860  CLST          85          1.0000000000
       254        85  TIP3  H1            1.7337328977       -2.1606553464        7.1166158205  CLST          85          1.0000000000
       255        85  TIP3  H2            2.8666929123       -2.4399359338        8.0443321266  CLST          85          1.0000000000
       256        86  TIP3  OH2           7.9979475507       -9.4469686635        9.8826771361  CLST          86          1.0000000000
       257        86  TIP3  H1            8.1230078687       -8.7109126088       10.5413606068  CLST          86          1.0000000000
       258        86  TIP3  H2            7.1150143216       -9.8316998917       10.0899930648  CLST          86          1.0000000000
       259        87  TIP3  OH2           0.4420552028       -1.4113819507       13.1491602059  CLST          87          1.0000000000
       260        87  TIP3  H1            1.0152013879       -1.2591988978       12.3433678537  CLST          87          1.0000000000
       261        87  TIP3  H2            0.1769124658       -0.5000507746       13.2947636135  CLST          87          1.0000000000
       262        88  TIP3  OH2          14.2939282978      -11.1413710336        8.1686378920  CLST          88          1.0000000000
       263        88  TIP3  H1           13.4793918302      -11.5594033769        8.5889429717  CLST          88          1.0000000000
       264        88  TIP3  H2           14.8469218958      -11.5264224311        8.8628421880  CLST          88          1.0000000000
       265        89  TIP3  OH2           6.8491091300       11.7209355286       -4.4612536649  CLST          89          1.0000000000
       266        89  TIP3  H1            5.9236854750       11.9777303519       -4.2814598592  CLST          89          1.0000000000
       267        89  TIP3  H2            6.8638187323       10.9529585226       -3.8510801386  CLST          89          1.0000000000
       268        90  TIP3  OH2          14.1987949093       -4.7223770337       -0.3929692116  CLST          90          1.0000000000
       269        90  TIP3  H1           13.7317836265       -5.1030148694       -1.1944023007  CLST          90          1.0000000000
       270        90  TIP3  H2           13.9083434205       -5.4143674612        0.2981906185  CLST          90          1.0000000000
       271        91  TIP3  OH2          11.6111418449       10.7590010416       -5.7801254462  CLST          91          1.0000000000
       272        91  TIP3  H1           11.2296520703        9.9094336752       -5.4725659264  CLST          91          1.0000000000
       273        91  TIP3  H2           10.8289808173       11.3046793648       -5.6523544338  CLST          91          1.0000000000
       274        92  TIP3  OH2          -6.1583425454        3.4648552780        8.6662385225  CLST          92          1.0000000000
       275        92  TIP3  H1           -5.4960571545        3.3583252836        7.9395140426  CLST          92          1.0000000000
       276        92  TIP3  H2           -6.4487756599        2.5323141730        8.7954250673  CLST          92          1.0000000000
       277        93  TIP3  OH2           5.0189812969       -6.4953472264       11.9376582787  CLST          93          1.0000000000
       278        93  TIP3  H1            4.9871888409       -5.6467590155       12.4576958491  CLST          93          1.0000000000
       279        93  TIP3  H2            5.8976825527       -6.8459767206       12.1757552057  CLST          93          1.0000000000
       280        94  TIP3  OH2          -5.8154610275       11.8993796553        4.7443297276  CLST          94          1.0000000000
       281        94  TIP3  H1           -6.0027598723       11.7031077972        3.7798171538  CLST          94          1.0000000000
       282        94  TIP3  H2           -5.7049998489       10.9484720854        4.9859609564  CLST          94          1.0000000000
       283        95  TIP3  OH2           6.7222847776       11.4813407413       -0.2832100648  CLST          95          1.0000000000
       284        95  TIP3  H1            7.0044563460       11.0039553073       -1.1248097365  CLST          95          1.0000000000
       285        95  TIP3  H2            6.4229483342       10.6996035154        0.2373948852  CLST          95          1.0000000000
       286        96  TIP3  OH2          14.4610316127       -0.9814838194       11.2293103661  CLST          96          1.0000000000
       287        96  TIP3  H1           14.8934714496       -1.5965309908       11.8882027719  CLST          96          1.0000000000
       288        96  TIP3  H2           13.6124453966       -1.4527580316       11.0008688623  CLST          96          1.0000000000
       289        97  TIP3  OH2          -8.7964444561        9.4110163847       12.9315268544  CLST          97          1.0000000000
       290        97  TIP3  H1           -8.6797959092        8.8839447882       12.0724887245  CLST          97          1.0000000000
       291        97  TIP3  H2           -7.7946211023        9.2652816390       13.0747215061  CLST          97          1.0000000000
       292        98  TIP3  OH2           1.4757893746        4.3619122177       13.9665844819  CLST          98          1.0000000000
       293        98  TIP3  H1            2.0493253029        4.6931463550       13.2300919750  CLST          98          1.0000000000
       294        98  TIP3  H2            2.0784338474        3.6078507828       14.2142206441  CLST          98          1.0000000000
       295        99  TIP3  OH2         -12.4632890139       12.2627924150       -5.2857063419  CLST          99          1.0000000000
       296        99  TIP3  H1          -13.1404121496       12.2415123232       -5.9806495683  CLST          99          1.0000000000
       297        99  TIP3  H2          -11.8230257420       12.8012905183       -5.8094575159  CLST          99          1.0000000000
       298       100  TIP3  OH2           9.2857446406       -3.8176867589       -6.8895825702  CLST         100          1.0000000000
       299       100  TIP3  H1            8.5974919169       -3.9702363356       -6.2660562589  CLST         100          1.0000000000
       300       100  TIP3  H2            9.2162723170       -4.7071104134       -7.0741873346  CLST         100          1.0000000000
       301       101  TIP3  OH2          11.2848341962        1.9804066119      -10.4122031677  CLST         101          1.0000000000
       302       101  TIP3  H1           11.4070788389        2.6235934966       -9.6996585384  CLST         101          1.0000000000
       303       101  TIP3  H2           11.5150222921        1.3533599637       -9.7433756952  CLST         101          1.0000000000
       304       102  TIP3  OH2          -7.0916145046        2.3741172078      -12.6547005358  CLST         102          1.0000000000
       305       102  TIP3  H1           -7.8167151315        2.2146027263      -13.2543273081  CLST         102          1.0000000000
       306       102  TIP3  H2           -7.5422655148        3.1886464910      -12.5413988456  CLST         102          1.0000000000
       307       103  TIP3  OH2          -4.5341486170      -14.1796542326      -11.1757337617  CLST         103          1.0000000000
       308       103  TIP3  H1           -4.9568428076      -14.5532684547      -11.9538030784  CLST         103          1.0000000000
       309       103  TIP3  H2           -5.3923828789      -14.4810839640      -10.8010285709  CLST         103          1.0000000000
       310       104  TIP3  OH2         -10.9935776093      -11.5206190376        7.6533524578  CLST         104          1.0000000000
       311       104  TIP3  H1          -10.0870934692      -10.8963872145        7.7743469227  CLST         104          1.0000000000
       312       104  TIP3  H2          -10.8741401707      -11.0150579100        8.2736767094  CLST         104          1.0000000000
       313       105  TIP3  OH2           4.4275977605       -0.4632598089       14.0437062569  CLST         105          1.0000000000
       314       105  TIP3  H1            3.6806543628       -1.0537328375       13.8929271071  CLST         105          1.0000000000
       315       105  TIP3  H2            4.7419579368       -0.8968439815       13.2317564831  CLST         105          1.0000000000
       316       106  TIP3  OH2          14.2458891991       -1.1501263213        4.7681550686  CLST         106          1.0000000000
       317       106  TIP3  H1           14.5581591019       -0.2450907254        4.9074009356  CLST         106          1.0000000000
       318       106  TIP3  H2           13.4330878522       -0.7367651741        5.0505380395  CLST         106          1.0000000000
       319       107  TIP3  OH2           1.9211623601      -12.4637804404       -7.2457018387  CLST         107          1.0000000000
       320       107  TIP3  H1            1.1727178724      -11.9406024746       -6.9290938890  CLST         107          1.0000000000
       321       107  TIP3  H2            2.1846691727      -12.1570658114       -6.3000937374  CLST         107          1.0000000000
       322       108  TIP3  OH2          -7.1494423629       -3.9948610171       14.3857706419  CLST         108          1.0000000000
       323       108  TIP3  H1           -7.2758620438       -4.8849368915       14.7324206423  CLST         108          1.0000000000
       324       108  TIP3  H2           -8.0858516938       -3.9245833907       14.1168634577  CLST         108          1.0000000000
       325       109  TIP3  OH2          -4.2145245728       -0.9997289442       11.4382828890  CLST         109          1.0000000000
       326       109  TIP3  H1           -4.4989813409       -1.9618521166       11.5763313864  CLST         109          1.0000000000
       327       109  TIP3  H2           -4.6443702671       -1.0351030348       10.5410743452  CLST         109          1.0000000000
       328       110  TIP3  OH2           1.1980507182       -3.6656911770       -3.1866589739  CLST         110          1.0000000000
       329       110  TIP3  H1            0.8095875152       -4.2173418922       -3.9790009934  CLST         110          1.0000000000
       330       110  TIP3  H2            0.3678656430       -3.6333991710       -2.7258300284  CLST         110          1.0000000000
       331       111  TIP3  OH2          -5.2565846899       -0.7193956993       -6.2197260106  CLST         111          1.0000000000
       332       111  TIP3  H1           -4.5261451575       -0.3736833239       -6.9962802650  CLST         111          1.0000000000
       333       111  TIP3  H2           -4.5641774336       -1.3319378023       -6.7155428870  CLST         111          1.0000000000
       334       112  TIP3  OH2           2.0054479954      -12.2606999469       -4.5838921219  CLST         112          1.0000000000
       335       112  TIP3  H1            1.8970919632      -12.5218198980       -3.6935937241  CLST         112          1.0000000000
       336       112  TIP3  H2            1.7452265037      -11.4250707391       -4.1218474694  CLST         112          1.0000000000
       337       113  TIP3  OH2          13.8329891413        6.0768187223       12.3275244080  CLST         113          1.0000000000
       338       113  TIP3  H1           13.7337443058        6.5902790220       11.5078505275  CLST         113          1.0000000000
       339       113  TIP3  H2           14.7718336512        6.1464363784       12.0571844668  CLST         113          1.0000000000
       340       114  TIP3  OH2          -5.0695041895      -11.2890678976       -4.7224606694  CLST         114          1.0000000000
       341       114  TIP3  H1           -4.7084988931      -10.5657944929       -5.1672016950  CLST         114          1.0000000000
       342       114  TIP3  H2           -4.5257409207      -11.9463860469       -5.1432092886  CLST         114          1.0000000000
       343       115  TIP3  OH2           4.6653740240      -13.7935930560       -8.9495752788  CLST         115          1.0000000000
       344       115  TIP3  H1            4.5953391336      -14.5078013352       -9.5641762758  CLST         115          1.0000000000
       345       115  TIP3  H2            4.0170577121      -13.7848664090       -9.9427184135  CLST         115          1.0000000000
       346       116  TIP3  OH2           8.1301933217        5.8083411142      -14.3031867689  CLST         116          1.0000000000
       347       116  TIP3  H1            8.9245367178        5.3292594015      -14.2136061928  CLST         116          1.0000000000
       348       116  TIP3  H2            7.5539172346        5.4118174228      -13.6261924533  CLST         116          1.0000000000
       349       117  TIP3  OH2          -0.1379915465        1.4695012512       13.1798314795  CLST         117          1.0000000000
       350       117  TIP3  H1           -0.7759282128        1.6158738158       13.8677339086  CLST         117          1.0000000000
       351       117  TIP3  H2            0.2563730898        2.2667084558       13.3599542028  CLST         117          1.0000000000
       352       118  TIP3  OH2          12.4918580345       -9.7658447668       -6.8529925680  CLST         118          1.0000000000
       353       118  TIP3  H1           11.9080679493       -9.0705420433       -6.0995883692  CLST         118          1.0000000000
       354       118  TIP3  H2           12.8395690342       -9.3387979499       -5.9438329962  CLST         118          1.0000000000
       355       119  TIP3  OH2         -11.8337823649       -1.5116972550        4.3979794085  CLST         119          1.0000000000
       356       119  TIP3  H1          -10.9698062443       -1.8262430260        4.4754223170  CLST         119          1.0000000000
       357       119  TIP3  H2          -11.8355990107       -1.1708805152        5.3199301730  CLST         119          1.0000000000
       358       120  TIP3  OH2         -12.0172861816        4.3270438369       -8.0591546573  CLST         120          1.0000000000
       359       120  TIP3  H1          -12.5444254647        4.9830258980       -8.5187998543  CLST         120          1.0000000000
       360       120  TIP3  H2          -12.9152665960        4.3211918916       -7.5660813617  CLST         120          1.0000000000
       361       121  TIP3  OH2          -6.1703008622       -7.2295385650        4.0920633827  CLST         121          1.0000000000
       362       121  TIP3  H1           -5.9269191946       -7.3625301298        3.1509590760  CLST         121          1.0000000000
       363       121  TIP3  H2           -7.0495094707       -6.9275516297        3.8111152564  CLST         121          1.0000000000
       364       122  TIP3  OH2           9.3100509657       -7.2843525685       -6.5932064591  CLST         122          1.0000000000
       365       122  TIP3  H1            8.9745130262       -8.1394366355       -6.9036556504  CLST         122          1.0000000000
       366       122  TIP3  H2            9.8797476736       -7.3824455423       -7.4067444582  CLST         122          1.0000000000
       367       123  TIP3  OH2          -6.8062093676      -10.3880822236        0.4221905373  CLST         123          1.0000000000
       368       123  TIP3  H1           -7.0208972063      -10.7764643013       -0.3841804816  CLST         123          1.0000000000
       369       123  TIP3  H2           -7.7619668569      -10.2824372571        0.6822324275  CLST         123          1.0000000000
       370       124  TIP3  OH2         -13.0223880674       -1.9084235610      -10.0147053178  CLST         124          1.0000000000
       371       124  TIP3  H1          -14.0628337347       -2.4733032466       -9.9724022378  CLST         124          1.0000000000
       372       124  TIP3  H2          -13.2176852613       -2.5605041255      -10.4554337419  CLST         124          1.0000000000
       373       125  TIP3  OH2           6.8760232159        2.5855181050       -5.3331715267  CLST         125          1.0000000000
       374       125  TIP3  H1            6.4409776132        1.9290896379       -4.7108434124  CLST         125          1.0000000000
       375       125  TIP3  H2            6.3654949576        2.0782604121       -6.0381210992  CLST         125          1.0000000000
       376       126  TIP3  OH2          12.5978392432      -10.1097655801        5.5601961200  CLST         126          1.0000000000
       377       126  TIP3  H1           11.9121514343      -10.7514988665        5.8878585451  CLST         126          1.0000000000
       378       126  TIP3  H2           13.2639476108      -10.5287708903        6.0844977953  CLST         126          1.0000000000
       379       127  TIP3  OH2         -10.3493099685       -5.5808846860       -5.0703174198  CLST         127          1.0000000000
       380       127  TIP3  H1           -9.9906355466       -5.1720256723       -4.3035511180  CLST         127          1.0000000000
       381       127  TIP3  H2           -9.5502565626       -6.1376510137       -4.9194254646  CLST         127          1.0000000000
       382       128  TIP3  OH2          -6.2341055425       -3.2402284382        7.0994834221  CLST         128          1.0000000000
       383       128  TIP3  H1           -5.7840711360       -4.1052516153        7.0891704451  CLST         128          1.0000000000
       384       128  TIP3  H2           -5.9885269541       -2.8956362293        6.2594931976  CLST         128          1.0000000000
       385       129  TIP3  OH2         -11.9553559951      -13.9877986560      -10.6176073162  CLST         129          1.0000000000
       386       129  TIP3  H1          -11.4658282577      -13.8201739697       -9.8138283890  CLST         129          1.0000000000
       387       129  TIP3  H2          -12.0726765336      -14.8934714496      -10.3784959637  CLST         129          1.0000000000
       388       130  TIP3  OH2           9.0554082471       -0.8010374350       13.9865777552  CLST         130          1.0000000000
       389       130  TIP3  H1            8.5337950077       -1.5918851430       14.1617334120  CLST         130          1.0000000000
       390       130  TIP3  H2            8.1493303446       -0.4852280863       13.9594925565  CLST         130          1.0000000000
       391       131  TIP3  OH2          -9.4491682165      -11.3504401916       -1.2381465124  CLST         131          1.0000000000
       392       131  TIP3  H1           -8.6400648544      -11.9005846478       -1.1389661360  CLST         131          1.0000000000
       393       131  TIP3  H2           -9.7140651357      -11.8539536077       -0.4604091207  CLST         131          1.0000000000
       394       132  TIP3  OH2           9.0914655390       -2.5194823785        9.6178630802  CLST         132          1.0000000000
       395       132  TIP3  H1            9.8302585360       -2.2099443979        9.0567967500  CLST         132          1.0000000000
       396       132  TIP3  H2            9.2120917046       -1.6016713402        9.9052633865  CLST         132          1.0000000000
       397       133  TIP3  OH2          -9.7290958755       -7.7307258667        7.7661278833  CLST         133          1.0000000000
       398       133  TIP3  H1           -8.8024196535       -7.7883837597        7.8465977206  CLST         133          1.0000000000
       399       133  TIP3  H2           -9.4606553755       -7.4914443327        6.8276123995  CLST         133          1.0000000000
       400       134  TIP3  OH2          -8.9214601872      -12.2845468440       14.3936562625  CLST         134          1.0000000000
       401       134  TIP3  H1           -9.2996846232      -12.1938655977       13.5147143483  CLST         134          1.0000000000
       402       134  TIP3  H2           -8.7913703386      -11.3441048884       14.4843293224  CLST         134          1.0000000000
       403       135  TIP3  OH2          -9.0720406894       11.0271392635        3.3163250815  CLST         135          1.0000000000
       404       135  TIP3  H1           -8.7055581744       10.6869767690        2.5211726838  CLST         135          1.0000000000
       405       135  TIP3  H2           -8.5759212656       10.4446019531        3.8739979817  CLST         135          1.0000000000
       406       136  TIP3  OH2          -5.0321077181       13.0847483474      -11.2597687627  CLST         136          1.0000000000
       407       136  TIP3  H1           -4.4943193249       12.7160681556      -10.3742376813  CLST         136          1.0000000000
       408       136  TIP3  H2           -4.9464140873       13.5584869539      -10.5957676409  CLST         136          1.0000000000
       409       137  TIP3  OH2          -5.7399037139      -10.9819133228        7.9172806987  CLST         137          1.0000000000
       410       137  TIP3  H1           -5.2363369239      -11.2567855973        7.1639884042  CLST         137          1.0000000000
       411       137  TIP3  H2           -5.0419597109      -11.5399993352        8.2422110800  CLST         137          1.0000000000
       412       138  TIP3  OH2          10.0407010385        8.1553446036       10.8728109763  CLST         138          1.0000000000
       413       138  TIP3  H1            9.9158330054        7.5052442325       11.6499176581  CLST         138          1.0000000000
       414       138  TIP3  H2           10.6317003024        8.5265632478       11.6099437437  CLST         138          1.0000000000
       415       139  TIP3  OH2           2.1880861234        9.8777003250       12.3284716569  CLST         139          1.0000000000
       416       139  TIP3  H1            3.1672106122        9.8765145287       12.2153182051  CLST         139          1.0000000000
       417       139  TIP3  H2            2.4020228357        8.9193790899       12.5509560891  CLST         139          1.0000000000
       418       140  TIP3  OH2          -3.2250960475       -0.9819463116       -7.9613759387  CLST         140          1.0000000000
       419       140  TIP3  H1           -2.2336005188       -0.6579006152       -7.9145797775  CLST         140          1.0000000000
       420       140  TIP3  H2           -2.3435406350       -1.6298193568       -8.1596099161  CLST         140          1.0000000000
       421       141  TIP3  OH2         -13.1317219556        5.6861405280       12.3690361724  CLST         141          1.0000000000
       422       141  TIP3  H1          -12.5282595407        6.4313502057       12.1752408013  CLST         141          1.0000000000
       423       141  TIP3  H2          -12.4217264287        5.6601716655       13.0683500895  CLST         141          1.0000000000
       424       142  TIP3  OH2          14.7800812049       -6.6304209797        5.3533535712  CLST         142          1.0000000000
       425       142  TIP3  H1           14.0636053968       -7.1422734999        4.8195062181  CLST         142          1.0000000000
       426       142  TIP3  H2           14.8902493834       -7.5424140827        5.7895421508  CLST         142          1.0000000000
       427       143  TIP3  OH2           6.5193329854       -6.9993191700        1.8742190346  CLST         143          1.0000000000
       428       143  TIP3  H1            6.8669467153       -6.7094083741        0.9745485725  CLST         143          1.0000000000
       429       143  TIP3  H2            5.6792286702       -7.1104774521        1.3071688240  CLST         143          1.0000000000
       430       144  TIP3  OH2          -1.5266407268      -13.8681789741        7.9200722092  CLST         144          1.0000000000
       431       144  TIP3  H1           -1.5336238258      -14.1043267524        6.9349299995  CLST         144          1.0000000000
       432       144  TIP3  H2           -1.2376330646      -14.8292544264        7.8706982037  CLST         144          1.0000000000
       433       145  TIP3  OH2           1.9661967556        7.5276483952       13.4903667007  CLST         145          1.0000000000
       434       145  TIP3  H1            1.1484865568        7.1569706226       13.8396251697  CLST         145          1.0000000000
       435       145  TIP3  H2            1.8309294938        6.9668494882       12.7055294887  CLST         145          1.0000000000
       436       146  TIP3  OH2          -5.7739136895       10.6794072348       -8.5030470033  CLST         146          1.0000000000
       437       146  TIP3  H1           -5.3570716300       11.5545091253       -8.6631807092  CLST         146          1.0000000000
       438       146  TIP3  H2           -6.5115527849       11.2852059625       -8.2472481613  CLST         146          1.0000000000
       439       147  TIP3  OH2           1.3585344852        2.8865809820       -4.2715835134  CLST         147          1.0000000000
       440       147  TIP3  H1            0.5804818237        3.2062675785       -4.0997694643  CLST         147          1.0000000000
       441       147  TIP3  H2            0.5110377322        3.2572096420       -5.0773274503  CLST         147          1.0000000000
       442       148  TIP3  OH2           7.4512423547        6.5886829006       -3.6142777675  CLST         148          1.0000000000
       443       148  TIP3  H1            7.9577024180        5.8569954462       -3.2209623822  CLST         148          1.0000000000
       444       148  TIP3  H2            7.0058558934        6.4098841394       -2.7617808255  CLST         148          1.0000000000
       445       149  TIP3  OH2          -4.0726721925      -13.3255101980       10.9633520587  CLST         149          1.0000000000
       446       149  TIP3  H1           -3.5411368033      -12.5344104907       11.2302360053  CLST         149          1.0000000000
       447       149  TIP3  H2           -4.0964220820      -13.4920297361       11.9017454604  CLST         149          1.0000000000
       448       150  TIP3  OH2          11.0011819971        1.2876816287       -2.5403285545  CLST         150          1.0000000000
       449       150  TIP3  H1           10.6300501473        1.1806573158       -1.5562985354  CLST         150          1.0000000000
       450       150  TIP3  H2           10.0811464564        1.0829481721       -2.6979294108  CLST         150          1.0000000000
       451       151  TIP3  OH2           3.7891988637      -12.0454614077        4.1726339616  CLST         151          1.0000000000
       452       151  TIP3  H1            4.3854757367      -12.5802492011        3.5315856845  CLST         151          1.0000000000
       453       151  TIP3  H2            3.5989182906      -11.6307620738        3.3548257163  CLST         151          1.0000000000
       454       152  TIP3  OH2           0.6306719711        6.3316921761       -5.8784249105  CLST         152          1.0000000000
       455       152  TIP3  H1            0.6754934403        7.2179108998       -6.2950851608  CLST         152          1.0000000000
       456       152  TIP3  H2            1.3819316217        6.1578951081       -6.5194153617  CLST         152          1.0000000000
       457       153  TIP3  OH2          -1.6154454294       10.2368732962       -7.7238198431  CLST         153          1.0000000000
       458       153  TIP3  H1           -1.8511238205       10.7944158948       -7.0602303057  CLST         153          1.0000000000
       459       153  TIP3  H2           -1.4719682523       10.9548824854       -8.3734691197  CLST         153          1.0000000000
       460       154  TIP3  OH2         -11.9660855997       -7.9692302039       -0.5874182206  CLST         154          1.0000000000
       461       154  TIP3  H1          -12.5552028219       -7.2213382576       -0.4715783785  CLST         154          1.0000000000
       462       154  TIP3  H2          -11.1808425286       -7.3356913826       -0.5463602045  CLST         154          1.0000000000
       463       155  TIP3  OH2          10.2005828468       -5.0609923463       14.2033247437  CLST         155          1.0000000000
       464       155  TIP3  H1           10.9203723825       -4.1819149182       14.1325318315  CLST         155          1.0000000000
       465       155  TIP3  H2           10.6054424510       -4.7543442054       13.4016188463  CLST         155          1.0000000000
       466       156  TIP3  OH2          13.9377500869        1.9195954530       -0.0231059924  CLST         156          1.0000000000
       467       156  TIP3  H1           14.7294064240        1.2229413641       -0.5032674297  CLST         156          1.0000000000
       468       156  TIP3  H2           13.6217133249        2.0570351736       -0.8487197522  CLST         156          1.0000000000
       469       157  TIP3  OH2           0.2911258259       -5.2961194864       -8.2659834374  CLST         157          1.0000000000
       470       157  TIP3  H1            0.5833909058       -4.9362051613       -9.1200677321  CLST         157          1.0000000000
       471       157  TIP3  H2            0.4751613568       -6.1905607063       -8.6662464323  CLST         157          1.0000000000
       472       158  TIP3  OH2          -6.6381272403       -1.4435723670       -2.5296344455  CLST         158          1.0000000000
       473       158  TIP3  H1           -7.6177447016       -1.6365770352       -2.6563935408  CLST         158          1.0000000000
       474       158  TIP3  H2           -6.5564908023       -2.2042225779       -3.1094011956  CLST         158          1.0000000000
       475       159  TIP3  OH2           8.1793864890      -11.3564456522        7.9242634963  CLST         159          1.0000000000
       476       159  TIP3  H1            7.2464870970      -11.3776424029        7.6674937072  CLST         159          1.0000000000
       477       159  TIP3  H2            8.2104986918      -10.4849223768        8.3818584635  CLST         159          1.0000000000
       478       160  TIP3  OH2           4.6786715184       -9.2928892439        2.0429040932  CLST         160          1.0000000000
       479       160  TIP3  H1            4.2018714528       -8.8656269207        2.8042914966  CLST         160          1.0000000000
       480       160  TIP3  H2            5.1103097335       -9.7055716340        2.8674306474  CLST         160          1.0000000000
       481       161  TIP3  OH2           3.8217451158       -6.8817360664       -2.7737973390  CLST         161          1.0000000000
       482       161  TIP3  H1            4.5253263498       -7.2820762472       -2.3033801046  CLST         161          1.0000000000
       483       161  TIP3  H2            3.1098046966       -7.0228094453       -2.1492048290  CLST         161          1.0000000000
       484       162  TIP3  OH2           6.5173615093      -10.6451313710        3.4758331194  CLST         162          1.0000000000
       485       162  TIP3  H1            7.4252786878      -10.9339648096        3.3324887009  CLST         162          1.0000000000
       486       162  TIP3  H2            7.0219838740      -10.0243414938        4.0371987281  CLST         162          1.0000000000
       487       163  TIP3  OH2         -13.3606287038        0.0503195865        2.6949153860  CLST         163          1.0000000000
       488       163  TIP3  H1          -13.6285122913        0.2213992540        3.6265137485  CLST         163          1.0000000000
       489       163  TIP3  H2          -12.5972604417       -0.3214434694        3.2532296364  CLST         163          1.0000000000
       490       164  TIP3  OH2           8.5827516865        3.2203837378        9.9451578207  CLST         164          1.0000000000
       491       164  TIP3  H1            8.8345582832        3.9896578651        9.3617023513  CLST         164          1.0000000000
       492       164  TIP3  H2            9.4499257206        2.7942853349       10.0226542028  CLST         164          1.0000000000
       493       165  TIP3  OH2          14.6071087084        3.9649785024        4.8692618001  CLST         165          1.0000000000
       494       165  TIP3  H1           13.5773159609        4.3891790407        4.6599181336  CLST         165          1.0000000000
       495       165  TIP3  H2           13.8794783436        3.5544105247        4.0941982019  CLST         165          1.0000000000
       496       166  TIP3  OH2          -5.9240141428      -12.6843753094        5.1155096343  CLST         166          1.0000000000
       497       166  TIP3  H1           -5.9123677360      -12.2028160610        4.2748116225  CLST         166          1.0000000000
       498       166  TIP3  H2           -6.7917872973      -12.3594282090        5.0934077270  CLST         166          1.0000000000
       499       167  TIP3  OH2           0.1033805154       -7.8366802762       -9.2787847232  CLST         167          1.0000000000
       500       167  TIP3  H1           -0.1859752508       -8.3419246563       -9.9196673877  CLST         167          1.0000000000
       501       167  TIP3  H2            0.9899794265       -8.2130719007       -9.1882672337  CLST         167          1.0000000000
       502       168  TIP3  OH2          -2.7932677261       -2.4464024742        1.7891383599  CLST         168          1.0000000000
       503       168  TIP3  H1           -2.7656286561       -3.3018104046        2.2162413487  CLST         168          1.0000000000
       504       168  TIP3  H2           -2.8556786326       -3.0599388178        1.0298272092  CLST         168          1.0000000000
       505       169  TIP3  OH2           0.6998847826       12.0855098187       12.8414667270  CLST         169          1.0000000000
       506       169  TIP3  H1            1.2419674309       11.2904842181       12.7878884941  CLST         169          1.0000000000
       507       169  TIP3  H2            1.6024123540       12.4148681987       13.0254315103  CLST         169          1.0000000000
       508       170  TIP3  OH2         -14.1839055017      -12.5118935363        4.5707510680  CLST         170          1.0000000000
       509       170  TIP3  H1          -13.5171544549      -13.1416584319        4.4188793252  CLST         170          1.0000000000
       510       170  TIP3  H2          -13.9102853246      -12.4986852840        5.5065774252  CLST         170          1.0000000000
       511       171  TIP3  OH2         -10.0537407417        2.7736198460        2.6210293618  CLST         171          1.0000000000
       512       171  TIP3  H1           -9.1373115128        3.0542801161        2.8090762304  CLST         171          1.0000000000
       513       171  TIP3  H2          -10.0022799715        2.4237224832        3.5184625773  CLST         171          1.0000000000
       514       172  TIP3  OH2          13.9150142163       -7.2263854499      -11.9749283890  CLST         172          1.0000000000
       515       172  TIP3  H1           13.5541849764       -7.3804319335      -10.8780455876  CLST         172          1.0000000000
       516       172  TIP3  H2           13.4122066483       -8.0200322766      -11.7863622791  CLST         172          1.0000000000
       517       173  TIP3  OH2         -12.8497674271       -5.6557107171        3.0595476966  CLST         173          1.0000000000
       518       173  TIP3  H1          -13.2007746108       -4.7275179212        3.2316787738  CLST         173          1.0000000000
       519       173  TIP3  H2          -13.1835241608       -5.6644370041        2.1444336249  CLST         173          1.0000000000
       520       174  TIP3  OH2           5.8268864617      -14.1063672815        5.7766621387  CLST         174          1.0000000000
       521       174  TIP3  H1            5.8006764328      -14.5464162901        6.6823619961  CLST         174          1.0000000000
       522       174  TIP3  H2            5.0019724007      -13.7357472399        6.1074605456  CLST         174          1.0000000000
       523       175  TIP3  OH2           4.3069302536       -3.8726094831        7.7115719338  CLST         175          1.0000000000
       524       175  TIP3  H1            3.7735393747       -4.3950649366        7.1492656892  CLST         175          1.0000000000
       525       175  TIP3  H2            5.0459395876       -3.6726040918        7.2224722652  CLST         175          1.0000000000
       526       176  TIP3  OH2           8.4226110737        2.6578449269      -11.0161564731  CLST         176          1.0000000000
       527       176  TIP3  H1            9.2500605008        2.3613856861      -10.7290894562  CLST         176          1.0000000000
       528       176  TIP3  H2            8.4467228512        2.0300652181      -11.7244491731  CLST         176          1.0000000000
       529       177  TIP3  OH2          -4.2608342213       10.8314843964        7.3407984640  CLST         177          1.0000000000
       530       177  TIP3  H1           -3.3554387150       10.7445086132        6.9338630764  CLST         177          1.0000000000
       531       177  TIP3  H2           -4.4478791351        9.8960360592        7.0742894803  CLST         177          1.0000000000
       532       178  TIP3  OH2           4.0925038633       -6.4582250698        0.6248559770  CLST         178          1.0000000000
       533       178  TIP3  H1            3.5898994718       -5.7984851406        0.1337181076  CLST         178          1.0000000000
       534       178  TIP3  H2            3.1952043558       -6.7559249087        0.7536523242  CLST         178          1.0000000000
       535       179  TIP3  OH2           2.8600845861      -10.1767318101        0.1824865914  CLST         179          1.0000000000
       536       179  TIP3  H1            2.1483598141       -9.5428559299        0.4311202540  CLST         179          1.0000000000
       537       179  TIP3  H2            3.5661701272       -9.5296014585        0.5015499771  CLST         179          1.0000000000
       538       180  TIP3  OH2          -2.1453952132       -3.3953542237        8.1145321492  CLST         180          1.0000000000
       539       180  TIP3  H1           -2.0626749750       -2.7098017484        8.7777751556  CLST         180          1.0000000000
       540       180  TIP3  H2           -2.7112288498       -3.0148691138        7.4693417354  CLST         180          1.0000000000
       541       181  TIP3  OH2         -12.1446484857        0.1220311780      -11.3725118531  CLST         181          1.0000000000
       542       181  TIP3  H1          -11.2661068868        0.0737741725      -10.9481869416  CLST         181          1.0000000000
       543       181  TIP3  H2          -12.3092318294       -0.5484288962      -10.7420825790  CLST         181          1.0000000000
       544       182  TIP3  OH2         -10.7431995403      -12.7242843739        5.5327969977  CLST         182          1.0000000000
       545       182  TIP3  H1          -11.1901504838      -12.4615500673        6.1698002972  CLST         182          1.0000000000
       546       182  TIP3  H2          -10.3961606602      -12.1129698842        5.9762426604  CLST         182          1.0000000000
       547       183  TIP3  OH2          11.9931071340        5.3454136444        4.2320512510  CLST         183          1.0000000000
       548       183  TIP3  H1           11.7375711882        5.1987041152        3.2816461679  CLST         183          1.0000000000
       549       183  TIP3  H2           11.7857114662        6.2028171453        3.9388492298  CLST         183          1.0000000000
       550       184  TIP3  OH2          -0.1205415744       -0.3947982732        8.3325498032  CLST         184          1.0000000000
       551       184  TIP3  H1            0.7877200852       -0.7558760386        8.2482695451  CLST         184          1.0000000000
       552       184  TIP3  H2           -0.6230932707       -0.8445624081        9.0157477902  CLST         184          1.0000000000
       553       185  TIP3  OH2           9.4790348163       12.7652622844       -4.0751081139  CLST         185          1.0000000000
       554       185  TIP3  H1            8.6072365875       12.3073083868       -4.2340571072  CLST         185          1.0000000000
       555       185  TIP3  H2            9.3283897385       13.4441805866       -4.7182831627  CLST         185          1.0000000000
       556       186  TIP3  OH2          12.1363173789       -0.1692880305        3.9280387385  CLST         186          1.0000000000
       557       186  TIP3  H1           12.5148334423       -0.3282376725        3.0389690765  CLST         186          1.0000000000
       558       186  TIP3  H2           11.4459184579        0.3621137380        3.4685511485  CLST         186          1.0000000000
       559       187  TIP3  OH2         -10.0594729537       -7.6800701288      -11.4350111965  CLST         187          1.0000000000
       560       187  TIP3  H1          -10.4113961084       -7.5002715709      -10.5654205716  CLST         187          1.0000000000
       561       187  TIP3  H2           -9.5403629904       -6.8376903898      -11.2507187530  CLST         187          1.0000000000
       562       188  TIP3  OH2         -14.8363448917       -0.3912766270        0.4223521769  CLST         188          1.0000000000
       563       188  TIP3  H1          -14.8288092665       -0.1810737642        1.2899870026  CLST         188          1.0000000000
       564       188  TIP3  H2          -14.8896404855       -1.1171076751       -0.2096936585  CLST         188          1.0000000000
       565       189  TIP3  OH2          13.1737607757        1.7296410371       14.3484885864  CLST         189          1.0000000000
       566       189  TIP3  H1           13.9618964132        1.6213971038       14.8934714496  CLST         189          1.0000000000
       567       189  TIP3  H2           13.6183163934        1.5586014774       13.4632445838  CLST         189          1.0000000000
       568       190  TIP3  OH2           0.4242538460       -7.7972602854        3.6338439719  CLST         190          1.0000000000
       569       190  TIP3  H1            0.7038634396       -8.2958446797        4.4109144451  CLST         190          1.0000000000
       570       190  TIP3  H2            0.6357454301       -6.9141921849        4.0194805814  CLST         190          1.0000000000
       571       191  TIP3  OH2          -0.7476125676       13.8813797938       -3.8742498663  CLST         191          1.0000000000
       572       191  TIP3  H1           -1.6678498911       13.5585228389       -4.0004243857  CLST         191          1.0000000000
       573       191  TIP3  H2           -1.2524535367       14.6964578846       -4.1848452014  CLST         191          1.0000000000
       574       192  TIP3  OH2          -5.0264267401       -0.1546289102       -0.9118308053  CLST         192          1.0000000000
       575       192  TIP3  H1           -5.6976106593       -0.2871394341       -1.5618046333  CLST         192          1.0000000000
       576       192  TIP3  H2           -5.6883165898        0.2741748687       -0.3411885456  CLST         192          1.0000000000
       577       193  TIP3  OH2         -12.9056364679      -12.9817003769        6.9725758928  CLST         193          1.0000000000
       578       193  TIP3  H1          -12.2623868618      -13.4563772071        7.4503341606  CLST         193          1.0000000000
       579       193  TIP3  H2          -12.6638621595      -12.1970838381        7.4529373000  CLST         193          1.0000000000
       580       194  TIP3  OH2          12.5699676948       12.6577478370      -11.2335469885  CLST         194          1.0000000000
       581       194  TIP3  H1           13.2897958113       13.2203619390      -10.9446625590  CLST         194          1.0000000000
       582       194  TIP3  H2           12.9861650140       12.2852245822      -11.9886528215  CLST         194          1.0000000000
       583       195  TIP3  OH2           5.2164212829        2.7510995753        3.4374743578  CLST         195          1.0000000000
       584       195  TIP3  H1            4.4384839379        2.7470229131        2.6501938094  CLST         195          1.0000000000
       585       195  TIP3  H2            4.5980230006        1.9425762693        3.3041147054  CLST         195          1.0000000000
       586       196  TIP3  OH2           7.2556334532        6.0403169434       10.9901738449  CLST         196          1.0000000000
       587       196  TIP3  H1            7.4514978522        6.3372714557       11.9472612251  CLST         196          1.0000000000
       588       196  TIP3  H2            7.2146122894        6.9710318096       11.0324497278  CLST         196          1.0000000000
       589       197  TIP3  OH2          -4.4245416847       -9.3782050523        3.7499278049  CLST         197          1.0000000000
       590       197  TIP3  H1           -4.8214015629       -8.8771295713        2.9345302050  CLST         197          1.0000000000
       591       197  TIP3  H2           -3.6330237093       -8.7887230590        3.5345735333  CLST         197          1.0000000000
       592       198  TIP3  OH2          -4.4159164835       -8.9238428426       -6.1570130578  CLST         198          1.0000000000
       593       198  TIP3  H1           -3.7931915999       -8.8491340551       -6.9320930963  CLST         198          1.0000000000
       594       198  TIP3  H2           -5.0812129013       -8.9868368070       -6.8245960728  CLST         198          1.0000000000
       595       199  TIP3  OH2          11.3968397989        7.6981501119       -2.2594250491  CLST         199          1.0000000000
       596       199  TIP3  H1           11.3949253816        8.5688576768       -1.8275241425  CLST         199          1.0000000000
       597       199  TIP3  H2           12.2815339830        7.6687138575       -1.8184326192  CLST         199          1.0000000000
       598       200  TIP3  OH2          -4.5324979760       -7.2131068140       -0.9559352580  CLST         200          1.0000000000
       599       200  TIP3  H1           -3.5880465233       -7.2072338271       -1.1508693694  CLST         200          1.0000000000
       600       200  TIP3  H2           -4.6364587513       -6.5668537187       -1.6447372968  CLST         200          1.0000000000
       601       201  TIP3  OH2          13.7329431162      -10.7451343751       11.6618392693  CLST         201          1.0000000000
       602       201  TIP3  H1           14.0004877249      -10.0433582586       12.2667933218  CLST         201          1.0000000000
       603       201  TIP3  H2           13.1288374929      -10.2810148241       11.0655215017  CLST         201          1.0000000000
       604       202  TIP3  OH2          -2.8670489473       -9.5352201128        7.9235090622  CLST         202          1.0000000000
       605       202  TIP3  H1           -2.5139139536      -10.4024093938        8.5066343886  CLST         202          1.0000000000
       606       202  TIP3  H2           -2.6731751261      -10.6141647241        7.6396258879  CLST         202          1.0000000000
       607       203  TIP3  OH2          10.4868188371        4.4292761857       13.9362617633  CLST         203          1.0000000000
       608       203  TIP3  H1            9.8984615724        4.1779525764       13.3578426546  CLST         203          1.0000000000
       609       203  TIP3  H2            9.7176092558        3.6711848616       14.2496394334  CLST         203          1.0000000000
       610       204  TIP3  OH2          -5.2029031213        6.1015946821        5.7589508944  CLST         204          1.0000000000
       611       204  TIP3  H1           -5.8509726742        6.7930641781        5.5468869442  CLST         204          1.0000000000
       612       204  TIP3  H2           -5.0189842833        6.5941854983        6.5556944897  CLST         204          1.0000000000
       613       205  TIP3  OH2          -2.4430065210        1.3285383755       -4.9139963657  CLST         205          1.0000000000
       614       205  TIP3  H1           -1.5766003926        1.5280373443       -5.2472611710  CLST         205          1.0000000000
       615       205  TIP3  H2           -2.6586899315        1.9998031735       -5.5409028104  CLST         205          1.0000000000
       616       206  TIP3  OH2          -8.5894403810       -1.3037956516        4.5146490388  CLST         206          1.0000000000
       617       206  TIP3  H1           -8.5556988309       -1.5421972877        5.4354543254  CLST         206          1.0000000000
       618       206  TIP3  H2           -8.1362464922       -0.4724354561        4.7470747657  CLST         206          1.0000000000
       619       207  TIP3  OH2          -7.7257634327        9.4290439856        0.5834752938  CLST         207          1.0000000000
       620       207  TIP3  H1           -7.4275008884        8.3507388579        0.6378144898  CLST         207          1.0000000000
       621       207  TIP3  H2           -8.0095602361        8.8360853438        1.1295147426  CLST         207          1.0000000000
       622       208  TIP3  OH2           9.4608185583       14.0825352833      -11.7452004285  CLST         208          1.0000000000
       623       208  TIP3  H1            9.3425741909       13.6143920439      -12.5823983531  CLST         208          1.0000000000
       624       208  TIP3  H2            9.9159706750       14.7705475359      -12.1973526027  CLST         208          1.0000000000
       625       209  TIP3  OH2          -6.4902653910       -6.4425670719      -14.3948745432  CLST         209          1.0000000000
       626       209  TIP3  H1           -7.4396248755       -6.5286040945      -14.4426027072  CLST         209          1.0000000000
       627       209  TIP3  H2           -6.3827946262       -7.0744969458      -13.7301654338  CLST         209          1.0000000000
       628       210  TIP3  OH2          -2.2064601119        1.3651502031        8.0890741695  CLST         210          1.0000000000
       629       210  TIP3  H1           -1.5513016640        0.6585863270        8.1476258660  CLST         210          1.0000000000
       630       210  TIP3  H2           -1.9434790071        1.6410246696        8.9795712446  CLST         210          1.0000000000
       631       211  TIP3  OH2          -0.8875393200       -0.0886923850       -3.3878017154  CLST         211          1.0000000000
       632       211  TIP3  H1           -1.5196844140       -0.6704900605       -2.9508993566  CLST         211          1.0000000000
       633       211  TIP3  H2           -1.6430465976        0.4251061957       -3.6105670976  CLST         211          1.0000000000
       634       212  TIP3  OH2           7.0593554835        3.0392743286        5.7239944158  CLST         212          1.0000000000
       635       212  TIP3  H1            6.5883810348        2.3735683184        5.8758039720  CLST         212          1.0000000000
       636       212  TIP3  H2            6.0997522213        2.8931368551        5.2173531920  CLST         212          1.0000000000
       637       213  TIP3  OH2           2.0238913164       -5.0875292140       -0.3338707761  CLST         213          1.0000000000
       638       213  TIP3  H1            2.0849059449       -4.1990188014       -0.7241501419  CLST         213          1.0000000000
       639       213  TIP3  H2            1.6855115388       -5.3091501370       -1.2583203065  CLST         213          1.0000000000
       640       214  TIP3  OH2           2.0949728935       -6.9589256162      -11.7973046821  CLST         214          1.0000000000
       641       214  TIP3  H1            2.4119754013       -7.8359282237      -11.5898957402  CLST         214          1.0000000000
       642       214  TIP3  H2            2.7813158904       -6.5719643211      -11.1871541496  CLST         214          1.0000000000
       643       215  TIP3  OH2         -12.7271764134        2.7769240108      -11.0351556849  CLST         215          1.0000000000
       644       215  TIP3  H1          -12.7424942362        1.6978011609      -11.1036658575  CLST         215          1.0000000000
       645       215  TIP3  H2          -13.0148145244        2.0654122574      -11.9179715125  CLST         215          1.0000000000
       646       216  TIP3  OH2          11.4682806788       -6.4664823434       -4.6044143062  CLST         216          1.0000000000
       647       216  TIP3  H1           10.5318900994       -6.6767128139       -4.2426148707  CLST         216          1.0000000000
       648       216  TIP3  H2           10.8161111382       -6.1393987307       -5.3265055449  CLST         216          1.0000000000
       649       217  TIP3  OH2          -6.5059878974        9.2472415882        4.0310104900  CLST         217          1.0000000000
       650       217  TIP3  H1           -5.6366891522        8.8397222597        4.0266760579  CLST         217          1.0000000000
       651       217  TIP3  H2           -6.9412020950        8.4487821141        3.8927340795  CLST         217          1.0000000000
       652       218  TIP3  OH2           5.7131710382       -7.1775196203       -8.3490833200  CLST         218          1.0000000000
       653       218  TIP3  H1            6.0007147513       -7.6301259944       -7.7160091262  CLST         218          1.0000000000
       654       218  TIP3  H2            5.2931245809       -6.9733352140       -7.2765717349  CLST         218          1.0000000000
       655       219  TIP3  OH2           2.4918316841      -13.3362584035        7.3104908773  CLST         219          1.0000000000
       656       219  TIP3  H1            2.2206889611      -12.6361141936        7.8724405759  CLST         219          1.0000000000
       657       219  TIP3  H2            3.0606404033      -13.4235818790        8.0764425258  CLST         219          1.0000000000
       658       220  TIP3  OH2           2.3148805474        1.6049119537      -11.1487628894  CLST         220          1.0000000000
       659       220  TIP3  H1            2.5700452140        1.7191708931      -12.0441315938  CLST         220          1.0000000000
       660       220  TIP3  H2            3.0600905653        0.9941631088      -11.1596755933  CLST         220          1.0000000000
       661       221  TIP3  OH2           1.8094702491       -0.4869681986        3.0569924162  CLST         221          1.0000000000
       662       221  TIP3  H1            0.9874379084       -0.2127468003        2.5789927491  CLST         221          1.0000000000
       663       221  TIP3  H2            1.7990261052        0.3807237202        3.4602233568  CLST         221          1.0000000000
       664       222  TIP3  OH2          11.9896188971        0.5741336748        1.5206172782  CLST         222          1.0000000000
       665       222  TIP3  H1           12.2460325369        0.5964862119        0.5851853791  CLST         222          1.0000000000
       666       222  TIP3  H2           11.0462752998        0.5712180926        1.1616731325  CLST         222          1.0000000000
       667       223  TIP3  OH2           1.4614228505      -10.6924740456      -12.9277788349  CLST         223          1.0000000000
       668       223  TIP3  H1            1.0000121477      -11.2001206973      -12.2917733656  CLST         223          1.0000000000
       669       223  TIP3  H2            1.0957449665       -9.9331086753      -12.4747308840  CLST         223          1.0000000000
       670       224  TIP3  OH2          -9.0564800660        6.6951169834      -12.7591247396  CLST         224          1.0000000000
       671       224  TIP3  H1           -9.7807831355        5.9661686960      -12.7390475757  CLST         224          1.0000000000
       672       224  TIP3  H2           -8.5861011586        5.9001440197      -13.1231029005  CLST         224          1.0000000000
       673       225  TIP3  OH2          13.2970315988        3.6396573590       -7.5910073609  CLST         225          1.0000000000
       674       225  TIP3  H1           12.3347250130        3.4378040891       -7.6534801090  CLST         225          1.0000000000
       675       225  TIP3  H2           12.9200782778        2.7588840056       -6.8431518376  CLST         225          1.0000000000
       676       226  TIP3  OH2           5.1697056913        5.1186706712       10.5380724845  CLST         226          1.0000000000
       677       226  TIP3  H1            5.9740453611        4.8679685422       10.0371279837  CLST         226          1.0000000000
       678       226  TIP3  H2            5.7683727579        5.0012789068       11.2708693370  CLST         226          1.0000000000
       679       227  TIP3  OH2          -6.5071838014        0.9596120634        9.6305204494  CLST         227          1.0000000000
       680       227  TIP3  H1           -6.9419032527        0.9064512602       10.4281756196  CLST         227          1.0000000000
       681       227  TIP3  H2           -6.1173635905        0.0558374469        9.4966425288  CLST         227          1.0000000000
       682       228  TIP3  OH2          -8.4826175704       -5.3530291366       10.9201755151  CLST         228          1.0000000000
       683       228  TIP3  H1           -8.2757024486       -5.3729536115        9.9753340719  CLST         228          1.0000000000
       684       228  TIP3  H2           -7.4789585244       -5.4387967311       10.9804674920  CLST         228          1.0000000000
       685       229  TIP3  OH2          11.3765669306        8.0937746079      -14.8934714496  CLST         229          1.0000000000
       686       229  TIP3  H1           11.3706556725        8.2007331586      -13.8728886174  CLST         229          1.0000000000
       687       229  TIP3  H2           11.8890594955        7.2596719749      -14.6905854991  CLST         229          1.0000000000
       688       230  TIP3  OH2         -10.8623537974       -3.5813783053        8.6810484572  CLST         230          1.0000000000
       689       230  TIP3  H1          -11.2548852679       -4.4171098595        8.5829126312  CLST         230          1.0000000000
       690       230  TIP3  H2          -11.5868040527       -3.4150006349        9.3455429595  CLST         230          1.0000000000
       691       231  TIP3  OH2          -0.1732921879        3.1804291505      -12.0941625531  CLST         231          1.0000000000
       692       231  TIP3  H1            0.5066731710        2.8119182430      -11.5327580487  CLST         231          1.0000000000
       693       231  TIP3  H2            0.5401766383        2.9744555012      -12.7296010237  CLST         231          1.0000000000
       694       232  TIP3  OH2           1.8323650895      -14.8934714496      -12.0327206067  CLST         232          1.0000000000
       695       232  TIP3  H1            1.8906849773      -14.0452018162      -11.5233749884  CLST         232          1.0000000000
       696       232  TIP3  H2            2.1571818327      -14.3113049527      -12.7272561138  CLST         232          1.0000000000
       697       233  TIP3  OH2         -12.2970855552        9.5646336566        2.0647447586  CLST         233          1.0000000000
       698       233  TIP3  H1          -13.0013049236        9.1356948160        2.5966126528  CLST         233          1.0000000000
       699       233  TIP3  H2          -13.0643495934        9.8707365993        1.5902323209  CLST         233          1.0000000000
       700       234  TIP3  OH2          -2.2782635529        4.7176697747       -8.0915231421  CLST         234          1.0000000000
       701       234  TIP3  H1           -2.2311886718        5.6697098150       -8.1424688921  CLST         234          1.0000000000
       702       234  TIP3  H2           -2.3021766759        4.6978738683       -9.0873082097  CLST         234          1.0000000000
       703       235  TIP3  OH2         -10.4578441770        5.0387689455       -5.7651720769  CLST         235          1.0000000000
       704       235  TIP3  H1          -10.8346408222        4.6521056440       -6.5597930149  CLST         235          1.0000000000
       705       235  TIP3  H2           -9.7630134593        4.9089617068       -6.6363657332  CLST         235          1.0000000000
       706       236  TIP3  OH2         -11.9980369775      -10.5372823587       13.7810127948  CLST         236          1.0000000000
       707       236  TIP3  H1          -11.3911058044      -11.1244901970       13.1550804402  CLST         236          1.0000000000
       708       236  TIP3  H2          -11.8523533395      -10.2371511817       12.6961074665  CLST         236          1.0000000000
       709       237  TIP3  OH2          -6.0254401003       -6.2364128942       10.3691991462  CLST         237          1.0000000000
       710       237  TIP3  H1           -5.9368389390       -7.2025170215       10.0698774251  CLST         237          1.0000000000
       711       237  TIP3  H2           -5.0234883116       -6.2962828746       10.2484533480  CLST         237          1.0000000000
       712       238  TIP3  OH2          -0.8261580200        3.6361726301       -2.5882341783  CLST         238          1.0000000000
       713       238  TIP3  H1           -1.3451192828        3.8625201233       -3.1765537663  CLST         238          1.0000000000
       714       238  TIP3  H2           -2.0013028788        3.3575299978       -2.5728139923  CLST         238          1.0000000000
       715       239  TIP3  OH2           8.2206683730        7.6949916911        0.0262881948  CLST         239          1.0000000000
       716       239  TIP3  H1            8.8582037353        7.0382343802       -0.3475925541  CLST         239          1.0000000000
       717       239  TIP3  H2            9.0552725706        7.9509985075        0.5174548883  CLST         239          1.0000000000
       718       240  TIP3  OH2          -9.8239889566        8.6610887667        1.9161949788  CLST         240          1.0000000000
       719       240  TIP3  H1          -10.8239595453        8.7568894999        1.7298664948  CLST         240          1.0000000000
       720       240  TIP3  H2          -10.1078722797        7.7550282252        1.6279985191  CLST         240          1.0000000000
       721       241  TIP3  OH2          10.7724452136       -4.5825292955       -1.7602593418  CLST         241          1.0000000000
       722       241  TIP3  H1           10.3835086687       -4.9777776160       -2.6595433332  CLST         241          1.0000000000
       723       241  TIP3  H2           11.5799419768       -4.4960311944       -2.3048375018  CLST         241          1.0000000000
       724       242  TIP3  OH2           9.3613193439       -1.5385519771       -4.4164412183  CLST         242          1.0000000000
       725       242  TIP3  H1           10.1178403665       -1.1417755927       -3.9657459537  CLST         242          1.0000000000
       726       242  TIP3  H2            9.4535939066       -2.1509850126       -3.7073573007  CLST         242          1.0000000000
       727       243  TIP3  OH2           5.2041076516        9.4386219167      -12.3055968327  CLST         243          1.0000000000
       728       243  TIP3  H1            4.8856641058       10.0102405763      -11.7744632044  CLST         243          1.0000000000
       729       243  TIP3  H2            4.7928162750        9.0841242807      -11.3298822402  CLST         243          1.0000000000
       730       244  TIP3  OH2          -9.1975765397       -6.5137960735      -14.2055545954  CLST         244          1.0000000000
       731       244  TIP3  H1           -9.3956674027       -6.3397230695      -13.2968482519  CLST         244          1.0000000000
       732       244  TIP3  H2           -9.7913586675       -5.8102651701      -14.3574682110  CLST         244          1.0000000000
       733       245  TIP3  OH2         -13.2074591315        6.1877924455        2.9398901574  CLST         245          1.0000000000
       734       245  TIP3  H1          -13.1346148288        6.8505091926        3.6837908143  CLST         245          1.0000000000
       735       245  TIP3  H2          -12.3465900575        6.2511540633        2.4427562744  CLST         245          1.0000000000
       736       246  TIP3  OH2          -9.2768642585        6.1345084361       -1.8367278886  CLST         246          1.0000000000
       737       246  TIP3  H1          -10.2821721489        6.0929584286       -2.0349543538  CLST         246          1.0000000000
       738       246  TIP3  H2           -9.4524878092        7.0750470239       -2.0636972902  CLST         246          1.0000000000
       739       247  TIP3  OH2          -4.4431612316        8.0699093784        7.8912915815  CLST         247          1.0000000000
       740       247  TIP3  H1           -3.5331245094        8.1569753397        8.1048099275  CLST         247          1.0000000000
       741       247  TIP3  H2           -4.4182014540        7.5050377089        8.7076486275  CLST         247          1.0000000000
       742       248  TIP3  OH2           9.9814801190       -7.9795874175        7.8602618539  CLST         248          1.0000000000
       743       248  TIP3  H1            9.2206876398       -8.5621558798        7.8332616572  CLST         248          1.0000000000
       744       248  TIP3  H2            9.8006748554       -7.6907170535        6.9463613463  CLST         248          1.0000000000
       745       249  TIP3  OH2           9.9434285290        5.8087861936       -1.2436873716  CLST         249          1.0000000000
       746       249  TIP3  H1           10.5883774084        5.1216946835       -1.3422865755  CLST         249          1.0000000000
       747       249  TIP3  H2           10.6090140793        6.2776555168       -1.6951018542  CLST         249          1.0000000000
       748       250  TIP3  OH2           5.8165907776       -4.9717552569        3.0968923640  CLST         250          1.0000000000
       749       250  TIP3  H1            6.3122612210       -5.6878134091        2.6586030620  CLST         250          1.0000000000
       750       250  TIP3  H2            5.1855241786       -5.3622485322        3.6931222406  CLST         250          1.0000000000
       751       251  TIP3  OH2         -14.8934714496      -11.6131170960        1.6709350069  CLST         251          1.0000000000
       752       251  TIP3  H1          -14.4061353153      -12.0421348354        0.9213475901  CLST         251          1.0000000000
       753       251  TIP3  H2          -14.5725513702      -12.4489098106        2.0751321970  CLST         251          1.0000000000
       754       252  TIP3  OH2          -6.8152866342      -14.8934714496      -11.7691769481  CLST         252          1.0000000000
       755       252  TIP3  H1           -7.8086584527      -14.6707200629      -11.7447572678  CLST         252          1.0000000000
       756       252  TIP3  H2           -6.8427678403      -14.2854707821      -12.5885393730  CLST         252          1.0000000000
       757       253  TIP3  OH2           0.6815399489        7.3219455753        7.8637235910  CLST         253          1.0000000000
       758       253  TIP3  H1            0.8878830065        6.7382382263        7.0509604861  CLST         253          1.0000000000
       759       253  TIP3  H2            1.6221141202        7.5055580615        7.8083880410  CLST         253          1.0000000000
       760       254  TIP3  OH2         -11.5210616563        1.3651700291      -14.4623416104  CLST         254          1.0000000000
       761       254  TIP3  H1          -12.1498624344        0.8187151031      -13.7263313586  CLST         254          1.0000000000
       762       254  TIP3  H2          -12.5296746154        1.0494420486      -14.5425309947  CLST         254          1.0000000000
       763       255  TIP3  OH2           4.0836325364        0.1615517542       -0.7855121532  CLST         255          1.0000000000
       764       255  TIP3  H1            4.0399691817       -0.4175776590        0.0507273733  CLST         255          1.0000000000
       765       255  TIP3  H2            3.1680146461        0.0811597294       -0.7469234350  CLST         255          1.0000000000
       766       256  TIP3  OH2          14.0797501212       -3.5394454800      -12.3460275682  CLST         256          1.0000000000
       767       256  TIP3  H1           14.7966035783       -3.1040469981      -12.7787068945  CLST         256          1.0000000000
       768       256  TIP3  H2           13.5110824813       -4.0998187712      -12.8655347226  CLST         256          1.0000000000
       769       257  TIP3  OH2          -6.4596951415      -13.3769228978       10.6467327465  CLST         257          1.0000000000
       770       257  TIP3  H1           -6.8464380285      -14.2133999116       10.3600717741  CLST         257          1.0000000000
       771       257  TIP3  H2           -5.7223115855      -13.7604423360       10.2004016117  CLST         257          1.0000000000
       772       258  TIP3  OH2         -10.3578674867      -11.7113912542       -6.3897552653  CLST         258          1.0000000000
       773       258  TIP3  H1           -9.9839040381      -11.5330346436       -5.4874125805  CLST         258          1.0000000000
       774       258  TIP3  H2          -10.1738702269      -10.7763360027       -6.5560938285  CLST         258          1.0000000000
       775       259  TIP3  OH2           2.9610362176        1.8530491287       13.9371815797  CLST         259          1.0000000000
       776       259  TIP3  H1            3.1346131377        0.8640206072       13.8000797189  CLST         259          1.0000000000
       777       259  TIP3  H2            2.9536929203        1.4999116937       14.8231603337  CLST         259          1.0000000000
       778       260  TIP3  OH2         -10.6117409220      -10.2247263482       -9.3623366448  CLST         260          1.0000000000
       779       260  TIP3  H1          -11.2603024178      -10.5524990091      -10.0395654511  CLST         260          1.0000000000
       780       260  TIP3  H2          -11.3749172232       -9.7487663948       -9.0566091292  CLST         260          1.0000000000
       781       261  TIP3  OH2           7.0129134292        0.9248112609       -0.2506927903  CLST         261          1.0000000000
       782       261  TIP3  H1            7.1546521093        1.3925335110       -1.0997086696  CLST         261          1.0000000000
       783       261  TIP3  H2            6.2549574420        1.5668636806       -0.1525371063  CLST         261          1.0000000000
       784       262  TIP3  OH2          -1.6627424231       14.1308065557        2.9186399410  CLST         262          1.0000000000
       785       262  TIP3  H1           -1.9852732808       13.9944890335        3.8125707986  CLST         262          1.0000000000
       786       262  TIP3  H2           -0.9392827447       13.6135095430        3.1887194756  CLST         262          1.0000000000
       787       263  TIP3  OH2           6.9602532969        3.9488894868        1.7594719048  CLST         263          1.0000000000
       788       263  TIP3  H1            6.3136594153        3.6702714248        1.0676754394  CLST         263          1.0000000000
       789       263  TIP3  H2            6.3661096463        3.4203956364        2.2889870417  CLST         263          1.0000000000
       790       264  TIP3  OH2          -2.9190204544       10.4067312882       10.2552287225  CLST         264          1.0000000000
       791       264  TIP3  H1           -2.2547839962       11.0762065848       10.4777202864  CLST         264          1.0000000000
       792       264  TIP3  H2           -2.5597776806       10.4665060938        9.3558595278  CLST         264          1.0000000000
       793       265  TIP3  OH2         -12.6495656171       12.7243836413       -0.2350023988  CLST         265          1.0000000000
       794       265  TIP3  H1          -13.0626308536       13.0888951005       -1.0916473661  CLST         265          1.0000000000
       795       265  TIP3  H2          -13.3733910847       12.1221894395       -0.3239125060  CLST         265          1.0000000000
       796       266  TIP3  OH2          -4.0966055884        1.5497099495        4.1346756667  CLST         266          1.0000000000
       797       266  TIP3  H1           -4.0543357726        0.8175913481        3.4463586218  CLST         266          1.0000000000
       798       266  TIP3  H2           -4.5917488279        2.0316101016        3.4557703494  CLST         266          1.0000000000
       799       267  TIP3  OH2          -6.9868252162       11.4035458032       -5.3681169990  CLST         267          1.0000000000
       800       267  TIP3  H1           -7.3931262940       11.1286580078       -6.1997441573  CLST         267          1.0000000000
       801       267  TIP3  H2           -7.8878991688       11.4636165999       -5.0362253058  CLST         267          1.0000000000
       802       268  TIP3  OH2           4.7928095426        3.7089001123      -13.9450550492  CLST         268          1.0000000000
       803       268  TIP3  H1            5.6671113011        3.9607356487      -13.5750807311  CLST         268          1.0000000000
       804       268  TIP3  H2            4.7871153866        4.5114968809      -14.5533682696  CLST         268          1.0000000000
       805       269  TIP3  OH2           9.4085884430       -0.3727546526       11.1799896623  CLST         269          1.0000000000
       806       269  TIP3  H1           10.2079071636       -0.1868403244       11.4067918216  CLST         269          1.0000000000
       807       269  TIP3  H2            9.6770420248       -0.4535199580       12.2653774409  CLST         269          1.0000000000
       808       270  TIP3  OH2          -8.3184568267       -6.2624046925        6.1195014372  CLST         270          1.0000000000
       809       270  TIP3  H1           -8.3400602688       -5.9115778874        5.2498601831  CLST         270          1.0000000000
       810       270  TIP3  H2           -7.3928736520       -6.2691717977        6.3111718272  CLST         270          1.0000000000
       811       271  TIP3  OH2         -11.6819979214       11.8873912382       11.2679240308  CLST         271          1.0000000000
       812       271  TIP3  H1          -11.2845000701       12.1911176784       12.0649623586  CLST         271          1.0000000000
       813       271  TIP3  H2          -11.2972596958       12.7042861714       10.8491359493  CLST         271          1.0000000000
       814       272  TIP3  OH2           6.9144741158      -14.2869546064        3.0326642664  CLST         272          1.0000000000
       815       272  TIP3  H1            7.2673563897      -13.8050659411        3.6435913203  CLST         272          1.0000000000
       816       272  TIP3  H2            6.6294501608      -14.2480150652        4.1196528642  CLST         272          1.0000000000
       817       273  TIP3  OH2          -8.2136105278       10.9766531713       -7.8148011073  CLST         273          1.0000000000
       818       273  TIP3  H1           -9.0273945648       11.1903139052       -8.3433126901  CLST         273          1.0000000000
       819       273  TIP3  H2           -8.5709291307       10.0919680225       -8.1162076978  CLST         273          1.0000000000
       820       274  TIP3  OH2          -6.6441698020        0.6027834686       14.0441491342  CLST         274          1.0000000000
       821       274  TIP3  H1           -7.5238038520        0.9361306351       14.2969083063  CLST         274          1.0000000000
       822       274  TIP3  H2           -7.6920050605        0.5538623905       13.3840158556  CLST         274          1.0000000000
       823       275  TIP3  OH2           3.8267980706      -14.7839903002       -0.9085605836  CLST         275          1.0000000000
       824       275  TIP3  H1            2.8610317688      -14.7976551693       -0.6378128015  CLST         275          1.0000000000
       825       275  TIP3  H2            3.6569061287      -13.9700028298       -1.3618800448  CLST         275          1.0000000000
       826       276  TIP3  OH2           2.3396043935       -9.9693835017        7.1634860139  CLST         276          1.0000000000
       827       276  TIP3  H1            2.3928352562      -10.2060148550        8.1108915207  CLST         276          1.0000000000
       828       276  TIP3  H2            3.1851680883       -9.5502607745        7.4140760756  CLST         276          1.0000000000
       829       277  TIP3  OH2          -7.0921010699        7.0262354937        2.8361311781  CLST         277          1.0000000000
       830       277  TIP3  H1           -7.7776907415        6.4799402473        2.3704658195  CLST         277          1.0000000000
       831       277  TIP3  H2           -6.5904301105        6.4746300810        2.1801680428  CLST         277          1.0000000000
       832       278  TIP3  OH2           5.2702316146      -10.3386139944       10.1197245144  CLST         278          1.0000000000
       833       278  TIP3  H1            4.8720814020       -9.8133211725        9.4201697533  CLST         278          1.0000000000
       834       278  TIP3  H2            4.8703187861      -10.2096631456       10.9803585506  CLST         278          1.0000000000
       835       279  TIP3  OH2          12.0967663862       -5.7070371087        7.3472888904  CLST         279          1.0000000000
       836       279  TIP3  H1           11.4998786646       -6.1518324618        6.7411772601  CLST         279          1.0000000000
       837       279  TIP3  H2           12.2595480932       -5.0397501679        6.6835509169  CLST         279          1.0000000000
       838       280  TIP3  OH2           7.0030175871       -8.9813647181       13.0085949834  CLST         280          1.0000000000
       839       280  TIP3  H1            7.3073979637       -9.8800510668       12.8536090489  CLST         280          1.0000000000
       840       280  TIP3  H2            7.7811440342       -8.5397784502       12.9172718607  CLST         280          1.0000000000
       841       281  TIP3  OH2          -1.3853741946        4.5471346914       10.7178282877  CLST         281          1.0000000000
       842       281  TIP3  H1           -1.6997910008        3.6476397036       10.8151662466  CLST         281          1.0000000000
       843       281  TIP3  H2           -1.6216200798        4.6570762451       11.6434603273  CLST         281          1.0000000000
       844       282  TIP3  OH2          10.6000611617       10.5586312052      -10.7912834952  CLST         282          1.0000000000
       845       282  TIP3  H1           11.2669338515        9.8965637749      -10.7026441158  CLST         282          1.0000000000
       846       282  TIP3  H2           11.3427024446       11.0920669925      -11.0928222570  CLST         282          1.0000000000
       847       283  TIP3  OH2          -3.1562272355       -4.3228962120       -0.1253201362  CLST         283          1.0000000000
       848       283  TIP3  H1           -4.0014345570       -4.4131190563       -0.6359173909  CLST         283          1.0000000000
       849       283  TIP3  H2           -3.3291295426       -5.0808612350        0.4544843750  CLST         283          1.0000000000
       850       284  TIP3  OH2           4.0096405392       10.7414738482        2.1019709232  CLST         284          1.0000000000
       851       284  TIP3  H1            4.3649971863        9.8480517263        1.9542766478  CLST         284          1.0000000000
       852       284  TIP3  H2            3.5858333858       10.1734393462        2.8415151243  CLST         284          1.0000000000
       853       285  TIP3  OH2         -11.8255775345       -6.0840828299        8.2816623317  CLST         285          1.0000000000
       854       285  TIP3  H1          -11.0335035196       -6.6103733832        8.0591501849  CLST         285          1.0000000000
       855       285  TIP3  H2          -11.9449077254       -6.0282878714        7.2574133100  CLST         285          1.0000000000
       856       286  TIP3  OH2          -2.5794580867       -9.6392849835      -10.5702195958  CLST         286          1.0000000000
       857       286  TIP3  H1           -2.3801061203       -9.5047737487      -11.4748047165  CLST         286          1.0000000000
       858       286  TIP3  H2           -3.4532588448       -9.9982862535      -10.6882501147  CLST         286          1.0000000000
       859       287  TIP3  OH2           2.6105651075       -0.7663880427       -7.8065751960  CLST         287          1.0000000000
       860       287  TIP3  H1            2.3935519148        0.2114267713       -7.8926701876  CLST         287          1.0000000000
       861       287  TIP3  H2            3.4151925760       -0.4037088398       -8.0679206628  CLST         287          1.0000000000
       862       288  TIP3  OH2          13.7973148930      -14.1445087246       -8.3231487453  CLST         288          1.0000000000
       863       288  TIP3  H1           13.4391588823      -13.4020439798       -7.9465431672  CLST         288          1.0000000000
       864       288  TIP3  H2           14.3842493325      -14.3856365598       -7.6394344964  CLST         288          1.0000000000
       865       289  TIP3  OH2          14.1075440674        3.6553710614      -10.2613544507  CLST         289          1.0000000000
       866       289  TIP3  H1           13.6375651349        3.8254942776       -9.4350944461  CLST         289          1.0000000000
       867       289  TIP3  H2           14.8505790810        3.3222507633       -9.8123783915  CLST         289          1.0000000000
       868       290  TIP3  OH2          11.3636858778        1.0368698707       11.9602349957  CLST         290          1.0000000000
       869       290  TIP3  H1           11.1889337119        1.0103841131       12.8589693988  CLST         290          1.0000000000
       870       290  TIP3  H2           11.9671510755        1.7167784289       12.2830071003  CLST         290          1.0000000000
       871       291  TIP3  OH2         -11.2809718434       -9.5892731961       -2.5727621836  CLST         291          1.0000000000
       872       291  TIP3  H1          -10.7637792460      -10.0401724001       -1.8789684686  CLST         291          1.0000000000
       873       291  TIP3  H2          -11.6071096669       -9.1488425800       -1.8395398769  CLST         291          1.0000000000
       874       292  TIP3  OH2           9.1488981384       -1.9432563849      -11.7404314061  CLST         292          1.0000000000
       875       292  TIP3  H1            8.5183418304       -2.7103720050      -11.7019243630  CLST         292          1.0000000000
       876       292  TIP3  H2            9.1732405876       -2.0241357052      -10.8374244929  CLST         292          1.0000000000
       877       293  TIP3  OH2           2.2096249140        2.8536692111      -13.4149722413  CLST         293          1.0000000000
       878       293  TIP3  H1            2.0241337451        3.7865473628      -13.5306746593  CLST         293          1.0000000000
       879       293  TIP3  H2            3.1622436129        3.0283558792      -13.5766590211  CLST         293          1.0000000000
       880       294  TIP3  OH2           1.7085484713        7.8267850312        0.8563608284  CLST         294          1.0000000000
       881       294  TIP3  H1            1.2573257195        7.3669932544        1.8401914897  CLST         294          1.0000000000
       882       294  TIP3  H2            2.0843016132        7.7337209992        1.6226463594  CLST         294          1.0000000000
       883       295  TIP3  OH2           3.7682514175       12.7192313752       -4.4131412436  CLST         295          1.0000000000
       884       295  TIP3  H1            3.0420360648       13.1874330381       -3.9096073328  CLST         295          1.0000000000
       885       295  TIP3  H2            3.9510102228       13.5337319760       -4.8877568151  CLST         295          1.0000000000
       886       296  TIP3  OH2           2.9164375301        5.5138756732      -11.1263201733  CLST         296          1.0000000000
       887       296  TIP3  H1            2.6729477673        5.5692165168      -12.0918302568  CLST         296          1.0000000000
       888       296  TIP3  H2            2.0352270092        5.1713987883      -11.1138921927  CLST         296          1.0000000000
       889       297  TIP3  OH2          13.4256370118        0.1860106298        9.0353860181  CLST         297          1.0000000000
       890       297  TIP3  H1           13.6683059024        1.1360845149        9.1691268455  CLST         297          1.0000000000
       891       297  TIP3  H2           13.9637358872       -0.0111737300        9.8661307584  CLST         297          1.0000000000
       892       298  TIP3  OH2          12.2070807201       -5.2363878914      -12.5513795307  CLST         298          1.0000000000
       893       298  TIP3  H1           11.7642202291       -5.9705147009      -12.9493726243  CLST         298          1.0000000000
       894       298  TIP3  H2           12.9386501613       -5.8559949921      -12.4808219382  CLST         298          1.0000000000
       895       299  TIP3  OH2           3.5625532177       -5.7296041771       -7.4169196152  CLST         299          1.0000000000
       896       299  TIP3  H1            3.1156627111       -4.8561215831       -7.2112162592  CLST         299          1.0000000000
       897       299  TIP3  H2            3.9423618859       -5.5958585715       -6.5383822551  CLST         299          1.0000000000
       898       300  TIP3  OH2          10.4782517926       -6.8126240761      -13.7863045663  CLST         300          1.0000000000
       899       300  TIP3  H1           10.2184656664       -6.3102617135      -14.5554306148  CLST         300          1.0000000000
       900       300  TIP3  H2            9.5186035784       -6.6694003310      -13.5529511084  CLST         300          1.0000000000
       901       301  TIP3  OH2          10.9609177227       -6.8369289467        0.3251733567  CLST         301          1.0000000000
       902       301  TIP3  H1           10.9450910766       -6.5288000382       -0.6156105143  CLST         301          1.0000000000
       903       301  TIP3  H2           10.9846230012       -7.6943525564       -0.1290847425  CLST         301          1.0000000000
       904       302  TIP3  OH2          11.2649704421       -7.0339550919       11.5913124273  CLST         302          1.0000000000
       905       302  TIP3  H1           11.7453877446       -6.4482679148       11.0777635127  CLST         302          1.0000000000
       906       302  TIP3  H2           11.4208927998       -7.8247862314       10.9956581006  CLST         302          1.0000000000
       907       303  TIP3  OH2          -8.6905308516       11.7136550897        7.0457472882  CLST         303          1.0000000000
       908       303  TIP3  H1           -9.2805548597       11.8097649852        6.2519564480  CLST         303          1.0000000000
       909       303  TIP3  H2           -8.3677602447       12.5735213641        6.6360761797  CLST         303          1.0000000000
       910       304  TIP3  OH2          -1.9534039233        8.5724345019       -0.9147511855  CLST         304          1.0000000000
       911       304  TIP3  H1           -2.5179079274        8.1402901703       -0.2762562941  CLST         304          1.0000000000
       912       304  TIP3  H2           -2.5679431518        9.3239765215       -0.9271730012  CLST         304          1.0000000000
       913       305  TIP3  OH2          -2.2599173508       -6.0941180466      -10.5164010306  CLST         305          1.0000000000
       914       305  TIP3  H1           -1.9391450947       -5.4102711316      -10.8870284174  CLST         305          1.0000000000
       915       305  TIP3  H2           -1.3885604658       -6.2368861444      -11.2484302700  CLST         305          1.0000000000
       916       306  TIP3  OH2          -8.4075712229      -14.2375829376       -6.8097028357  CLST         306          1.0000000000
       917       306  TIP3  H1           -7.4954461999      -14.1078068503       -6.9730336109  CLST         306          1.0000000000
       918       306  TIP3  H2           -8.1588463109      -14.0127969834       -5.9017076495  CLST         306          1.0000000000
       919       307  TIP3  OH2           0.6364887575       10.0879758549      -14.1907206805  CLST         307          1.0000000000
       920       307  TIP3  H1            1.6514460566        9.9304891572      -13.7737411082  CLST         307          1.0000000000
       921       307  TIP3  H2            1.2937144269        9.1861314083      -14.3345894252  CLST         307          1.0000000000
       922       308  TIP3  OH2          12.1631358858       -3.1604373575       13.2954213564  CLST         308          1.0000000000
       923       308  TIP3  H1           12.0802009554       -3.1577106826       12.3241970917  CLST         308          1.0000000000
       924       308  TIP3  H2           13.0372627456       -3.6121457976       13.2087706700  CLST         308          1.0000000000
       925       309  TIP3  OH2          12.7578995550       12.5605993700       14.8414147405  CLST         309          1.0000000000
       926       309  TIP3  H1           12.1918080482       11.7922355435       14.6828834081  CLST         309          1.0000000000
       927       309  TIP3  H2           13.3422819526       12.3472160661       14.1254608128  CLST         309          1.0000000000
       928       310  TIP3  OH2           4.5103048223       14.1106029437       -6.6243781071  CLST         310          1.0000000000
       929       310  TIP3  H1            3.8737317899       14.8871165615       -7.2505950060  CLST         310          1.0000000000
       930       310  TIP3  H2            4.0907785853       13.6542051442       -7.3585059941  CLST         310          1.0000000000
       931       311  TIP3  OH2          -5.7174711040        5.9651696166       -5.1191792438  CLST         311          1.0000000000
       932       311  TIP3  H1           -6.7755406699        5.5604512266       -5.2871183267  CLST         311          1.0000000000
       933       311  TIP3  H2           -5.9705396542        5.7137067952       -6.1080087571  CLST         311          1.0000000000
       934       312  TIP3  OH2           5.0389762325       -8.8876549831        7.7129623810  CLST         312          1.0000000000
       935       312  TIP3  H1            4.8467756276       -7.9931010417        8.1350758401  CLST         312          1.0000000000
       936       312  TIP3  H2            5.8998512437       -8.4485502086        7.4000722803  CLST         312          1.0000000000
       937       313  TIP3  OH2          -2.2826575008        7.9792116464       11.1247313084  CLST         313          1.0000000000
       938       313  TIP3  H1           -2.9008269746        8.7928239437       11.1127281559  CLST         313          1.0000000000
       939       313  TIP3  H2           -3.1438410766        7.6259154066       10.7551233536  CLST         313          1.0000000000
       940       314  TIP3  OH2           9.3705132864       -2.4696493013       -1.9452832745  CLST         314          1.0000000000
       941       314  TIP3  H1            9.4777575754       -3.3590110321       -1.6086605808  CLST         314          1.0000000000
       942       314  TIP3  H2            8.6027767417       -2.5164522464       -1.3962258236  CLST         314          1.0000000000
       943       315  TIP3  OH2           4.6150845700        9.9105977145       -2.8200023889  CLST         315          1.0000000000
       944       315  TIP3  H1            3.9098087678        9.3613899786       -2.7222004399  CLST         315          1.0000000000
       945       315  TIP3  H2            4.2830895346       10.6737897082       -2.2992844809  CLST         315          1.0000000000
       946       316  TIP3  OH2          13.9147467471       -6.5486636259       -5.6977256640  CLST         316          1.0000000000
       947       316  TIP3  H1           12.9395304567       -6.4760858547       -5.5799677234  CLST         316          1.0000000000
       948       316  TIP3  H2           14.0285213983       -5.8981858027       -6.3773055947  CLST         316          1.0000000000
       949       317  TIP3  OH2          -3.0294549484      -10.1125923774       -2.8140690174  CLST         317          1.0000000000
       950       317  TIP3  H1           -2.9211587626       -9.9209499966       -3.7571122954  CLST         317          1.0000000000
       951       317  TIP3  H2           -2.3562402807       -9.3605103131       -2.7541893285  CLST         317          1.0000000000
       952       318  TIP3  OH2          -1.3008481261        9.8627654822       -4.9128621624  CLST         318          1.0000000000
       953       318  TIP3  H1           -2.1968768250        9.6121747631       -5.0471502279  CLST         318          1.0000000000
       954       318  TIP3  H2           -1.2246056413       10.6568628755       -5.3197737513  CLST         318          1.0000000000
       955       319  TIP3  OH2           6.1714221626       -7.9347762369       -2.0306667817  CLST         319          1.0000000000
       956       319  TIP3  H1            6.7910518282       -8.1314129506       -2.7619678847  CLST         319          1.0000000000
       957       319  TIP3  H2            6.4583951742       -8.7235431352       -1.6357089908  CLST         319          1.0000000000
       958       320  TIP3  OH2           5.7886673287       12.6098468021      -12.2264950969  CLST         320          1.0000000000
       959       320  TIP3  H1            5.9719097106       12.1523749743      -13.0462030386  CLST         320          1.0000000000
       960       320  TIP3  H2            6.4132678747       11.9609474257      -11.8790921819  CLST         320          1.0000000000
       961       321  TIP3  OH2           1.6276809212      -11.5076963244        9.1919668618  CLST         321          1.0000000000
       962       321  TIP3  H1            1.7548325949      -12.0302825716        9.9993039514  CLST         321          1.0000000000
       963       321  TIP3  H2            1.7310729292      -10.7610360510        9.7439612410  CLST         321          1.0000000000
       964       322  TIP3  OH2           0.9333998090        5.8981615343        9.9833975942  CLST         322          1.0000000000
       965       322  TIP3  H1            0.4214258233        6.4170006433        9.3450959633  CLST         322          1.0000000000
       966       322  TIP3  H2            0.1168417365        5.3876199819       10.2193828661  CLST         322          1.0000000000
       967       323  TIP3  OH2           8.3926541948        3.4280358629       12.8945306620  CLST         323          1.0000000000
       968       323  TIP3  H1            7.9080277770        2.6014913391       12.8616223082  CLST         323          1.0000000000
       969       323  TIP3  H2            8.2278785771        3.2741758919       11.9185789138  CLST         323          1.0000000000
       970       324  TIP3  OH2           6.4033683171        3.0210581117       -1.3182059973  CLST         324          1.0000000000
       971       324  TIP3  H1            6.5327288263        3.9268345369       -1.5712804906  CLST         324          1.0000000000
       972       324  TIP3  H2            5.6098052309        3.0621726634       -1.8842231716  CLST         324          1.0000000000
       973       325  TIP3  OH2         -12.2525655108       -8.6467072796       11.7754376001  CLST         325          1.0000000000
       974       325  TIP3  H1          -12.5860736269       -7.7273024118       11.8438607542  CLST         325          1.0000000000
       975       325  TIP3  H2          -11.4158972377       -8.5101231928       11.3474887678  CLST         325          1.0000000000
       976       326  TIP3  OH2         -12.3249238220        9.1952551060       -5.2871587877  CLST         326          1.0000000000
       977       326  TIP3  H1          -12.1405972093       10.1538145786       -5.2171479709  CLST         326          1.0000000000
       978       326  TIP3  H2          -11.6740475593        9.0498990197       -6.0529996835  CLST         326          1.0000000000
       979       327  TIP3  OH2          12.3522718493       -5.5256835302        9.7659389939  CLST         327          1.0000000000
       980       327  TIP3  H1           12.8452913607       -5.8634271120        8.9245635291  CLST         327          1.0000000000
       981       327  TIP3  H2           12.4597389683       -4.7766862205        8.9002487411  CLST         327          1.0000000000
       982       328  TIP3  OH2         -12.4581776542       -8.1434677163      -12.8703327427  CLST         328          1.0000000000
       983       328  TIP3  H1          -11.7917217873       -7.9974066656      -12.1098080656  CLST         328          1.0000000000
       984       328  TIP3  H2          -11.7550333965       -8.8166447527      -13.0648124775  CLST         328          1.0000000000
       985       329  TIP3  OH2           6.8611931324       -4.4146564692       -1.6821463272  CLST         329          1.0000000000
       986       329  TIP3  H1            7.1120950152       -3.6978113784       -0.9795323460  CLST         329          1.0000000000
       987       329  TIP3  H2            5.9798138509       -4.0056835477       -1.0371689563  CLST         329          1.0000000000
       988       330  TIP3  OH2          12.8864362556        5.8109277897      -14.1860728447  CLST         330          1.0000000000
       989       330  TIP3  H1           13.4974958498        6.0480879712      -14.8934714496  CLST         330          1.0000000000
       990       330  TIP3  H2           13.5035464116        5.8450856676      -13.4867006932  CLST         330          1.0000000000
       991       331  TIP3  OH2          -4.9234225966        0.0119015204        6.2658353155  CLST         331          1.0000000000
       992       331  TIP3  H1           -4.6217360766        0.6091586698        5.5613628123  CLST         331          1.0000000000
       993       331  TIP3  H2           -5.8539188968        0.3018227419        6.2692034023  CLST         331          1.0000000000
       994       332  TIP3  OH2          -8.9586969902        9.0745420066       -1.9188131882  CLST         332          1.0000000000
       995       332  TIP3  H1           -9.6092160315        9.8500460956       -1.8842984892  CLST         332          1.0000000000
       996       332  TIP3  H2           -8.6652737303        9.4666646658       -1.0462748464  CLST         332          1.0000000000
       997       333  TIP3  OH2          -6.8192466051       -8.7693586184       -6.9738991283  CLST         333          1.0000000000
       998       333  TIP3  H1           -7.3118940279       -9.0643636759       -7.7737042422  CLST         333          1.0000000000
       999       333  TIP3  H2           -7.6079192909       -8.2211153165       -6.7562469184  CLST         333          1.0000000000
      1000       334  TIP3  OH2         -10.8652508781        8.1990308314       -9.3068178440  CLST         334          1.0000000000
      1001       334  TIP3  H1          -10.1517158286        8.8481411401       -9.3671184306  CLST         334          1.0000000000
      1002       334  TIP3  H2          -10.4692486174        8.0509547582       -8.4655164693  CLST         334          1.0000000000
      1003       335  TIP3  OH2           1.4245369726        0.1570923157       -1.0267872257  CLST         335          1.0000000000
      1004       335  TIP3  H1            1.1950879071       -0.7294464760       -0.6356653446  CLST         335          1.0000000000
      1005       335  TIP3  H2            0.8612802794       -0.0467119921       -1.8038379480  CLST         335          1.0000000000
      1006       336  TIP3  OH2          11.6880499934        5.4324498031        1.4543199105  CLST         336          1.0000000000
      1007       336  TIP3  H1           11.0966261255        4.6978325363        1.2096359672  CLST         336          1.0000000000
      1008       336  TIP3  H2           10.8722515338        5.9204933202        1.1964702027  CLST         336          1.0000000000
      1009       337  TIP3  OH2           1.8898513373      -14.8820874981        5.3009901980  CLST         337          1.0000000000
      1010       337  TIP3  H1            1.9544628797      -14.0280208653        5.6308226692  CLST         337          1.0000000000
      1011       337  TIP3  H2            1.6795195899      -14.4559243245        4.3845573629  CLST         337          1.0000000000
      1012       338  TIP3  OH2          -4.3813183953        2.7880549669      -11.5354483382  CLST         338          1.0000000000
      1013       338  TIP3  H1           -5.2560078326        2.7678714866      -12.2848948319  CLST         338          1.0000000000
      1014       338  TIP3  H2           -4.6948536258        1.9984676424      -12.2411887119  CLST         338          1.0000000000
      1015       339  TIP3  OH2           4.9055140447        1.9595431180       -7.8218786601  CLST         339          1.0000000000
      1016       339  TIP3  H1            4.0779905342        1.9532397859       -7.6893549056  CLST         339          1.0000000000
      1017       339  TIP3  H2            4.0856545811        2.4394281940       -8.5379202876  CLST         339          1.0000000000
      1018       340  TIP3  OH2         -10.6946220056       11.8707225774       -8.9376633213  CLST         340          1.0000000000
      1019       340  TIP3  H1          -11.6096216307       11.6394132543       -8.9886459537  CLST         340          1.0000000000
      1020       340  TIP3  H2          -10.7813512056       12.6070736893       -8.3070186177  CLST         340          1.0000000000
      1021       341  TIP3  OH2          -1.8943813007       13.9039481682       -0.6025109641  CLST         341          1.0000000000
      1022       341  TIP3  H1           -1.2674175579       13.3503349454       -1.0830276836  CLST         341          1.0000000000
      1023       341  TIP3  H2           -2.5493470492       13.6093073411       -1.2878608925  CLST         341          1.0000000000
      1024       342  TIP3  OH2         -11.7819854851        3.5833980488        9.6613029316  CLST         342          1.0000000000
      1025       342  TIP3  H1          -12.4008443627        3.0201766919       10.2175972189  CLST         342          1.0000000000
      1026       342  TIP3  H2          -11.2271909281        3.6575532919       10.3894809911  CLST         342          1.0000000000
      1027       343  TIP3  OH2          -0.7624354308       -1.5526350989      -13.9554335954  CLST         343          1.0000000000
      1028       343  TIP3  H1           -1.3207162402       -0.7622439835      -14.1407559152  CLST         343          1.0000000000
      1029       343  TIP3  H2           -1.0172405052       -1.7608420717      -14.8934714496  CLST         343          1.0000000000
      1030       344  TIP3  OH2           8.8373659881        4.1255728534        4.3167775479  CLST         344          1.0000000000
      1031       344  TIP3  H1            8.8229050334        5.1160330770        4.3747276580  CLST         344          1.0000000000
      1032       344  TIP3  H2            7.9007701060        4.2445486359        4.6570963389  CLST         344          1.0000000000
      1033       345  TIP3  OH2           0.2394823040        9.7978188909       -0.2138153877  CLST         345          1.0000000000
      1034       345  TIP3  H1            0.8261595711        9.1889237603        0.2641389673  CLST         345          1.0000000000
      1035       345  TIP3  H2           -0.3745661623        9.0450208849       -0.2282465736  CLST         345          1.0000000000
      1036       346  TIP3  OH2          -4.7711578675      -14.8904808365        6.4683112759  CLST         346          1.0000000000
      1037       346  TIP3  H1           -5.0653540474      -13.9305280841        6.0412950920  CLST         346          1.0000000000
      1038       346  TIP3  H2           -4.5288830076      -13.9041814615        6.8408640531  CLST         346          1.0000000000
      1039       347  TIP3  OH2         -13.8206143521      -11.7387330394       -1.7766273413  CLST         347          1.0000000000
      1040       347  TIP3  H1          -14.3483920951      -11.3019143295       -2.3860379901  CLST         347          1.0000000000
      1041       347  TIP3  H2          -13.7407445288      -11.0720959799       -1.1365867093  CLST         347          1.0000000000
      1042       348  TIP3  OH2           4.2847990870        7.7485004170       -7.2968192723  CLST         348          1.0000000000
      1043       348  TIP3  H1            5.4287603097        7.7898581760       -7.0699990511  CLST         348          1.0000000000
      1044       348  TIP3  H2            4.6766074428        7.6896114190       -6.2351632080  CLST         348          1.0000000000
      1045       349  TIP3  OH2           8.2165855999        9.8075712185        2.8927705161  CLST         349          1.0000000000
      1046       349  TIP3  H1            8.4306817402        9.8328227338        1.9634166103  CLST         349          1.0000000000
      1047       349  TIP3  H2            7.4674197471        9.2934593436        2.4726838636  CLST         349          1.0000000000
      1048       350  TIP3  OH2          -8.7002130995        1.1269515918      -14.4170311371  CLST         350          1.0000000000
      1049       350  TIP3  H1           -9.1123872518        0.2936039267      -14.2204952592  CLST         350          1.0000000000
      1050       350  TIP3  H2           -9.6519548387        1.3828598979      -14.5985549013  CLST         350          1.0000000000
      1051       351  TIP3  OH2          10.2586614186        3.3657608121        6.1943648000  CLST         351          1.0000000000
      1052       351  TIP3  H1           10.5374287775        4.0713605005        5.6197200001  CLST         351          1.0000000000
      1053       351  TIP3  H2           10.1874357260        3.1346039704        5.0702758502  CLST         351          1.0000000000
      1054       352  TIP3  OH2           5.1160128289       -0.6770551928       -8.2181734687  CLST         352          1.0000000000
      1055       352  TIP3  H1            5.7531366885       -0.8196674855       -7.4616399387  CLST         352          1.0000000000
      1056       352  TIP3  H2            5.3728633775        0.2706697191       -8.0516206662  CLST         352          1.0000000000
      1057       353  TIP3  OH2          -1.5705587738        9.8462171186      -12.7462190534  CLST         353          1.0000000000
      1058       353  TIP3  H1           -0.8319567571       10.2881411303      -13.2296743476  CLST         353          1.0000000000
      1059       353  TIP3  H2           -1.2522704360        9.0135876066      -13.1686643855  CLST         353          1.0000000000
      1060       354  TIP3  OH2         -11.7850749376      -10.6478558791      -14.0514217358  CLST         354          1.0000000000
      1061       354  TIP3  H1          -12.4577160153      -10.6666335318      -14.7750375085  CLST         354          1.0000000000
      1062       354  TIP3  H2          -11.2582143554      -10.7833241700      -14.8934714496  CLST         354          1.0000000000
      1063       355  TIP3  OH2           1.8136839953      -13.5524887986       -9.7592694119  CLST         355          1.0000000000
      1064       355  TIP3  H1            1.9643959213      -13.2649823273       -8.8240005918  CLST         355          1.0000000000
      1065       355  TIP3  H2            1.3290953226      -12.8685687049       -9.6963788812  CLST         355          1.0000000000
      1066       356  TIP3  OH2         -12.8971021419       -5.1377983677       -3.1291093897  CLST         356          1.0000000000
      1067       356  TIP3  H1          -13.1259540053       -5.9671575535       -3.5142239718  CLST         356          1.0000000000
      1068       356  TIP3  H2          -12.8941119686       -4.7907527390       -3.9889524610  CLST         356          1.0000000000
      1069       357  TIP3  OH2          -6.6384988841       -9.7793114386        5.0215939632  CLST         357          1.0000000000
      1070       357  TIP3  H1           -5.7094168398       -9.7898437904        4.8417896631  CLST         357          1.0000000000
      1071       357  TIP3  H2           -6.6086899404       -8.9325192035        4.5215844850  CLST         357          1.0000000000
      1072       358  TIP3  OH2          -2.3350628869       -7.5734913729        3.9463469118  CLST         358          1.0000000000
      1073       358  TIP3  H1           -1.3501078798       -7.6321424806        3.9732935027  CLST         358          1.0000000000
      1074       358  TIP3  H2           -2.2578455393       -7.4906125835        4.9278942409  CLST         358          1.0000000000
      1075       359  TIP3  OH2          10.3091595741       10.0988609840       -1.5496996128  CLST         359          1.0000000000
      1076       359  TIP3  H1           10.0069232184       10.3363595002       -0.6560764060  CLST         359          1.0000000000
      1077       359  TIP3  H2           11.0150467231       10.7867594037       -1.7034907696  CLST         359          1.0000000000
      1078       360  TIP3  OH2           7.7046411408       12.8749179659       12.5956922978  CLST         360          1.0000000000
      1079       360  TIP3  H1            8.5516353875       13.1961710104       12.2199394187  CLST         360          1.0000000000
      1080       360  TIP3  H2            7.2298992327       12.8462549100       11.7329532365  CLST         360          1.0000000000
      1081       361  TIP3  OH2          -6.0663709232      -11.0310994131       10.5826588077  CLST         361          1.0000000000
      1082       361  TIP3  H1           -6.3113221198      -11.7127820612        9.9651787635  CLST         361          1.0000000000
      1083       361  TIP3  H2           -5.9907232078      -11.7837985069       11.2131495561  CLST         361          1.0000000000
      1084       362  TIP3  OH2           4.4895769047       -3.2121300692       10.4473857290  CLST         362          1.0000000000
      1085       362  TIP3  H1            5.0587964507       -2.9789669640        9.6567178952  CLST         362          1.0000000000
      1086       362  TIP3  H2            5.3335814236       -3.6389654295       10.7390304552  CLST         362          1.0000000000
      1087       363  TIP3  OH2           4.9127955213       -4.5053678916       13.9986222254  CLST         363          1.0000000000
      1088       363  TIP3  H1            4.5937491571       -4.5118261056       14.8916075649  CLST         363          1.0000000000
      1089       363  TIP3  H2            5.8259656279       -4.3541093965       14.2991645203  CLST         363          1.0000000000
      1090       364  TIP3  OH2          -1.2962377493        4.9349785595       13.4560332868  CLST         364          1.0000000000
      1091       364  TIP3  H1           -0.4112109248        4.7093339786       13.8141340281  CLST         364          1.0000000000
      1092       364  TIP3  H2           -1.0969590803        5.8784287703       13.4378227669  CLST         364          1.0000000000
      1093       365  TIP3  OH2          -7.7214325257        4.8104460795      -11.8616322856  CLST         365          1.0000000000
      1094       365  TIP3  H1           -8.0056084865        5.2104975959      -10.9615280355  CLST         365          1.0000000000
      1095       365  TIP3  H2           -6.8624553110        5.1105643574      -11.4327021052  CLST         365          1.0000000000
      1096       366  TIP3  OH2         -10.1771319496       -2.6578359245        0.5483422599  CLST         366          1.0000000000
      1097       366  TIP3  H1          -11.0955834105       -2.8774856864       -0.0138319904  CLST         366          1.0000000000
      1098       366  TIP3  H2          -10.4806465794       -2.1481015207       -0.5068727916  CLST         366          1.0000000000
      1099       367  TIP3  OH2          13.7308610420       10.5901352712       11.9990115251  CLST         367          1.0000000000
      1100       367  TIP3  H1           13.5219548486       11.3630026773       11.4464200373  CLST         367          1.0000000000
      1101       367  TIP3  H2           12.9671862734       10.8267592404       12.1619968615  CLST         367          1.0000000000
      1102       368  TIP3  OH2          -9.4794158140       -1.0237607523       12.8589379411  CLST         368          1.0000000000
      1103       368  TIP3  H1          -10.4665792380       -1.0068306366       12.8104882472  CLST         368          1.0000000000
      1104       368  TIP3  H2           -9.4928128354       -1.9847260032       12.9754600068  CLST         368          1.0000000000
      1105       369  TIP3  OH2           7.7165062991        9.7280101301       -2.2023721111  CLST         369          1.0000000000
      1106       369  TIP3  H1            8.6634812626        9.8960693679       -2.2229885857  CLST         369          1.0000000000
      1107       369  TIP3  H2            7.8706081240        8.9695390048       -1.6922695768  CLST         369          1.0000000000
      1108       370  TIP3  OH2          -6.9650887623      -12.5534606415       -0.8715211468  CLST         370          1.0000000000
      1109       370  TIP3  H1           -6.0140781259      -12.9020301438       -0.6798405807  CLST         370          1.0000000000
      1110       370  TIP3  H2           -7.0666328996      -12.8798666079        0.0757740497  CLST         370          1.0000000000
      1111       371  TIP3  OH2           8.6531462604       12.1082831476        9.7263818189  CLST         371          1.0000000000
      1112       371  TIP3  H1            8.6211558239       11.4680929128        9.0146213268  CLST         371          1.0000000000
      1113       371  TIP3  H2            7.7454610472       12.4053526631        9.8424789419  CLST         371          1.0000000000
      1114       372  TIP3  OH2          -1.0559397698       11.6146539119       -1.7579465578  CLST         372          1.0000000000
      1115       372  TIP3  H1           -1.7264743213       10.9294094691       -1.9161222635  CLST         372          1.0000000000
      1116       372  TIP3  H2           -0.6933083750       11.0240996885       -1.1406820121  CLST         372          1.0000000000
      1117       373  TIP3  OH2           8.7121198210       -5.3920640481        8.6010109368  CLST         373          1.0000000000
      1118       373  TIP3  H1            8.8777416977       -6.3005617253        8.8527178772  CLST         373          1.0000000000
      1119       373  TIP3  H2            9.5337001054       -5.5469596001        8.1065151508  CLST         373          1.0000000000
      1120       374  TIP3  OH2          11.2943521567      -10.2697261988       -4.7667111833  CLST         374          1.0000000000
      1121       374  TIP3  H1           10.7689705890      -10.5245251135       -3.9730920108  CLST         374          1.0000000000
      1122       374  TIP3  H2           11.0085273455      -11.0680827826       -5.1946556456  CLST         374          1.0000000000
      1123       375  TIP3  OH2           1.5868528441       13.4738748531       -2.8254484249  CLST         375          1.0000000000
      1124       375  TIP3  H1            0.7243110285       13.6710628046       -2.1554844711  CLST         375          1.0000000000
      1125       375  TIP3  H2            0.8421989135       13.6429538643       -3.2019859198  CLST         375          1.0000000000
      1126       376  TIP3  OH2          11.0177612793        4.0984139058       -8.8650063191  CLST         376          1.0000000000
      1127       376  TIP3  H1           10.1000815972        4.3877559117       -8.6661557642  CLST         376          1.0000000000
      1128       376  TIP3  H2           11.0969979633        4.7635215651       -9.6283136702  CLST         376          1.0000000000
      1129       377  TIP3  OH2           7.9708246723       11.0764986629      -11.8604232510  CLST         377          1.0000000000
      1130       377  TIP3  H1            8.8011783435       11.0142047595      -12.6477379136  CLST         377          1.0000000000
      1131       377  TIP3  H2            8.9594566126       10.6133483947      -11.7336736625  CLST         377          1.0000000000
      1132       378  TIP3  OH2           6.4183225926        9.5785620567        7.5034811198  CLST         378          1.0000000000
      1133       378  TIP3  H1            6.7599192095        8.5743656363        8.0763848761  CLST         378          1.0000000000
      1134       378  TIP3  H2            5.6822798686        9.4411525029        8.1200194272  CLST         378          1.0000000000
      1135       379  TIP3  OH2          -6.9644171301      -10.4687701804       -2.1537292831  CLST         379          1.0000000000
      1136       379  TIP3  H1           -6.3226585434      -10.5989005492       -2.8938196398  CLST         379          1.0000000000
      1137       379  TIP3  H2           -7.1622010531      -11.4297922519       -2.4007436810  CLST         379          1.0000000000
      1138       380  TIP3  OH2           7.6058003000       11.3921551049        4.9911637243  CLST         380          1.0000000000
      1139       380  TIP3  H1            6.6929230885       11.5728116905        4.7898996003  CLST         380          1.0000000000
      1140       380  TIP3  H2            7.4558073922       10.8896930553        4.1968313626  CLST         380          1.0000000000
      1141       381  TIP3  OH2          -7.5295137132       -6.3488428297      -10.3897122563  CLST         381          1.0000000000
      1142       381  TIP3  H1           -7.8624969278       -5.7142842287      -10.9326660372  CLST         381          1.0000000000
      1143       381  TIP3  H2           -6.6466051294       -6.4268842653      -10.7576899212  CLST         381          1.0000000000
      1144       382  TIP3  OH2          -3.4792405563        2.6225254480       -2.0162377785  CLST         382          1.0000000000
      1145       382  TIP3  H1           -4.1757342889        2.9409766188       -2.6502363970  CLST         382          1.0000000000
      1146       382  TIP3  H2           -3.7079157987        1.7945490551       -2.5446597152  CLST         382          1.0000000000
      1147       383  TIP3  OH2          -7.5377133492       -9.4484943689        8.3996881724  CLST         383          1.0000000000
      1148       383  TIP3  H1           -6.5941776754       -9.5063503646        8.6125173255  CLST         383          1.0000000000
      1149       383  TIP3  H2           -7.3170757944      -10.1510584130        7.7914687832  CLST         383          1.0000000000
      1150       384  TIP3  OH2         -11.9091742552       -5.1724995854       13.3080179297  CLST         384          1.0000000000
      1151       384  TIP3  H1          -11.5878898332       -6.0380214848       13.3360909245  CLST         384          1.0000000000
      1152       384  TIP3  H2          -12.4512297994       -5.3818751624       12.6083519187  CLST         384          1.0000000000
      1153       385  TIP3  OH2           8.0826894643        0.4951536279        9.1895956663  CLST         385          1.0000000000
      1154       385  TIP3  H1            8.1485211639        1.1534290013       10.1331518182  CLST         385          1.0000000000
      1155       385  TIP3  H2            8.6768016189        0.3549313270        9.8154560435  CLST         385          1.0000000000
      1156       386  TIP3  OH2         -12.6015115109       -8.8825550737        8.3005738448  CLST         386          1.0000000000
      1157       386  TIP3  H1          -12.7046541906       -7.9409460783        8.3393660919  CLST         386          1.0000000000
      1158       386  TIP3  H2          -12.4375560590       -8.9653469383        9.2261446797  CLST         386          1.0000000000
      1159       387  TIP3  OH2          -1.0268338899      -12.6520736139       -1.0745009771  CLST         387          1.0000000000
      1160       387  TIP3  H1           -1.0229590969      -12.9909471128       -0.1353725932  CLST         387          1.0000000000
      1161       387  TIP3  H2           -1.6088201740      -12.1424836481       -0.4790590669  CLST         387          1.0000000000
      1162       388  TIP3  OH2           3.2737380385        7.2261266455        7.1430745491  CLST         388          1.0000000000
      1163       388  TIP3  H1            2.8543288105        7.3773711368        6.2217444638  CLST         388          1.0000000000
      1164       388  TIP3  H2            3.9491767975        6.9111571203        6.5779611759  CLST         388          1.0000000000
      1165       389  TIP3  OH2          -3.7787095428      -10.9250871790       -0.2130384423  CLST         389          1.0000000000
      1166       389  TIP3  H1           -4.5768714082      -10.3419854402       -0.2715614451  CLST         389          1.0000000000
      1167       389  TIP3  H2           -3.7361458873      -10.6392486280       -1.1716049767  CLST         389          1.0000000000
      1168       390  TIP3  OH2          -1.1566067361        4.9623212943        4.7212171130  CLST         390          1.0000000000
      1169       390  TIP3  H1           -0.1907221190        4.4787653603        5.0831237626  CLST         390          1.0000000000
      1170       390  TIP3  H2           -0.8532019528        3.8930036471        4.5904478561  CLST         390          1.0000000000
      1171       391  TIP3  OH2          -6.2192700476       -4.8439058968        1.6305017517  CLST         391          1.0000000000
      1172       391  TIP3  H1           -6.3038440606       -4.1435065541        0.9640573644  CLST         391          1.0000000000
      1173       391  TIP3  H2           -7.1700112250       -4.6434510507        1.7699642192  CLST         391          1.0000000000
      1174       392  TIP3  OH2           4.8595700581        9.2297225760       -5.4367845944  CLST         392          1.0000000000
      1175       392  TIP3  H1            5.6114236946        8.7511168252       -5.0653652180  CLST         392          1.0000000000
      1176       392  TIP3  H2            4.6823665858        9.3945448747       -4.5340269331  CLST         392          1.0000000000
      1177       393  TIP3  OH2          13.3299937994       11.1661677001       -7.9703893399  CLST         393          1.0000000000
      1178       393  TIP3  H1           13.1472394435       10.2336633017       -8.2692960988  CLST         393          1.0000000000
      1179       393  TIP3  H2           12.6925233299       10.8957146686       -7.2114723518  CLST         393          1.0000000000
      1180       394  TIP3  OH2           1.3480254397        6.8761500989        5.3588733038  CLST         394          1.0000000000
      1181       394  TIP3  H1            0.9432541141        7.0527106296        4.4772228258  CLST         394          1.0000000000
      1182       394  TIP3  H2            1.6526895519        6.1362986785        4.7835694145  CLST         394          1.0000000000
      1183       395  TIP3  OH2          -6.0864231717        7.1540187232       -0.0257696566  CLST         395          1.0000000000
      1184       395  TIP3  H1           -5.1526933883        6.6112419434        0.4732899452  CLST         395          1.0000000000
      1185       395  TIP3  H2           -5.2391443246        7.5540417694        0.2031238246  CLST         395          1.0000000000
      1186       396  TIP3  OH2          -3.5440536355        9.3267426881       -2.4181606558  CLST         396          1.0000000000
      1187       396  TIP3  H1           -3.1982204037        8.4886885755       -2.6416822067  CLST         396          1.0000000000
      1188       396  TIP3  H2           -4.2263372202        9.2042577346       -3.0652977618  CLST         396          1.0000000000
      1189       397  TIP3  OH2           2.5770551991      -12.8982453971      -13.7135165057  CLST         397          1.0000000000
      1190       397  TIP3  H1            2.0163234767      -12.1689962755      -13.7364548607  CLST         397          1.0000000000
      1191       397  TIP3  H2            3.0089507857      -12.3681393291      -13.0123944467  CLST         397          1.0000000000
      1192       398  TIP3  OH2           8.9173394008       -4.3351795514        1.0303546692  CLST         398          1.0000000000
      1193       398  TIP3  H1            9.7890883129       -5.1422125072        0.7120555428  CLST         398          1.0000000000
      1194       398  TIP3  H2            8.8014004048       -5.2171409469        0.3389293698  CLST         398          1.0000000000
      1195       399  TIP3  OH2         -14.1827229236       -2.7043316975       13.1792690949  CLST         399          1.0000000000
      1196       399  TIP3  H1          -14.7628555378       -3.3591180365       13.5999925836  CLST         399          1.0000000000
      1197       399  TIP3  H2          -13.4030894185       -2.7014925690       13.7015870837  CLST         399          1.0000000000
      1198       400  TIP3  OH2         -13.2517804468        8.7829577156        4.2954524078  CLST         400          1.0000000000
      1199       400  TIP3  H1          -13.6352841588        9.3274203094        5.0113847511  CLST         400          1.0000000000
      1200       400  TIP3  H2          -13.4006594723        8.0948986214        4.9667978041  CLST         400          1.0000000000
      1201       401  TIP3  OH2           1.5755063378        5.5236567332      -13.6232458595  CLST         401          1.0000000000
      1202       401  TIP3  H1            1.5744052482        5.3230549457      -14.6013738517  CLST         401          1.0000000000
      1203       401  TIP3  H2            0.7927726829        6.1186652690      -13.7534575536  CLST         401          1.0000000000
      1204       402  TIP3  OH2          14.3452749084       -4.9132066870       14.2565982245  CLST         402          1.0000000000
      1205       402  TIP3  H1           13.8471132187       -5.8077649889       14.2022940738  CLST         402          1.0000000000
      1206       402  TIP3  H2           14.8804722599       -5.4382552747       14.8934714496  CLST         402          1.0000000000
      1207       403  TIP3  OH2         -13.1442142064       12.0987067203       -2.4539158746  CLST         403          1.0000000000
      1208       403  TIP3  H1          -13.4520919295       11.1928187571       -2.5675174235  CLST         403          1.0000000000
      1209       403  TIP3  H2          -13.1231110290       12.2055394469       -3.5180891228  CLST         403          1.0000000000
      1210       404  TIP3  OH2           5.3274238034       -3.2496415170        0.3871010581  CLST         404          1.0000000000
      1211       404  TIP3  H1            4.4918553614       -2.9271567476        0.7750257952  CLST         404          1.0000000000
      1212       404  TIP3  H2            5.4418968704       -3.5284427457        1.3091461181  CLST         404          1.0000000000
      1213       405  TIP3  OH2           2.4262552180        8.3868251595       -2.9978388193  CLST         405          1.0000000000
      1214       405  TIP3  H1            1.9659640891        9.2062607478       -2.7349427736  CLST         405          1.0000000000
      1215       405  TIP3  H2            1.5553738684        7.9516457667       -2.9210478270  CLST         405          1.0000000000
      1216       406  TIP3  OH2          -9.1769968204       -2.5001645263       -7.5239810479  CLST         406          1.0000000000
      1217       406  TIP3  H1           -8.7436922997       -1.6633220934       -7.2970897994  CLST         406          1.0000000000
      1218       406  TIP3  H2          -10.0089734189       -2.0140061008       -7.3805920577  CLST         406          1.0000000000
      1219       407  TIP3  OH2           5.3656806286        5.5810696310        4.9326331409  CLST         407          1.0000000000
      1220       407  TIP3  H1            6.1880210503        5.4862300483        5.5135329191  CLST         407          1.0000000000
      1221       407  TIP3  H2            6.0745578041        5.8205464266        4.3793542509  CLST         407          1.0000000000
      1222       408  TIP3  OH2         -13.8871431700       -4.7150191061       -5.4645860041  CLST         408          1.0000000000
      1223       408  TIP3  H1          -13.9979586142       -3.7686645790       -5.5531093620  CLST         408          1.0000000000
      1224       408  TIP3  H2          -14.0742152490       -4.9151337665       -6.4026402271  CLST         408          1.0000000000
      1225       409  TIP3  OH2          -2.0982781591      -12.7875744979        1.3834611684  CLST         409          1.0000000000
      1226       409  TIP3  H1           -2.7187973541      -13.0493943440        2.0803272397  CLST         409          1.0000000000
      1227       409  TIP3  H2           -1.4874179415      -12.2025197786        1.9909275819  CLST         409          1.0000000000
      1228       410  TIP3  OH2          12.0680123775       -2.4038745713       10.5231190378  CLST         410          1.0000000000
      1229       410  TIP3  H1           11.8336314445       -1.7913249315        9.7725211110  CLST         410          1.0000000000
      1230       410  TIP3  H2           12.3960377992       -2.8768409055        9.7168694040  CLST         410          1.0000000000
      1231       411  TIP3  OH2           8.3323258496      -13.4467664557       -2.5277093502  CLST         411          1.0000000000
      1232       411  TIP3  H1            8.3981202077      -13.5973359215       -1.6085943831  CLST         411          1.0000000000
      1233       411  TIP3  H2            7.8813032034      -14.2647634953       -2.7382838156  CLST         411          1.0000000000
      1234       412  TIP3  OH2          13.2680605195       -4.8022256675       -7.5824868888  CLST         412          1.0000000000
      1235       412  TIP3  H1           12.8841049379       -4.4880178643       -8.4129016749  CLST         412          1.0000000000
      1236       412  TIP3  H2           12.6699987040       -4.2338972829       -7.0981025595  CLST         412          1.0000000000
      1237       413  TIP3  OH2           7.3259568089        8.3954211886       -5.1844108616  CLST         413          1.0000000000
      1238       413  TIP3  H1            7.5734679277        8.2444016562       -4.2847809183  CLST         413          1.0000000000
      1239       413  TIP3  H2            8.2168104740        8.5567629278       -5.4900838574  CLST         413          1.0000000000
      1240       414  TIP3  OH2          -9.1492170799       -5.1724763318      -11.9593382846  CLST         414          1.0000000000
      1241       414  TIP3  H1           -8.7481819237       -4.2193360968      -12.0191164087  CLST         414          1.0000000000
      1242       414  TIP3  H2           -9.8287622189       -4.5348222810      -11.5446544802  CLST         414          1.0000000000
      1243       415  TIP3  OH2         -14.4060024340        0.7491934750        5.1318643047  CLST         415          1.0000000000
      1244       415  TIP3  H1          -14.3544131433        1.6732223391        5.2624781479  CLST         415          1.0000000000
      1245       415  TIP3  H2          -13.7691044801        0.4137517855        5.7515931129  CLST         415          1.0000000000
      1246       416  TIP3  OH2          11.5812901306       12.4668433877       -2.0919571780  CLST         416          1.0000000000
      1247       416  TIP3  H1           11.9977883837       12.4715883344       -3.0171720940  CLST         416          1.0000000000
      1248       416  TIP3  H2           10.8541938407       12.8294057630       -2.7459214100  CLST         416          1.0000000000
      1249       417  TIP3  OH2          10.6289221545      -12.7106095412       -5.2505857985  CLST         417          1.0000000000
      1250       417  TIP3  H1           10.4055206795      -13.3548463887       -4.6773121512  CLST         417          1.0000000000
      1251       417  TIP3  H2            9.8954244701      -12.7293419906       -5.8518622289  CLST         417          1.0000000000
      1252       418  TIP3  OH2          -1.7238728785        5.3200510631        0.9725621541  CLST         418          1.0000000000
      1253       418  TIP3  H1           -2.1327439134        5.4720343668        0.1002456287  CLST         418          1.0000000000
      1254       418  TIP3  H2           -2.4045623766        4.5801089738        0.9504168604  CLST         418          1.0000000000
      1255       419  TIP3  OH2          -8.1714254871        9.2976429982        8.0845237876  CLST         419          1.0000000000
      1256       419  TIP3  H1           -7.9453483117       10.3578066185        7.6850297240  CLST         419          1.0000000000
      1257       419  TIP3  H2           -8.9344155910        9.7939365462        7.9582230342  CLST         419          1.0000000000
      1258       420  TIP3  OH2           3.1544405598        9.2330412631      -14.0926361422  CLST         420          1.0000000000
      1259       420  TIP3  H1            3.8653582723        9.0167818809      -13.4583113849  CLST         420          1.0000000000
      1260       420  TIP3  H2            3.5247324278        8.4135262271      -14.5057579968  CLST         420          1.0000000000
      1261       421  TIP3  OH2          -3.7858343835        7.1095521369       -3.6173914315  CLST         421          1.0000000000
      1262       421  TIP3  H1           -4.5754330849        6.5373788198       -3.8778515131  CLST         421          1.0000000000
      1263       421  TIP3  H2           -3.7188114000        6.3681031130       -2.9769229777  CLST         421          1.0000000000
      1264       422  TIP3  OH2           3.1127440294      -10.4733645848       -2.5798280284  CLST         422          1.0000000000
      1265       422  TIP3  H1            2.2855251485      -10.8663676883       -2.1505017950  CLST         422          1.0000000000
      1266       422  TIP3  H2            3.3523297100      -10.4531605462       -1.6000978893  CLST         422          1.0000000000
      1267       423  TIP3  OH2          -5.3391392372        5.2353331556        1.7116074370  CLST         423          1.0000000000
      1268       423  TIP3  H1           -4.7142985081        4.4639804312        1.6413976645  CLST         423          1.0000000000
      1269       423  TIP3  H2           -4.7256238531        5.2524999614        2.4923552237  CLST         423          1.0000000000
      1270       424  TIP3  OH2          -9.4016071849        8.5260816144        4.6217322007  CLST         424          1.0000000000
      1271       424  TIP3  H1           -9.3622233502        8.8915034893        3.6033427513  CLST         424          1.0000000000
      1272       424  TIP3  H2          -10.1175061790        8.3127640765        3.6858122420  CLST         424          1.0000000000
      1273       425  TIP3  OH2          -9.8078870957        2.4903878781       -9.0668170323  CLST         425          1.0000000000
      1274       425  TIP3  H1          -10.1376141438        1.5637733602       -9.0866029893  CLST         425          1.0000000000
      1275       425  TIP3  H2          -10.7637650054        2.6988504562       -8.9719308198  CLST         425          1.0000000000
      1276       426  TIP3  OH2          -1.4822472673       -9.0386075818       -4.2990748738  CLST         426          1.0000000000
      1277       426  TIP3  H1           -0.4744961677       -9.1778725984       -4.4601857115  CLST         426          1.0000000000
      1278       426  TIP3  H2           -1.3802828603       -9.0279397396       -5.3062459485  CLST         426          1.0000000000
      1279       427  TIP3  OH2         -10.0805880230        2.1996953847        5.2988907373  CLST         427          1.0000000000
      1280       427  TIP3  H1          -10.0434318834        3.1743218909        5.4837567249  CLST         427          1.0000000000
      1281       427  TIP3  H2          -10.9176074948        2.0901190026        5.7773242360  CLST         427          1.0000000000
      1282       428  TIP3  OH2          -6.6601855264       13.5931054201        6.8165714751  CLST         428          1.0000000000
      1283       428  TIP3  H1           -6.0897034197       14.2929505668        6.5722951414  CLST         428          1.0000000000
      1284       428  TIP3  H2           -6.4248584535       13.0205939739        6.1055352760  CLST         428          1.0000000000
      1285       429  TIP3  OH2           0.4183401067      -11.6079849160      -10.6912968344  CLST         429          1.0000000000
      1286       429  TIP3  H1           -0.0041638081      -12.4419016083      -11.0671951249  CLST         429          1.0000000000
      1287       429  TIP3  H2           -0.5835394906      -11.9653000255      -10.2537741355  CLST         429          1.0000000000
      1288       430  TIP3  OH2           0.4651497129       10.2776674477       10.0156236081  CLST         430          1.0000000000
      1289       430  TIP3  H1            0.0047794636       10.8534498002       10.6922659835  CLST         430          1.0000000000
      1290       430  TIP3  H2            0.8680790462        9.9766848446       10.8719932752  CLST         430          1.0000000000
      1291       431  TIP3  OH2          -6.2949456739       -3.7970801531       -4.0128943457  CLST         431          1.0000000000
      1292       431  TIP3  H1           -5.9743721983       -3.4972757373       -4.9182199033  CLST         431          1.0000000000
      1293       431  TIP3  H2           -6.7504969922       -4.4071871548       -4.5967609836  CLST         431          1.0000000000
      1294       432  TIP3  OH2          -5.4158966871        3.5522826987       -3.6937777164  CLST         432          1.0000000000
      1295       432  TIP3  H1           -6.5522067171        3.6995704160       -3.5332665379  CLST         432          1.0000000000
      1296       432  TIP3  H2           -5.9682415347        4.4925652650       -3.7319574932  CLST         432          1.0000000000
      1297       433  TIP3  OH2          -8.9296951126        3.0747857276       10.5740077776  CLST         433          1.0000000000
      1298       433  TIP3  H1           -8.0665067236        3.5271950196       10.5988891785  CLST         433          1.0000000000
      1299       433  TIP3  H2           -9.2182903448        3.7349357082       11.1437564394  CLST         433          1.0000000000
      1300       434  TIP3  OH2           0.8443782886       -4.2585789390        9.6886049294  CLST         434          1.0000000000
      1301       434  TIP3  H1           -0.0230812998       -4.1001853745       10.1328722610  CLST         434          1.0000000000
      1302       434  TIP3  H2            1.1959981417       -3.3561112829        9.7845579569  CLST         434          1.0000000000
      1303       435  TIP3  OH2           7.4385324519       -8.3963933878        6.3578610001  CLST         435          1.0000000000
      1304       435  TIP3  H1            7.9717806441       -8.4935898801        5.6631194920  CLST         435          1.0000000000
      1305       435  TIP3  H2            7.1755611892       -8.0659835112        5.2585203974  CLST         435          1.0000000000
      1306       436  TIP3  OH2          -6.9491509864       13.9152416334       -1.8932151297  CLST         436          1.0000000000
      1307       436  TIP3  H1           -6.5220848758       14.7331649962       -1.6693681312  CLST         436          1.0000000000
      1308       436  TIP3  H2           -7.2951357076       13.9694984689       -1.0188464444  CLST         436          1.0000000000
      1309       437  TIP3  OH2          -1.0268899244      -13.1702031038        5.4841216945  CLST         437          1.0000000000
      1310       437  TIP3  H1           -1.6087622402      -12.4352494796        5.5976991219  CLST         437          1.0000000000
      1311       437  TIP3  H2           -0.3019224590      -12.5576275147        5.5199473902  CLST         437          1.0000000000
      1312       438  TIP3  OH2         -12.3098469695       -1.1419471314       -3.1250236260  CLST         438          1.0000000000
      1313       438  TIP3  H1          -12.2531637494       -1.8660554831       -2.5072146669  CLST         438          1.0000000000
      1314       438  TIP3  H2          -12.5349421307       -0.4834929270       -2.4618960473  CLST         438          1.0000000000
      1315       439  TIP3  OH2          -4.0116833430       -3.7243659393        3.4375576673  CLST         439          1.0000000000
      1316       439  TIP3  H1           -4.9368689854       -3.7833267464        3.8636480991  CLST         439          1.0000000000
      1317       439  TIP3  H2           -4.9360368937       -3.8562133075        2.8445921760  CLST         439          1.0000000000
      1318       440  TIP3  OH2         -10.1354344362      -11.5929206603       12.0627830389  CLST         440          1.0000000000
      1319       440  TIP3  H1          -10.2043738354      -10.8097871409       11.4533517025  CLST         440          1.0000000000
      1320       440  TIP3  H2           -9.5523918503      -11.9246357696       11.4382751933  CLST         440          1.0000000000
      1321       441  TIP3  OH2         -14.3131555580        3.6503442004        7.1643035759  CLST         441          1.0000000000
      1322       441  TIP3  H1          -14.1759977327        4.6196714379        6.9780660377  CLST         441          1.0000000000
      1323       441  TIP3  H2          -14.6179490313        3.7884952128        6.2570737597  CLST         441          1.0000000000
      1324       442  TIP3  OH2           9.4379029969        0.5852354746      -12.2867589762  CLST         442          1.0000000000
      1325       442  TIP3  H1            9.8342006888       -0.3204689403      -12.1297946142  CLST         442          1.0000000000
      1326       442  TIP3  H2           10.2687910931        0.7445670022      -12.7251597152  CLST         442          1.0000000000
      1327       443  TIP3  OH2           7.8565844231       -8.5135879185        3.7749281855  CLST         443          1.0000000000
      1328       443  TIP3  H1            8.7402667271       -8.4322324538        3.2560518997  CLST         443          1.0000000000
      1329       443  TIP3  H2            7.6093557483       -8.0568696884        2.9246641168  CLST         443          1.0000000000
      1330       444  TIP3  OH2          13.0646721096        8.4061034858       -0.3971346729  CLST         444          1.0000000000
      1331       444  TIP3  H1           13.3399115676        9.2922072042       -0.3642726810  CLST         444          1.0000000000
      1332       444  TIP3  H2           13.9062055336        8.1057866879       -0.0599647606  CLST         444          1.0000000000
      1333       445  TIP3  OH2          -8.6750383798       -9.5830272485       14.1988025462  CLST         445          1.0000000000
      1334       445  TIP3  H1           -8.0274633142       -9.1638821202       13.6485431970  CLST         445          1.0000000000
      1335       445  TIP3  H2           -9.0185889608       -8.6892627705       13.9755520252  CLST         445          1.0000000000
      1336       446  TIP3  OH2          12.6987905228       10.7948830758        0.0573964280  CLST         446          1.0000000000
      1337       446  TIP3  H1           12.3722557977       11.5689038618        0.5004332719  CLST         446          1.0000000000
      1338       446  TIP3  H2           12.3940588825       11.7850789819       -0.4367484499  CLST         446          1.0000000000
      1339       447  TIP3  OH2          -3.3682950742       13.5156400534        5.0071858024  CLST         447          1.0000000000
      1340       447  TIP3  H1           -3.9369670718       14.2782233797        5.1858083888  CLST         447          1.0000000000
      1341       447  TIP3  H2           -4.1863389196       12.8814386472        5.0039460493  CLST         447          1.0000000000
      1342       448  TIP3  OH2         -10.6329961701        9.3299233106      -13.0248266002  CLST         448          1.0000000000
      1343       448  TIP3  H1          -10.3420231175        9.1953982293      -12.0935174635  CLST         448          1.0000000000
      1344       448  TIP3  H2          -10.0788280895        8.6139218547      -13.2639520931  CLST         448          1.0000000000
      1345       449  TIP3  OH2           5.0052616433       -7.9186473679       -5.8186588035  CLST         449          1.0000000000
      1346       449  TIP3  H1            4.9846299642       -8.8512345639       -5.6338841955  CLST         449          1.0000000000
      1347       449  TIP3  H2            4.5887319194       -7.8173484768       -4.9964933679  CLST         449          1.0000000000
      1348       450  TIP3  OH2           4.7870620894       10.2484252888       11.3888957626  CLST         450          1.0000000000
      1349       450  TIP3  H1            5.6052316993        9.7531861959       11.5546127963  CLST         450          1.0000000000
      1350       450  TIP3  H2            4.5460305050        9.8498162338       10.5105635035  CLST         450          1.0000000000
      1351       451  TIP3  OH2         -12.4438319058       11.0510475514      -12.5653552719  CLST         451          1.0000000000
      1352       451  TIP3  H1          -11.4793755095       11.0532352485      -12.7436520721  CLST         451          1.0000000000
      1353       451  TIP3  H2          -12.3445944093       10.1319646885      -12.8922998172  CLST         451          1.0000000000
      1354       452  TIP3  OH2          -9.6076109294       14.7389552249        1.3445866363  CLST         452          1.0000000000
      1355       452  TIP3  H1          -10.4108589834       14.2475543411        1.6496216785  CLST         452          1.0000000000
      1356       452  TIP3  H2          -10.0394133590       14.5686173458        0.4976960683  CLST         452          1.0000000000
      1357       453  TIP3  OH2          -3.1552748252       -8.4178727094      -13.6897650230  CLST         453          1.0000000000
      1358       453  TIP3  H1           -4.0748350096       -8.6308740121      -13.4515820297  CLST         453          1.0000000000
      1359       453  TIP3  H2           -3.2451460620       -9.1709053447      -14.3356814711  CLST         453          1.0000000000
      1360       454  TIP3  OH2          13.7003998265      -13.3012669812       11.1894603397  CLST         454          1.0000000000
      1361       454  TIP3  H1           14.1688273052      -13.5272140477       11.9876786366  CLST         454          1.0000000000
      1362       454  TIP3  H2           13.6587647981      -12.4174323271       11.5537279577  CLST         454          1.0000000000
      1363       455  TIP3  OH2         -13.1312928056       -9.8658056928       -4.5181403604  CLST         455          1.0000000000
      1364       455  TIP3  H1          -13.1563640049       -8.9132548522       -4.4170733921  CLST         455          1.0000000000
      1365       455  TIP3  H2          -12.5575197591       -9.8548932655       -3.7580991345  CLST         455          1.0000000000
      1366       456  TIP3  OH2          -8.0853746667        6.9954719050        6.5709237823  CLST         456          1.0000000000
      1367       456  TIP3  H1           -8.3422859933        7.6788920978        7.2548464334  CLST         456          1.0000000000
      1368       456  TIP3  H2           -8.3473571534        7.7438186025        5.9776919058  CLST         456          1.0000000000
      1369       457  TIP3  OH2          -3.9337099388      -12.9801370592        8.3378894594  CLST         457          1.0000000000
      1370       457  TIP3  H1           -3.5460549273      -13.4512240905        9.1462724571  CLST         457          1.0000000000
      1371       457  TIP3  H2           -2.9936478029      -13.0673925621        8.1564521318  CLST         457          1.0000000000
      1372       458  TIP3  OH2          -2.4594022132       12.2505636451      -11.5640314837  CLST         458          1.0000000000
      1373       458  TIP3  H1           -3.4200328401       12.3175982663      -12.0293211832  CLST         458          1.0000000000
      1374       458  TIP3  H2           -2.3665010572       11.5135380494      -12.2258839330  CLST         458          1.0000000000
      1375       459  TIP3  OH2         -13.4014605844        7.1239509765       -4.1169639979  CLST         459          1.0000000000
      1376       459  TIP3  H1          -13.3149122668        7.9102776710       -3.4827835275  CLST         459          1.0000000000
      1377       459  TIP3  H2          -13.1738835833        7.6598791834       -4.8715168255  CLST         459          1.0000000000
      1378       460  TIP3  OH2           7.2609202477        9.7073473427      -13.9394028281  CLST         460          1.0000000000
      1379       460  TIP3  H1            6.9097469238        9.8042523911      -13.0074815784  CLST         460          1.0000000000
      1380       460  TIP3  H2            6.6807583935       10.5146122493      -14.0579113259  CLST         460          1.0000000000
      1381       461  TIP3  OH2           0.3080421145        7.6208636195      -12.8269979846  CLST         461          1.0000000000
      1382       461  TIP3  H1           -0.5128821346        7.1921074419      -12.5200320244  CLST         461          1.0000000000
      1383       461  TIP3  H2            0.4279190375        7.9100826243      -11.8849309673  CLST         461          1.0000000000
      1384       462  TIP3  OH2           4.4764434253        7.8472010493      -10.0920756047  CLST         462          1.0000000000
      1385       462  TIP3  H1            3.8745910991        7.1098982690      -10.1887603447  CLST         462          1.0000000000
      1386       462  TIP3  H2            4.1782072726        7.8226712773       -9.1745844411  CLST         462          1.0000000000
      1387       463  TIP3  OH2          -1.1257322537      -11.4285302898       -8.4026238483  CLST         463          1.0000000000
      1388       463  TIP3  H1           -2.2294969384      -11.6511864995       -8.6177204432  CLST         463          1.0000000000
      1389       463  TIP3  H2           -1.6054528650      -11.8151661906       -7.6898573734  CLST         463          1.0000000000
      1390       464  TIP3  OH2          -2.2150747907        2.5804717158       14.2132302483  CLST         464          1.0000000000
      1391       464  TIP3  H1           -2.8804900762        2.2501643212       13.5684493288  CLST         464          1.0000000000
      1392       464  TIP3  H2           -2.4945931409        3.4501832800       13.7880802759  CLST         464          1.0000000000
      1393       465  TIP3  OH2         -14.1366965152        6.1987675811        8.0795662449  CLST         465          1.0000000000
      1394       465  TIP3  H1          -14.3373704771        5.5854273341        8.8150284800  CLST         465          1.0000000000
      1395       465  TIP3  H2          -14.4995612596        7.0613196080        8.3932998601  CLST         465          1.0000000000
      1396       466  TIP3  OH2          -4.1875658069      -13.6585398077        2.8997230986  CLST         466          1.0000000000
      1397       466  TIP3  H1           -4.7563409897      -14.4555963033        2.8606340671  CLST         466          1.0000000000
      1398       466  TIP3  H2           -4.9741915820      -13.1166782731        2.7427556890  CLST         466          1.0000000000
      1399       467  TIP3  OH2           4.6322684025       14.5226986243        8.2201212206  CLST         467          1.0000000000
      1400       467  TIP3  H1            5.3704638622       14.2469458384        8.8557036141  CLST         467          1.0000000000
      1401       467  TIP3  H2            4.0780761419       14.6704229756        9.0589767357  CLST         467          1.0000000000
      1402       468  TIP3  OH2          -8.4583178282       -1.0818946122        1.9696178095  CLST         468          1.0000000000
      1403       468  TIP3  H1           -8.8922376962       -1.1523998599        2.8196964715  CLST         468          1.0000000000
      1404       468  TIP3  H2           -9.1650567118       -1.4964603690        1.5452182389  CLST         468          1.0000000000
      1405       469  TIP3  OH2           6.8928004413        0.6220304419       14.3061610375  CLST         469          1.0000000000
      1406       469  TIP3  H1            5.9563448924        0.5179329002       13.9015981051  CLST         469          1.0000000000
      1407       469  TIP3  H2            6.7783757799        1.4986880491       13.9635227724  CLST         469          1.0000000000
      1408       470  TIP3  OH2           1.1541242515       11.4491829337       -8.7959177210  CLST         470          1.0000000000
      1409       470  TIP3  H1            1.6210322910       12.2874903425       -8.7343205222  CLST         470          1.0000000000
      1410       470  TIP3  H2            1.3731781348       11.2407453896       -7.9008281728  CLST         470          1.0000000000
      1411       471  TIP3  OH2           5.6202426459        5.2575421843       -2.3255189211  CLST         471          1.0000000000
      1412       471  TIP3  H1            4.9157836839        5.6016312503       -2.8358879409  CLST         471          1.0000000000
      1413       471  TIP3  H2            4.5849731587        5.8174757529       -1.9251940455  CLST         471          1.0000000000
      1414       472  TIP3  OH2           5.1095142716      -12.0986957583       -6.9990993866  CLST         472          1.0000000000
      1415       472  TIP3  H1            4.6767319698      -12.9193921183       -7.2886049814  CLST         472          1.0000000000
      1416       472  TIP3  H2            5.5785364925      -12.7391073171       -6.4478709289  CLST         472          1.0000000000
      1417       473  TIP3  OH2          -4.1269857442        2.8474785277        1.1416715352  CLST         473          1.0000000000
      1418       473  TIP3  H1           -3.3373009567        2.4544505811        0.8038767454  CLST         473          1.0000000000
      1419       473  TIP3  H2           -4.6270402399        2.1593159818        0.6537898579  CLST         473          1.0000000000
      1420       474  TIP3  OH2           8.2009105411        4.5885725528        7.6582566431  CLST         474          1.0000000000
      1421       474  TIP3  H1            8.0275942395        4.0954349159        6.5858301305  CLST         474          1.0000000000
      1422       474  TIP3  H2            8.6823097038        3.8712212566        7.3408005712  CLST         474          1.0000000000
      1423       475  TIP3  OH2           5.9567492488       -4.0999819304       -7.9926045509  CLST         475          1.0000000000
      1424       475  TIP3  H1            5.9400129951       -3.3888958012       -8.6823126990  CLST         475          1.0000000000
      1425       475  TIP3  H2            6.8841518245       -4.1024642872       -8.2287094121  CLST         475          1.0000000000
      1426       476  TIP3  OH2           3.2295342774       10.1095550835       -7.7863152726  CLST         476          1.0000000000
      1427       476  TIP3  H1            3.6586137972        9.2791364297       -7.5959136397  CLST         476          1.0000000000
      1428       476  TIP3  H2            2.8246305502        9.8402608864       -6.8986582296  CLST         476          1.0000000000
      1429       477  TIP3  OH2          -7.2012616483       -3.2158831721       -9.9361783463  CLST         477          1.0000000000
      1430       477  TIP3  H1           -6.3590466112       -3.1413398725      -10.4184213991  CLST         477          1.0000000000
      1431       477  TIP3  H2           -6.9398271492       -3.7048702504       -9.1839755883  CLST         477          1.0000000000
      1432       478  TIP3  OH2           0.7264328059       -4.7241473303      -12.4733815754  CLST         478          1.0000000000
      1433       478  TIP3  H1            0.9615931904       -5.8198522226      -12.6288311752  CLST         478          1.0000000000
      1434       478  TIP3  H2            1.5805250513       -5.1671368229      -11.9444528245  CLST         478          1.0000000000
      1435       479  TIP3  OH2           0.1237162345       -1.4652089012       -7.3966441907  CLST         479          1.0000000000
      1436       479  TIP3  H1            0.5870986830       -1.2949146979       -6.5574627196  CLST         479          1.0000000000
      1437       479  TIP3  H2            1.0812218734       -1.6322281983       -7.6734066606  CLST         479          1.0000000000
      1438       480  TIP3  OH2           5.6830167973       -0.8833363980        9.1365872425  CLST         480          1.0000000000
      1439       480  TIP3  H1            6.4685769563       -1.1385847906        8.8518121904  CLST         480          1.0000000000
      1440       480  TIP3  H2            6.4643142802       -0.2050583327        8.5169029054  CLST         480          1.0000000000
      1441       481  TIP3  OH2          -6.9218374463        2.1474122829       -5.9915371270  CLST         481          1.0000000000
      1442       481  TIP3  H1           -7.2107468525        3.0444762223       -6.3701505247  CLST         481          1.0000000000
      1443       481  TIP3  H2           -6.1052071419        2.6662314454       -5.7660206993  CLST         481          1.0000000000
      1444       482  TIP3  OH2           3.8167867144       -8.0399239200        4.2791548655  CLST         482          1.0000000000
      1445       482  TIP3  H1            4.2507187329       -7.4084995131        4.7808229642  CLST         482          1.0000000000
      1446       482  TIP3  H2            3.2120430135       -7.2937713394        4.2101220421  CLST         482          1.0000000000
      1447       483  TIP3  OH2         -14.8934714496        0.2563639299       -8.1956117311  CLST         483          1.0000000000
      1448       483  TIP3  H1          -14.5921889528       -0.6510556489       -8.2124806088  CLST         483          1.0000000000
      1449       483  TIP3  H2          -14.0270711456        0.4550367533       -7.8499493519  CLST         483          1.0000000000
      1450       484  TIP3  OH2          14.8934714496       -2.4714996670       -8.6033839276  CLST         484          1.0000000000
      1451       484  TIP3  H1           14.4840617544       -3.3321202852       -8.2995995520  CLST         484          1.0000000000
      1452       484  TIP3  H2           14.1818658300       -2.1161760410       -9.1227101161  CLST         484          1.0000000000
      1453       485  TIP3  OH2          -3.5588171150        5.3747248253        3.8243841343  CLST         485          1.0000000000
      1454       485  TIP3  H1           -2.8105946356        5.3271717970        4.4431650189  CLST         485          1.0000000000
      1455       485  TIP3  H2           -4.0798221261        5.3944149985        4.6263237947  CLST         485          1.0000000000
      1456       486  TIP3  OH2          11.2470818212       13.0950066245       -8.9532163438  CLST         486          1.0000000000
      1457       486  TIP3  H1           11.8381335359       12.4948340777       -8.4809777694  CLST         486          1.0000000000
      1458       486  TIP3  H2           11.5185018999       12.6998384008       -9.7917778683  CLST         486          1.0000000000
      1459       487  TIP3  OH2           2.6422640045       -5.7322765511        3.6963184504  CLST         487          1.0000000000
      1460       487  TIP3  H1            2.8032284200       -4.8550413041        4.1641453701  CLST         487          1.0000000000
      1461       487  TIP3  H2            2.4709877725       -5.0936503774        2.9698404334  CLST         487          1.0000000000
      1462       488  TIP3  OH2         -11.4448310524       -0.8031501969       11.2695392300  CLST         488          1.0000000000
      1463       488  TIP3  H1          -11.7970147258       -0.0113875175       11.3771886780  CLST         488          1.0000000000
      1464       488  TIP3  H2          -11.0843435361       -0.0990346701       10.4587650319  CLST         488          1.0000000000
      1465       489  TIP3  OH2          -8.4321471229        8.1038666557       -4.4542368265  CLST         489          1.0000000000
      1466       489  TIP3  H1           -8.6406134541        8.4429349368       -3.6156587447  CLST         489          1.0000000000
      1467       489  TIP3  H2           -7.7283951506        7.5945803402       -4.1497321260  CLST         489          1.0000000000
      1468       490  TIP3  OH2         -10.9989319485       11.4355280738        5.0094506030  CLST         490          1.0000000000
      1469       490  TIP3  H1          -10.6097772367       10.5836327465        5.3556555409  CLST         490          1.0000000000
      1470       490  TIP3  H2          -10.8328456615       11.1927520108        4.1348679835  CLST         490          1.0000000000
      1471       491  TIP3  OH2          -1.2192331575       -9.9979291758       10.7318506418  CLST         491          1.0000000000
      1472       491  TIP3  H1           -0.5636466007       -9.4610056038       10.2439836724  CLST         491          1.0000000000
      1473       491  TIP3  H2           -0.8727733004       -9.4678065955       11.4552209692  CLST         491          1.0000000000
      1474       492  TIP3  OH2          -1.9559341800       10.1186595851        2.7689647456  CLST         492          1.0000000000
      1475       492  TIP3  H1           -1.5574884797       10.8999698251        3.0762137081  CLST         492          1.0000000000
      1476       492  TIP3  H2           -2.4805343436       10.5139379850        2.1180004548  CLST         492          1.0000000000
      1477       493  TIP3  OH2          -6.3619799242       10.2882949383       -2.9184662830  CLST         493          1.0000000000
      1478       493  TIP3  H1           -6.4535509828       10.7589633551       -3.7619868524  CLST         493          1.0000000000
      1479       493  TIP3  H2           -7.2040785775       10.7007288405       -2.7149767652  CLST         493          1.0000000000
      1480       494  TIP3  OH2         -13.9519425132       10.8478362349       12.1210337998  CLST         494          1.0000000000
      1481       494  TIP3  H1          -14.7939862202       11.0936029472       11.7196015267  CLST         494          1.0000000000
      1482       494  TIP3  H2          -13.4206945610       11.4818545959       11.6601758174  CLST         494          1.0000000000
      1483       495  TIP3  OH2           3.1820456091      -13.0597133130       13.9294796265  CLST         495          1.0000000000
      1484       495  TIP3  H1            2.7297611944      -13.0834214471       14.7603049497  CLST         495          1.0000000000
      1485       495  TIP3  H2            3.3402509735      -12.1170862702       13.8491663253  CLST         495          1.0000000000
      1486       496  TIP3  OH2         -14.8934714496        6.5654308854        0.4484604317  CLST         496          1.0000000000
      1487       496  TIP3  H1          -14.1140743052        6.6319431931        1.2720911390  CLST         496          1.0000000000
      1488       496  TIP3  H2          -14.7733573579        5.6925872107        0.9964246378  CLST         496          1.0000000000
      1489       497  TIP3  OH2         -13.4772011011       -8.6285297759        3.3172622980  CLST         497          1.0000000000
      1490       497  TIP3  H1          -14.1753855290       -8.1308587281        3.7155464345  CLST         497          1.0000000000
      1491       497  TIP3  H2          -13.7401503335       -9.3931042957        3.8284567243  CLST         497          1.0000000000
      1492       498  TIP3  OH2           4.4151992544       14.3151260767      -10.5465932385  CLST         498          1.0000000000
      1493       498  TIP3  H1            4.8554030703       14.0236878491      -11.3977726476  CLST         498          1.0000000000
      1494       498  TIP3  H2            4.9884112585       13.3110184678      -10.4431623743  CLST         498          1.0000000000
      1495       499  TIP3  OH2           1.3506364944       10.8441337946       -2.9584645314  CLST         499          1.0000000000
      1496       499  TIP3  H1            0.4390746328       11.2638259800       -2.7267121529  CLST         499          1.0000000000
      1497       499  TIP3  H2            1.6224538938       11.7140770506       -2.5146716518  CLST         499          1.0000000000
      1498       500  TIP3  OH2          -6.1817864081       -2.6714274747        4.4457433569  CLST         500          1.0000000000
      1499       500  TIP3  H1           -7.0357854160       -2.3013024136        4.1444127436  CLST         500          1.0000000000
      1500       500  TIP3  H2           -5.9383126420       -1.7436615506        4.2349998976  CLST         500          1.0000000000
      1501       501  TIP3  OH2         -12.4564517717      -13.3578046084       -5.7469507949  CLST         501          1.0000000000
      1502       501  TIP3  H1          -13.1445063925      -12.7861754309       -6.0793689408  CLST         501          1.0000000000
      1503       501  TIP3  H2          -11.7073210960      -12.8631127636       -6.0981799955  CLST         501          1.0000000000
      1504       502  TIP3  OH2          -1.6194951926       -3.8780022174      -11.6178598873  CLST         502          1.0000000000
      1505       502  TIP3  H1           -1.2239352415       -3.1491901714      -11.9816240788  CLST         502          1.0000000000
      1506       502  TIP3  H2           -0.6396318972       -3.9022201199      -12.2444304385  CLST         502          1.0000000000
      1507       503  TIP3  OH2          -0.5122843054       -4.9235133064        0.9375880207  CLST         503          1.0000000000
      1508       503  TIP3  H1            0.2543631858       -5.2470873194        0.4769806950  CLST         503          1.0000000000
      1509       503  TIP3  H2           -1.2153232029       -5.4367237446        0.5782056620  CLST         503          1.0000000000
      1510       504  TIP3  OH2          -4.4504205020       -3.6311810830       12.4717406637  CLST         504          1.0000000000
      1511       504  TIP3  H1           -4.5425449819       -4.5549771217       12.7316050888  CLST         504          1.0000000000
      1512       504  TIP3  H2           -4.4841006162       -3.2873807049       13.3420815194  CLST         504          1.0000000000
      1513       505  TIP3  OH2           5.7541044911       12.3533140117       -9.1732420073  CLST         505          1.0000000000
      1514       505  TIP3  H1            6.0674327646       11.8562532222       -8.3734052507  CLST         505          1.0000000000
      1515       505  TIP3  H2            6.6815057796       12.7795511147       -9.1415401533  CLST         505          1.0000000000
      1516       506  TIP3  OH2          -4.1592878715        3.7594386528       10.5465641414  CLST         506          1.0000000000
      1517       506  TIP3  H1           -4.7380620568        3.5189765159        9.7660786556  CLST         506          1.0000000000
      1518       506  TIP3  H2           -4.0388648679        2.9393912820       10.9252876326  CLST         506          1.0000000000
      1519       507  TIP3  OH2          -2.2424701352        6.8898806157      -12.6538761658  CLST         507          1.0000000000
      1520       507  TIP3  H1           -2.5893413623        6.1610186964      -12.1305873725  CLST         507          1.0000000000
      1521       507  TIP3  H2           -3.1225362780        7.1566631621      -12.9553320388  CLST         507          1.0000000000
      1522       508  TIP3  OH2         -11.1578211659        5.0475232631      -11.4607998312  CLST         508          1.0000000000
      1523       508  TIP3  H1          -11.9057172179        4.2478180715      -11.5088647459  CLST         508          1.0000000000
      1524       508  TIP3  H2          -10.9864872004        4.0933884148      -11.2666548527  CLST         508          1.0000000000
      1525       509  TIP3  OH2           4.7588152106        0.2417651805      -10.7442645519  CLST         509          1.0000000000
      1526       509  TIP3  H1            5.3683724249        0.7807033354      -10.2846502069  CLST         509          1.0000000000
      1527       509  TIP3  H2            5.3649658777        0.1442432497      -11.5597831222  CLST         509          1.0000000000
      1528       510  TIP3  OH2          -4.6685223350       -0.0423210318       -3.8861096434  CLST         510          1.0000000000
      1529       510  TIP3  H1           -5.1279823064       -0.3954672992       -4.7055387999  CLST         510          1.0000000000
      1530       510  TIP3  H2           -3.8805674496        0.4529960266       -4.1557440952  CLST         510          1.0000000000
      1531       511  TIP3  OH2         -10.6234929396        1.7257124585       -0.9723901151  CLST         511          1.0000000000
      1532       511  TIP3  H1          -11.2644791136        2.2137963298       -0.4914365081  CLST         511          1.0000000000
      1533       511  TIP3  H2          -10.9997410215        0.9507632440       -0.5130512693  CLST         511          1.0000000000
      1534       512  TIP3  OH2          -3.6440586332       -8.4562810489       -8.7375877220  CLST         512          1.0000000000
      1535       512  TIP3  H1           -2.7653262267       -8.7675938847       -9.1566504272  CLST         512          1.0000000000
      1536       512  TIP3  H2           -3.5098616648       -7.7138154575       -9.3661282301  CLST         512          1.0000000000
      1537       513  TIP3  OH2           9.8452022916       13.9201175744       11.1722689185  CLST         513          1.0000000000
      1538       513  TIP3  H1            9.4688448488       14.8052706097       10.9264806550  CLST         513          1.0000000000
      1539       513  TIP3  H2            9.4562161135       13.6898945904       10.2510745094  CLST         513          1.0000000000
      1540       514  TIP3  OH2          -4.8568824845        7.6748899570      -12.8900167553  CLST         514          1.0000000000
      1541       514  TIP3  H1           -5.4662098896        8.0264693254      -13.5170011263  CLST         514          1.0000000000
      1542       514  TIP3  H2           -5.5557612614        7.7986694438      -12.2338203773  CLST         514          1.0000000000
      1543       515  TIP3  OH2           5.9544350751        6.3834462301       -6.0515009388  CLST         515          1.0000000000
      1544       515  TIP3  H1            6.1077428695        5.9541065294       -4.8254959054  CLST         515          1.0000000000
      1545       515  TIP3  H2            6.6330529820        6.7093909015       -5.2344898830  CLST         515          1.0000000000
      1546       516  TIP3  OH2           9.4172552142        0.0319015265       -8.0277276444  CLST         516          1.0000000000
      1547       516  TIP3  H1           10.3687931363        0.0322799791       -7.9363380022  CLST         516          1.0000000000
      1548       516  TIP3  H2            9.4100757727        0.9921460136       -8.0639906255  CLST         516          1.0000000000
      1549       517  TIP3  OH2          13.9819687533       -7.2385448645       -9.0234644081  CLST         517          1.0000000000
      1550       517  TIP3  H1           14.6412039824       -6.6301160484       -8.5999653685  CLST         517          1.0000000000
      1551       517  TIP3  H2           14.4463856881       -7.9163663303       -8.5329359644  CLST         517          1.0000000000
      1552       518  TIP3  OH2          -0.4929136952       12.0411494453       -6.0980030942  CLST         518          1.0000000000
      1553       518  TIP3  H1            0.3332697853       11.7578948436       -5.8329993784  CLST         518          1.0000000000
      1554       518  TIP3  H2           -0.2098444841       12.8146770999       -5.4978370517  CLST         518          1.0000000000
      1555       519  TIP3  OH2           0.9519948808        5.0613273525        0.9312821287  CLST         519          1.0000000000
      1556       519  TIP3  H1            0.5689828171        4.2145555757        0.5937110329  CLST         519          1.0000000000
      1557       519  TIP3  H2            0.0465325825        5.2952755500        0.9197038513  CLST         519          1.0000000000
      1558       520  TIP3  OH2           6.5149150573        6.4774800655      -10.5423884921  CLST         520          1.0000000000
      1559       520  TIP3  H1            5.5655125681        6.5823598926      -10.7180672272  CLST         520          1.0000000000
      1560       520  TIP3  H2            6.3738579094        7.3816476805      -10.0714937416  CLST         520          1.0000000000
      1561       521  TIP3  OH2          -5.7094759677       10.2359775603        9.5010013159  CLST         521          1.0000000000
      1562       521  TIP3  H1           -4.9538881190       10.3559771478       10.0508000985  CLST         521          1.0000000000
      1563       521  TIP3  H2           -5.1481885147       10.6136479347        8.8200059720  CLST         521          1.0000000000
      1564       522  TIP3  OH2           3.2679311978        3.9860253373        2.1794973575  CLST         522          1.0000000000
      1565       522  TIP3  H1            2.5368076954        4.5554410891        1.8212507924  CLST         522          1.0000000000
      1566       522  TIP3  H2            3.0353155694        3.6312045420        1.0747374232  CLST         522          1.0000000000
      1567       523  TIP3  OH2           8.4082888773        0.7366798401       -3.1470820569  CLST         523          1.0000000000
      1568       523  TIP3  H1            7.4208347320        0.8350881472       -3.2645745613  CLST         523          1.0000000000
      1569       523  TIP3  H2            8.3992061371       -0.0531020296       -3.6882124242  CLST         523          1.0000000000
      1570       524  TIP3  OH2          -5.4128980227        5.4768696396      -10.5677666755  CLST         524          1.0000000000
      1571       524  TIP3  H1           -4.8972160321        6.2428877880      -10.2996926981  CLST         524          1.0000000000
      1572       524  TIP3  H2           -4.5676769920        4.9894046307      -10.6486508631  CLST         524          1.0000000000
      1573       525  TIP3  OH2          -5.9754453087        5.9196722699       -7.9969350387  CLST         525          1.0000000000
      1574       525  TIP3  H1           -5.3195929087        6.5861368226       -8.3189356684  CLST         525          1.0000000000
      1575       525  TIP3  H2           -6.1266328877        5.6421086299       -8.9146188743  CLST         525          1.0000000000
      1576       526  TIP3  OH2           9.7534965742      -11.0726099356      -13.1733206125  CLST         526          1.0000000000
      1577       526  TIP3  H1            9.4176969672      -10.6347283640      -13.9098348075  CLST         526          1.0000000000
      1578       526  TIP3  H2            8.8087815899      -11.4046355367      -13.1155940091  CLST         526          1.0000000000
      1579       527  TIP3  OH2         -11.5121869448       -3.2234332863       -1.6938155032  CLST         527          1.0000000000
      1580       527  TIP3  H1          -12.1508194576       -3.9207912975       -1.9661199009  CLST         527          1.0000000000
      1581       527  TIP3  H2          -10.9911001886       -3.6007808786       -2.3870173381  CLST         527          1.0000000000
      1582       528  TIP3  OH2           4.2925269081      -12.1177721183      -11.1870228737  CLST         528          1.0000000000
      1583       528  TIP3  H1            4.0461330925      -11.2175354738      -11.2765866180  CLST         528          1.0000000000
      1584       528  TIP3  H2            5.0174829723      -11.8243083284      -10.6892684958  CLST         528          1.0000000000
      1585       529  TIP3  OH2          -6.1224847313       -7.2393989991       -4.8607161535  CLST         529          1.0000000000
      1586       529  TIP3  H1           -5.4063902431       -7.9730941468       -5.0716737811  CLST         529          1.0000000000
      1587       529  TIP3  H2           -5.8150153118       -6.9612178506       -5.7717697491  CLST         529          1.0000000000
      1588       530  TIP3  OH2           2.9046288072       -5.8207973717        6.5433296112  CLST         530          1.0000000000
      1589       530  TIP3  H1            2.5751600179       -6.5422472836        7.1029931292  CLST         530          1.0000000000
      1590       530  TIP3  H2            2.0949705196       -5.8733394136        5.9643879361  CLST         530          1.0000000000
      1591       531  TIP3  OH2          -3.4385878136       -3.3720682934      -14.6807258073  CLST         531          1.0000000000
      1592       531  TIP3  H1           -4.0305221036       -2.6217726867      -14.8048784346  CLST         531          1.0000000000
      1593       531  TIP3  H2           -3.8287082298       -3.7086635130      -13.9315331924  CLST         531          1.0000000000
      1594       532  TIP3  OH2          -1.0512280025       -3.4436612322       -1.6383873457  CLST         532          1.0000000000
      1595       532  TIP3  H1           -1.6576239513       -2.6603964161       -1.8096585076  CLST         532          1.0000000000
      1596       532  TIP3  H2           -1.7887737282       -3.8066729498       -1.1854336495  CLST         532          1.0000000000
      1597       533  TIP3  OH2          -3.1311374675       13.2543796298        7.8403475375  CLST         533          1.0000000000
      1598       533  TIP3  H1           -3.8333658321       13.8842761412        7.5206525857  CLST         533          1.0000000000
      1599       533  TIP3  H2           -3.8975046655       12.6714140329        7.9780979396  CLST         533          1.0000000000
      1600       534  TIP3  OH2           6.9845836527       -4.3756423477       -5.3276616912  CLST         534          1.0000000000
      1601       534  TIP3  H1            6.1829972887       -4.3480261057       -4.8077892254  CLST         534          1.0000000000
      1602       534  TIP3  H2            6.3501072785       -4.3036613240       -6.1064263149  CLST         534          1.0000000000
      1603       535  TIP3  OH2           7.1873160869       -4.0139794799      -11.4074259839  CLST         535          1.0000000000
      1604       535  TIP3  H1            6.5541147633       -3.4351734434      -11.0380527423  CLST         535          1.0000000000
      1605       535  TIP3  H2            7.3301881721       -4.2850214924      -10.5052182657  CLST         535          1.0000000000
      1606       536  TIP3  OH2          14.1448895027        8.1451608869       10.5998926542  CLST         536          1.0000000000
      1607       536  TIP3  H1           14.2811307087        8.9116197203       11.1603781610  CLST         536          1.0000000000
      1608       536  TIP3  H2           14.7185676592        8.6065107802        9.9289748649  CLST         536          1.0000000000
      1609       537  TIP3  OH2           4.8369396938       -4.7255343657       -3.7974688802  CLST         537          1.0000000000
      1610       537  TIP3  H1            3.9912295114       -4.7369180287       -3.4422917049  CLST         537          1.0000000000
      1611       537  TIP3  H2            4.9907197377       -5.6481835823       -3.4402630054  CLST         537          1.0000000000
      1612       538  TIP3  OH2          -0.4360955118        7.5346902573       13.1363360085  CLST         538          1.0000000000
      1613       538  TIP3  H1           -1.0937416276        7.7753150193       12.4828600338  CLST         538          1.0000000000
      1614       538  TIP3  H2           -0.2870770548        8.4958846186       13.2735117329  CLST         538          1.0000000000
      1615       539  TIP3  OH2           6.1616171607        8.8774837611        1.3020832310  CLST         539          1.0000000000
      1616       539  TIP3  H1            6.6934941566        8.1973612361        0.7139719542  CLST         539          1.0000000000
      1617       539  TIP3  H2            5.6453585074        8.0573135124        1.4226045514  CLST         539          1.0000000000
      1618       540  TIP3  OH2          11.8184654621       -1.3140435165       -3.9853272084  CLST         540          1.0000000000
      1619       540  TIP3  H1           12.5855210646       -1.0042552168       -4.3984551523  CLST         540          1.0000000000
      1620       540  TIP3  H2           12.1839006909       -0.9638170871       -3.1656649822  CLST         540          1.0000000000
      1621       541  TIP3  OH2          10.5386213831        7.0819720158        8.4812884158  CLST         541          1.0000000000
      1622       541  TIP3  H1           10.7464291716        7.2856203247        9.4636643398  CLST         541          1.0000000000
      1623       541  TIP3  H2           11.1315182941        6.3095077017        8.7023392970  CLST         541          1.0000000000
      1624       542  TIP3  OH2          13.1725217037        0.5669920784       -5.0170776198  CLST         542          1.0000000000
      1625       542  TIP3  H1           12.5340567793        1.0587280678       -5.4604600499  CLST         542          1.0000000000
      1626       542  TIP3  H2           13.5767645420        0.5175605766       -5.9365514780  CLST         542          1.0000000000
      1627       543  TIP3  OH2           9.9666174021       -6.3472414760        5.8382181856  CLST         543          1.0000000000
      1628       543  TIP3  H1           10.3327020816       -6.6366657567        4.9814011853  CLST         543          1.0000000000
      1629       543  TIP3  H2            9.3161169460       -5.7633351490        5.2966124020  CLST         543          1.0000000000
      1630       544  TIP3  OH2           6.8658395061        4.5020845348      -12.2494352476  CLST         544          1.0000000000
      1631       544  TIP3  H1            7.3985526542        3.9339429423      -11.7267102965  CLST         544          1.0000000000
      1632       544  TIP3  H2            6.5531680017        4.7987812088      -11.4005310393  CLST         544          1.0000000000
      1633       545  TIP3  OH2         -12.0267972574        2.2006387796        7.3137225770  CLST         545          1.0000000000
      1634       545  TIP3  H1          -12.9164176560        2.6416659271        7.4429878260  CLST         545          1.0000000000
      1635       545  TIP3  H2          -11.7641095599        2.7958577101        8.0293152520  CLST         545          1.0000000000
      1636       546  TIP3  OH2          -0.9904799926       12.2710941630       10.8823280314  CLST         546          1.0000000000
      1637       546  TIP3  H1           -0.8610536858       13.1147111532       10.5133058565  CLST         546          1.0000000000
      1638       546  TIP3  H2           -0.4259083432       12.5506593735       11.6112798267  CLST         546          1.0000000000
      1639       547  TIP3  OH2          -1.8411891553        7.0407519215        5.9725408916  CLST         547          1.0000000000
      1640       547  TIP3  H1           -1.9677425069        6.2905208561        6.6050252441  CLST         547          1.0000000000
      1641       547  TIP3  H2           -1.2944287748        6.6145969269        5.3657227328  CLST         547          1.0000000000
      1642       548  TIP3  OH2           2.7084364812       -7.9377519840       12.5473874042  CLST         548          1.0000000000
      1643       548  TIP3  H1            2.3025691529       -7.0659084219       12.7410635087  CLST         548          1.0000000000
      1644       548  TIP3  H2            3.6075486614       -7.4505346087       12.3769723634  CLST         548          1.0000000000
      1645       549  TIP3  OH2          -6.5868199010       14.6678991029        3.0642003459  CLST         549          1.0000000000
      1646       549  TIP3  H1           -7.5780109329       14.7890116759        3.2926108739  CLST         549          1.0000000000
      1647       549  TIP3  H2           -6.7046653774       13.9067844936        3.5598082537  CLST         549          1.0000000000
      1648       550  TIP3  OH2          -7.8154532040        4.5074253993       -4.0718794086  CLST         550          1.0000000000
      1649       550  TIP3  H1           -8.7709120252        3.9026302711       -4.1853194585  CLST         550          1.0000000000
      1650       550  TIP3  H2           -8.4981558990        4.6099442723       -3.5907124029  CLST         550          1.0000000000
      1651       551  TIP3  OH2          -2.3273248022      -13.4218979410       -3.3660513581  CLST         551          1.0000000000
      1652       551  TIP3  H1           -1.6669349873      -13.1795557892       -2.7334729067  CLST         551          1.0000000000
      1653       551  TIP3  H2           -2.9444678915      -12.8613526340       -2.9801613100  CLST         551          1.0000000000
      1654       552  TIP3  OH2          -2.2834011930       -7.9128323681       13.6591934914  CLST         552          1.0000000000
      1655       552  TIP3  H1           -2.5237603139       -8.8182785142       13.8899879308  CLST         552          1.0000000000
      1656       552  TIP3  H2           -1.6509482342       -8.0720792058       13.0319992937  CLST         552          1.0000000000
      1657       553  TIP3  OH2           8.6871903394      -13.8403393258        0.0864247513  CLST         553          1.0000000000
      1658       553  TIP3  H1            8.6956688052      -13.0569818277        0.6075370522  CLST         553          1.0000000000
      1659       553  TIP3  H2            8.8013679003      -14.3346082900        0.8956324127  CLST         553          1.0000000000
      1660       554  TIP3  OH2          -9.4120815768      -12.1360624527       -3.7356038584  CLST         554          1.0000000000
      1661       554  TIP3  H1           -9.5993380825      -11.5672052451       -2.9656607861  CLST         554          1.0000000000
      1662       554  TIP3  H2          -10.1570507497      -12.7443183273       -3.3473432449  CLST         554          1.0000000000
      1663       555  TIP3  OH2         -11.1792805289       -5.4567530774       -7.5486180668  CLST         555          1.0000000000
      1664       555  TIP3  H1          -10.9541527101       -4.4760289613       -7.5621218577  CLST         555          1.0000000000
      1665       555  TIP3  H2          -11.0789155519       -5.4251625721       -6.6206790943  CLST         555          1.0000000000
      1666       556  TIP3  OH2         -10.6890454842       11.4501265557       13.5998618797  CLST         556          1.0000000000
      1667       556  TIP3  H1          -11.2988085075       10.7058548472       13.5400565429  CLST         556          1.0000000000
      1668       556  TIP3  H2           -9.9057332682       10.7868773623       13.5484800696  CLST         556          1.0000000000
      1669       557  TIP3  OH2          -2.5700034415       -6.5133764641        1.3097818687  CLST         557          1.0000000000
      1670       557  TIP3  H1           -2.5431860633       -6.6119777401        2.2874529402  CLST         557          1.0000000000
      1671       557  TIP3  H2           -2.4319121745       -7.4852696880        1.2845957730  CLST         557          1.0000000000
      1672       558  TIP3  OH2         -10.4503395485        6.5781715343        2.9716359484  CLST         558          1.0000000000
      1673       558  TIP3  H1          -10.2781996127        5.8016244234        3.5631016361  CLST         558          1.0000000000
      1674       558  TIP3  H2          -10.1408011551        5.9485007948        2.2675657113  CLST         558          1.0000000000
      1675       559  TIP3  OH2           0.7562488505        2.6206453105       -0.3536931710  CLST         559          1.0000000000
      1676       559  TIP3  H1            1.2660303267        2.7615850483       -1.1165432751  CLST         559          1.0000000000
      1677       559  TIP3  H2            1.3670420407        1.8812650723       -0.2501677941  CLST         559          1.0000000000
      1678       560  TIP3  OH2          12.6288167498      -11.8334273880        0.9005432852  CLST         560          1.0000000000
      1679       560  TIP3  H1           12.5125780485      -12.6011888417        0.6149138670  CLST         560          1.0000000000
      1680       560  TIP3  H2           12.0121247850      -12.4146796949        1.6490830822  CLST         560          1.0000000000
      1681       561  TIP3  OH2         -12.9158229187        8.6846972327      -10.5158401984  CLST         561          1.0000000000
      1682       561  TIP3  H1          -12.4001388900        8.0074735581      -10.2038974394  CLST         561          1.0000000000
      1683       561  TIP3  H2          -12.4189540088        8.8590731362       -9.4519378023  CLST         561          1.0000000000
      1684       562  TIP3  OH2           9.8088419783        7.0042251930       13.3380886095  CLST         562          1.0000000000
      1685       562  TIP3  H1           10.1334608317        7.2853986019       14.2146464380  CLST         562          1.0000000000
      1686       562  TIP3  H2            9.8871395911        6.1405916183       13.7549020988  CLST         562          1.0000000000
      1687       563  TIP3  OH2           3.0926776382      -10.5001664101       -6.7818325365  CLST         563          1.0000000000
      1688       563  TIP3  H1            3.9728551074      -10.7739577959       -6.7009916530  CLST         563          1.0000000000
      1689       563  TIP3  H2            3.0793289078      -11.1089390761       -7.5276067750  CLST         563          1.0000000000
      1690       564  TIP3  OH2           4.9884532170      -13.2274671221       -3.1329970432  CLST         564          1.0000000000
      1691       564  TIP3  H1            5.5821493127      -13.5340583345       -3.7996488951  CLST         564          1.0000000000
      1692       564  TIP3  H2            4.2830199749      -13.6325174990       -3.5947848935  CLST         564          1.0000000000
      1693       565  TIP3  OH2           1.7091961621       12.0944644640        0.3211941472  CLST         565          1.0000000000
      1694       565  TIP3  H1            1.4892699761       11.2081972253        0.1145979332  CLST         565          1.0000000000
      1695       565  TIP3  H2            2.5633568235       12.0748922458       -0.1581608154  CLST         565          1.0000000000
      1696       566  TIP3  OH2          -8.8719499947        5.6877424508        0.9933118121  CLST         566          1.0000000000
      1697       566  TIP3  H1           -8.8389677047        4.9617557684        0.0268495575  CLST         566          1.0000000000
      1698       566  TIP3  H2           -8.8960799741        6.1272675914        0.0952146079  CLST         566          1.0000000000
      1699       567  TIP3  OH2          12.0748613814        0.1254373300       -8.4678674706  CLST         567          1.0000000000
      1700       567  TIP3  H1           12.9934116560        0.1304054498       -8.2680123864  CLST         567          1.0000000000
      1701       567  TIP3  H2           12.1947056935       -0.5423374156       -9.2433429193  CLST         567          1.0000000000
      1702       568  TIP3  OH2           8.7942492497       -7.2206690409       11.5442668257  CLST         568          1.0000000000
      1703       568  TIP3  H1            9.6556470552       -7.5987795774       11.8652519073  CLST         568          1.0000000000
      1704       568  TIP3  H2            9.4717426302       -6.5489517572       11.1656253314  CLST         568          1.0000000000
      1705       569  TIP3  OH2          -8.6130198868       -6.1688589949        3.4120113660  CLST         569          1.0000000000
      1706       569  TIP3  H1           -8.6128479522       -5.8787865082        2.5391664757  CLST         569          1.0000000000
      1707       569  TIP3  H2           -9.4474160068       -6.5845175757        3.1174701294  CLST         569          1.0000000000
      1708       570  TIP3  OH2           6.0032023652       11.4432200691       14.8934714496  CLST         570          1.0000000000
      1709       570  TIP3  H1            5.0958096509       11.5422021367       14.7319095264  CLST         570          1.0000000000
      1710       570  TIP3  H2            6.0592462447       12.1120209460       14.2155475264  CLST         570          1.0000000000
      1711       571  TIP3  OH2           9.6274557024        1.0807566562        4.5378519609  CLST         571          1.0000000000
      1712       571  TIP3  H1            9.0212643474        1.7010776810        4.1487291379  CLST         571          1.0000000000
      1713       571  TIP3  H2            9.3284345556        0.3261962209        3.9829796646  CLST         571          1.0000000000
      1714       572  TIP3  OH2           5.0285057001        0.3787073546        2.2544068086  CLST         572          1.0000000000
      1715       572  TIP3  H1            5.3711227451       -0.3808907126        2.7245481540  CLST         572          1.0000000000
      1716       572  TIP3  H2            5.9654295097        0.5679981457        2.0344686844  CLST         572          1.0000000000
      1717       573  TIP3  OH2          -1.8597083924       -6.4929419572       -6.5143686859  CLST         573          1.0000000000
      1718       573  TIP3  H1           -1.3931788762       -7.1680730702       -7.0282918731  CLST         573          1.0000000000
      1719       573  TIP3  H2           -2.6477319736       -6.6185274747       -7.0685998785  CLST         573          1.0000000000
      1720       574  TIP3  OH2          -9.7204581651        0.7798615113        9.7472586303  CLST         574          1.0000000000
      1721       574  TIP3  H1           -9.3413648994        1.6811736657        9.6371134607  CLST         574          1.0000000000
      1722       574  TIP3  H2           -8.9092973967        0.5351459832        9.2730475664  CLST         574          1.0000000000
      1723       575  TIP3  OH2          -3.6798619676       11.0464644682        0.9316602761  CLST         575          1.0000000000
      1724       575  TIP3  H1           -3.9552487342       11.4963416229        0.0286613804  CLST         575          1.0000000000
      1725       575  TIP3  H2           -4.2334617909       11.7904163214        1.2625775219  CLST         575          1.0000000000
      1726       576  TIP3  OH2          -3.8069570389       -2.4261433257        6.2278844569  CLST         576          1.0000000000
      1727       576  TIP3  H1           -3.8413874875       -1.5236776532        5.9592879749  CLST         576          1.0000000000
      1728       576  TIP3  H2           -3.5876013518       -2.6353682639        5.3247437382  CLST         576          1.0000000000
      1729       577  TIP3  OH2         -11.9282845267       11.4068109002        8.5422295763  CLST         577          1.0000000000
      1730       577  TIP3  H1          -11.3865025796       12.1366602367        8.7464695349  CLST         577          1.0000000000
      1731       577  TIP3  H2          -12.2108613206       11.7887337660        7.7239851004  CLST         577          1.0000000000
      1732       578  TIP3  OH2          -1.8370609567        0.8485539757        5.4847372487  CLST         578          1.0000000000
      1733       578  TIP3  H1           -2.7743949382        1.1005945056        5.2745114883  CLST         578          1.0000000000
      1734       578  TIP3  H2           -2.1249111462        0.7768019024        6.3685236119  CLST         578          1.0000000000
      1735       579  TIP3  OH2          -6.4065622642       11.4979137462        1.7788396830  CLST         579          1.0000000000
      1736       579  TIP3  H1           -6.6141499783       12.0627674532        1.0305131440  CLST         579          1.0000000000
      1737       579  TIP3  H2           -6.6981877689       10.7755297790        1.2394635270  CLST         579          1.0000000000
      1738       580  TIP3  OH2          11.3617131007        3.7533935210       -3.3478741809  CLST         580          1.0000000000
      1739       580  TIP3  H1           11.2453936508        2.8375523575       -3.1994716241  CLST         580          1.0000000000
      1740       580  TIP3  H2           12.0400829013        3.8366067514       -2.6906949090  CLST         580          1.0000000000
      1741       581  TIP3  OH2          13.0192530237      -11.7125037095        3.4503140006  CLST         581          1.0000000000
      1742       581  TIP3  H1           12.9261896610      -11.9246327319        2.5157689201  CLST         581          1.0000000000
      1743       581  TIP3  H2           13.9572723663      -11.8653112534        3.4974939920  CLST         581          1.0000000000
      1744       582  TIP3  OH2           6.2336777658       10.5343721548       -7.1839537524  CLST         582          1.0000000000
      1745       582  TIP3  H1            5.4422145245       10.2973458240       -6.6994578727  CLST         582          1.0000000000
      1746       582  TIP3  H2            6.4438252562       10.8665462288       -6.2651994685  CLST         582          1.0000000000
      1747       583  TIP3  OH2          -2.4930962740        4.6296778495      -11.0111400694  CLST         583          1.0000000000
      1748       583  TIP3  H1           -2.8428728172        3.7105821195      -11.3080755095  CLST         583          1.0000000000
      1749       583  TIP3  H2           -1.7044737448        4.1194660880      -11.3466357639  CLST         583          1.0000000000
      1750       584  TIP3  OH2           2.0267463257       -4.0456920626      -10.2277201043  CLST         584          1.0000000000
      1751       584  TIP3  H1            2.9563489246       -4.3029057344      -10.2416795373  CLST         584          1.0000000000
      1752       584  TIP3  H2            2.3207434690       -3.5599189618       -9.4549622650  CLST         584          1.0000000000
      1753       585  TIP3  OH2         -13.9331138235        1.1112253354       -1.8680198096  CLST         585          1.0000000000
      1754       585  TIP3  H1          -13.7409335409        1.8518044481       -2.4472933095  CLST         585          1.0000000000
      1755       585  TIP3  H2          -14.7278734756        0.7910836128       -2.2359641250  CLST         585          1.0000000000
      1756       586  TIP3  OH2          -7.5505340169        8.2467680060       10.4075892261  CLST         586          1.0000000000
      1757       586  TIP3  H1           -7.2646076185        8.9767403399        9.5905217558  CLST         586          1.0000000000
      1758       586  TIP3  H2           -6.8427956152        7.9851785914        9.4975857814  CLST         586          1.0000000000
      1759       587  TIP3  OH2           4.6521101969        4.7674495074       -9.7942552953  CLST         587          1.0000000000
      1760       587  TIP3  H1            3.7234325066        5.0130843215       -9.5880292150  CLST         587          1.0000000000
      1761       587  TIP3  H2            4.2719665074        4.5985391385      -10.6312981791  CLST         587          1.0000000000
      1762       588  TIP3  OH2           4.9941009685       -9.8510291438      -13.8377003583  CLST         588          1.0000000000
      1763       588  TIP3  H1            4.1097072638      -10.1419194740      -13.7417754641  CLST         588          1.0000000000
      1764       588  TIP3  H2            4.9375782802       -9.4213897359      -12.9659028961  CLST         588          1.0000000000
      1765       589  TIP3  OH2           0.2984663640      -14.3685372606        3.3255944826  CLST         589          1.0000000000
      1766       589  TIP3  H1           -0.4605347162      -14.8093742821        2.9012508278  CLST         589          1.0000000000
      1767       589  TIP3  H2           -0.4412830868      -14.1747397929        4.0108925627  CLST         589          1.0000000000
      1768       590  TIP3  OH2           2.5530041873        1.8145671959       -8.5551365574  CLST         590          1.0000000000
      1769       590  TIP3  H1            2.0411694568        2.5734087921       -8.9458034656  CLST         590          1.0000000000
      1770       590  TIP3  H2            2.1616260306        1.5274691977       -9.4128237819  CLST         590          1.0000000000
      1771       591  TIP3  OH2         -12.7086115166        0.9932208182       -6.6608066965  CLST         591          1.0000000000
      1772       591  TIP3  H1          -11.7584446212        0.9312082549       -6.5112020674  CLST         591          1.0000000000
      1773       591  TIP3  H2          -12.5923946280        1.9170003692       -6.4408964902  CLST         591          1.0000000000
      1774       592  TIP3  OH2          -3.9651814866       -3.7108105503       -6.2784360483  CLST         592          1.0000000000
      1775       592  TIP3  H1           -3.2367087428       -3.6386493515       -6.9197950288  CLST         592          1.0000000000
      1776       592  TIP3  H2           -4.5222255652       -4.1919971504       -6.9867653525  CLST         592          1.0000000000
      1777       593  TIP3  OH2          -1.5362971804        5.0751967957       -4.5887212796  CLST         593          1.0000000000
      1778       593  TIP3  H1           -1.3588517680        6.0065976242       -4.3555948157  CLST         593          1.0000000000
      1779       593  TIP3  H2           -0.7882611751        5.3146086665       -5.2404424247  CLST         593          1.0000000000
      1780       594  TIP3  OH2          11.2926525518       10.4635702283       13.6285932697  CLST         594          1.0000000000
      1781       594  TIP3  H1           11.1975491342        9.4708391486       14.2632302934  CLST         594          1.0000000000
      1782       594  TIP3  H2           10.5020582241       10.2837360362       14.0703426127  CLST         594          1.0000000000
      1783       595  TIP3  OH2          -9.1050846189       13.4876107988        4.1867662993  CLST         595          1.0000000000
      1784       595  TIP3  H1           -9.7543741553       14.0262737907        3.7348710935  CLST         595          1.0000000000
      1785       595  TIP3  H2           -9.4540718048       12.6959823623        3.7452667635  CLST         595          1.0000000000
      1786       596  TIP3  OH2         -13.8704609323       -0.5742168232        8.7382096883  CLST         596          1.0000000000
      1787       596  TIP3  H1          -14.2463279629       -1.2226068167        9.2549849273  CLST         596          1.0000000000
      1788       596  TIP3  H2          -13.3081304582       -0.7967143702        7.9945950619  CLST         596          1.0000000000
      1789       597  TIP3  OH2          -2.8515228199       -5.3106155787       -4.3587415887  CLST         597          1.0000000000
      1790       597  TIP3  H1           -2.7142771876       -5.7739371777       -5.1808520609  CLST         597          1.0000000000
      1791       597  TIP3  H2           -3.4303145903       -4.7479037962       -4.9000836977  CLST         597          1.0000000000
      1792       598  TIP3  OH2          -8.1391949614       -9.3798513598       -9.3111113581  CLST         598          1.0000000000
      1793       598  TIP3  H1           -8.9514696931       -9.8167705706       -9.1339010068  CLST         598          1.0000000000
      1794       598  TIP3  H2           -8.5208976418       -9.2314838252      -10.1770487981  CLST         598          1.0000000000
      1795       599  TIP3  OH2          11.9826023483        0.1265564825      -12.8428409711  CLST         599          1.0000000000
      1796       599  TIP3  H1           12.0673203036        1.0344868338      -12.9994572919  CLST         599          1.0000000000
      1797       599  TIP3  H2           11.9597225833       -0.1133922181      -13.7809307937  CLST         599          1.0000000000
      1798       600  TIP3  OH2          14.0574745636       -9.6586999899        1.6123668911  CLST         600          1.0000000000
      1799       600  TIP3  H1           14.8635344087      -10.0439242111        1.3671131481  CLST         600          1.0000000000
      1800       600  TIP3  H2           13.6637320535      -10.2033441257        0.8954424844  CLST         600          1.0000000000
      1801       601  TIP3  OH2          -2.1186910909       13.2194831514       -8.4416991327  CLST         601          1.0000000000
      1802       601  TIP3  H1           -1.3984905577       13.2423781293       -7.7639146506  CLST         601          1.0000000000
      1803       601  TIP3  H2           -1.4802933627       13.7756875227       -8.8729706415  CLST         601          1.0000000000
      1804       602  TIP3  OH2          13.6670807140       -3.2637395688        8.6021735839  CLST         602          1.0000000000
      1805       602  TIP3  H1           13.4168112114       -2.8520770281        7.7364924845  CLST         602          1.0000000000
      1806       602  TIP3  H2           14.0099912859       -3.9442720467        8.0466691590  CLST         602          1.0000000000
      1807       603  TIP3  OH2          -8.1565264107       -9.4327477641      -11.9623157690  CLST         603          1.0000000000
      1808       603  TIP3  H1           -8.9349361660       -8.8117671439      -12.0463192017  CLST         603          1.0000000000
      1809       603  TIP3  H2           -8.8236670701      -10.1217096826      -11.9695451700  CLST         603          1.0000000000
      1810       604  TIP3  OH2          -0.0924884873       -8.0257219268       12.1496801316  CLST         604          1.0000000000
      1811       604  TIP3  H1            0.2567287381       -7.1006983288       12.0569514594  CLST         604          1.0000000000
      1812       604  TIP3  H2            0.7367201432       -8.2409371361       12.5760155778  CLST         604          1.0000000000
      1813       605  TIP3  OH2           9.7870098118        7.9799673014        4.0550981885  CLST         605          1.0000000000
      1814       605  TIP3  H1            9.1480525232        8.6581151838        4.0668897913  CLST         605          1.0000000000
      1815       605  TIP3  H2           10.4140528514        8.4387969781        3.6522597621  CLST         605          1.0000000000
      1816       606  TIP3  OH2           0.8645608923        9.0367278508       -6.5371975154  CLST         606          1.0000000000
      1817       606  TIP3  H1            0.9905245851        9.6843620783       -5.7944049552  CLST         606          1.0000000000
      1818       606  TIP3  H2           -0.0365479509        9.3814413098       -6.6625734131  CLST         606          1.0000000000
      1819       607  TIP3  OH2          -5.1408352876        1.3307898539      -13.7538641938  CLST         607          1.0000000000
      1820       607  TIP3  H1           -6.1029549124        1.3135125920      -13.5353314015  CLST         607          1.0000000000
      1821       607  TIP3  H2           -5.6699325895        1.1057148944      -14.6224237986  CLST         607          1.0000000000
      1822       608  TIP3  OH2          -2.4462188576       -0.4212673164      -11.3199703266  CLST         608          1.0000000000
      1823       608  TIP3  H1           -1.6564389749        0.3345035201      -11.5269476722  CLST         608          1.0000000000
      1824       608  TIP3  H2           -2.1734748872        0.0093838264      -12.3489264682  CLST         608          1.0000000000
      1825       609  TIP3  OH2           3.8795993578        8.4612513945        3.1184922280  CLST         609          1.0000000000
      1826       609  TIP3  H1            3.9793758344        8.7320139736        4.0111721704  CLST         609          1.0000000000
      1827       609  TIP3  H2            4.7382359070        8.0252589628        3.1824713124  CLST         609          1.0000000000
      1828       610  TIP3  OH2          -7.9060776653       -9.1454585925       11.7409994445  CLST         610          1.0000000000
      1829       610  TIP3  H1           -8.0692540688       -9.6825933665       10.8102754299  CLST         610          1.0000000000
      1830       610  TIP3  H2           -7.1883156096       -9.8798561547       11.2278949471  CLST         610          1.0000000000
      1831       611  TIP3  OH2          13.8137307056       -4.2421637222        6.3240710329  CLST         611          1.0000000000
      1832       611  TIP3  H1           14.4025366473       -4.8603400461        5.8748441082  CLST         611          1.0000000000
      1833       611  TIP3  H2           13.8754337687       -3.7666938946        5.5044609381  CLST         611          1.0000000000
      1834       612  TIP3  OH2          -9.0026197170      -10.4961478556        6.3553213408  CLST         612          1.0000000000
      1835       612  TIP3  H1           -8.1271663261      -10.3547109190        5.8411360766  CLST         612          1.0000000000
      1836       612  TIP3  H2           -9.2531592763       -9.7856675654        5.6942727206  CLST         612          1.0000000000
      1837       613  TIP3  OH2           2.6637576884       -2.3742502219       14.4275075644  CLST         613          1.0000000000
      1838       613  TIP3  H1            2.3599457718       -3.1334876810       14.8934714496  CLST         613          1.0000000000
      1839       613  TIP3  H2            1.7810164095       -2.2743647947       13.9818017618  CLST         613          1.0000000000
      1840       614  TIP3  OH2           1.2764670477        4.6881545745       -9.1456203341  CLST         614          1.0000000000
      1841       614  TIP3  H1            1.8246364939        4.8177590628       -8.3387074738  CLST         614          1.0000000000
      1842       614  TIP3  H2            1.1702620788        5.6500539573       -9.1199860555  CLST         614          1.0000000000
      1843       615  TIP3  OH2           1.3368587463        4.6900271082        7.1259513303  CLST         615          1.0000000000
      1844       615  TIP3  H1            1.7655737200        5.1061900624        7.8260171353  CLST         615          1.0000000000
      1845       615  TIP3  H2            1.9384435589        4.8358402260        6.4430993236  CLST         615          1.0000000000
      1846       616  TIP3  OH2          -8.1214744921        4.3106958116       -7.3041326197  CLST         616          1.0000000000
      1847       616  TIP3  H1           -8.3428151908        3.8716917996       -8.1567122914  CLST         616          1.0000000000
      1848       616  TIP3  H2           -7.4449588491        4.7029092999       -7.8583240932  CLST         616          1.0000000000
      1849       617  TIP3  OH2          14.6420405918        2.1679905226       11.6001221582  CLST         617          1.0000000000
      1850       617  TIP3  H1           14.7067561621        1.6916837924       12.4975902845  CLST         617          1.0000000000
      1851       617  TIP3  H2           13.8329742007        2.4599996604       12.0322563973  CLST         617          1.0000000000
      1852       618  TIP3  OH2          -6.9378000583        3.2496154896        2.7176229091  CLST         618          1.0000000000
      1853       618  TIP3  H1           -6.4645839925        3.9127953511        2.1789875207  CLST         618          1.0000000000
      1854       618  TIP3  H2           -6.4301646186        3.5520855637        3.4766586303  CLST         618          1.0000000000
      1855       619  TIP3  OH2           1.4318835636        5.3083481414       -2.5718398723  CLST         619          1.0000000000
      1856       619  TIP3  H1            0.7366598892        4.6958799868       -2.3597940492  CLST         619          1.0000000000
      1857       619  TIP3  H2            0.7728130323        6.0097716072       -2.7851419044  CLST         619          1.0000000000
      1858       620  TIP3  OH2          -3.6163000518        8.6973401563       -5.6931313424  CLST         620          1.0000000000
      1859       620  TIP3  H1           -3.5740107324        8.0857479317       -4.9805134523  CLST         620          1.0000000000
      1860       620  TIP3  H2           -4.1080366299        8.0413482599       -6.1593458917  CLST         620          1.0000000000
      1861       621  TIP3  OH2           1.0301932798        7.3049603868       -8.5038002423  CLST         621          1.0000000000
      1862       621  TIP3  H1            1.3820963290        8.0842859511       -8.0202550766  CLST         621          1.0000000000
      1863       621  TIP3  H2            0.8295139109        7.8417861381       -9.3363302505  CLST         621          1.0000000000
      1864       622  TIP3  OH2           1.8362209084       10.5086872968        3.8646220829  CLST         622          1.0000000000
      1865       622  TIP3  H1            1.9402676297       10.4967050800        4.8169337532  CLST         622          1.0000000000
      1866       622  TIP3  H2            1.0800180342        9.9733231612        4.2083698048  CLST         622          1.0000000000
      1867       623  TIP3  OH2          -0.2283582679       11.9998970716        2.9034950934  CLST         623          1.0000000000
      1868       623  TIP3  H1            0.4848212492       11.9966228304        2.4168143280  CLST         623          1.0000000000
      1869       623  TIP3  H2            0.8232958363       11.9623021196        3.3380550387  CLST         623          1.0000000000
      1870       624  TIP3  OH2          -8.9201973009       -1.9182880868       -3.8607741805  CLST         624          1.0000000000
      1871       624  TIP3  H1           -8.8074461789       -1.3741729022       -4.6934188476  CLST         624          1.0000000000
      1872       624  TIP3  H2           -9.8242737693       -1.5359545704       -3.9549583469  CLST         624          1.0000000000
      1873       625  TIP3  OH2          -9.9134771804      -13.1465724793       -9.0107733628  CLST         625          1.0000000000
      1874       625  TIP3  H1          -10.1349786551      -12.3691147012       -8.5215560018  CLST         625          1.0000000000
      1875       625  TIP3  H2           -9.5363040462      -13.5059425557       -8.1883997621  CLST         625          1.0000000000
      1876       626  TIP3  OH2          12.9755205942       -5.4292594635       -2.8376224987  CLST         626          1.0000000000
      1877       626  TIP3  H1           12.5700371756       -6.2094057940       -3.2058123334  CLST         626          1.0000000000
      1878       626  TIP3  H2           13.3464646107       -5.2673121073       -3.7108060352  CLST         626          1.0000000000
      1879       627  TIP3  OH2          -1.1062818158      -11.4528722019        8.1249897964  CLST         627          1.0000000000
      1880       627  TIP3  H1           -0.1182644154      -11.5947747425        8.6559781043  CLST         627          1.0000000000
      1881       627  TIP3  H2           -0.6211792558      -12.2079566010        8.0662321140  CLST         627          1.0000000000
      1882       628  TIP3  OH2           6.9997764289        9.0249434136       -9.3371521829  CLST         628          1.0000000000
      1883       628  TIP3  H1            6.9876782796        9.9148175909       -9.6389663096  CLST         628          1.0000000000
      1884       628  TIP3  H2            6.6591787471        9.4004388569       -8.5256568434  CLST         628          1.0000000000
      1885       629  TIP3  OH2          -9.8591552168       -0.0775199814       -9.8027514516  CLST         629          1.0000000000
      1886       629  TIP3  H1           -9.0142480391       -0.1371990756      -10.4850867803  CLST         629          1.0000000000
      1887       629  TIP3  H2           -8.9452154943       -0.4654645786       -9.5423430593  CLST         629          1.0000000000
      1888       630  TIP3  OH2          11.7486154691       12.0774933458       11.6309719329  CLST         630          1.0000000000
      1889       630  TIP3  H1           11.0086385728       12.7220403133       11.6153252975  CLST         630          1.0000000000
      1890       630  TIP3  H2           11.2316423443       11.7384883204       12.3477757876  CLST         630          1.0000000000
      1891       631  TIP3  OH2         -12.0509364057      -11.4692230961      -11.2985091634  CLST         631          1.0000000000
      1892       631  TIP3  H1          -12.4112827974      -11.0571278590      -12.3721242555  CLST         631          1.0000000000
      1893       631  TIP3  H2          -12.5281530512      -12.3373049858      -11.2420061449  CLST         631          1.0000000000
      1894       632  TIP3  OH2          11.0201347533        2.3897052390        9.2816384209  CLST         632          1.0000000000
      1895       632  TIP3  H1           11.1755073585        1.8869644316       10.0255307490  CLST         632          1.0000000000
      1896       632  TIP3  H2           11.4525510923        1.6708849344        8.8675680286  CLST         632          1.0000000000
      1897       633  TIP3  OH2          -4.5189797016        6.5591759643       10.3603613261  CLST         633          1.0000000000
      1898       633  TIP3  H1           -4.3118144167        5.6262241969       10.5286541716  CLST         633          1.0000000000
      1899       633  TIP3  H2           -5.3348640881        6.2049168027       10.0479778951  CLST         633          1.0000000000
      1900       634  TIP3  OH2          -2.4651869992       -7.2127357055        6.6649455183  CLST         634          1.0000000000
      1901       634  TIP3  H1           -2.4235427064       -8.1450188431        6.9154789013  CLST         634          1.0000000000
      1902       634  TIP3  H2           -2.1902919243       -7.0628816847        7.5948559256  CLST         634          1.0000000000
      1903       635  TIP3  OH2           2.7643503594        2.8088394844       -2.1157011154  CLST         635          1.0000000000
      1904       635  TIP3  H1            2.4483321271        3.3468415976       -3.0117242528  CLST         635          1.0000000000
      1905       635  TIP3  H2            2.5780473087        2.3421703559       -3.1163197198  CLST         635          1.0000000000
      1906       636  TIP3  OH2           5.1575836685       -2.5657766305      -10.1904368191  CLST         636          1.0000000000
      1907       636  TIP3  H1            4.8278236725       -2.1453998436      -11.0160790106  CLST         636          1.0000000000
      1908       636  TIP3  H2            4.9799509175       -1.6486204989       -9.7721839016  CLST         636          1.0000000000
      1909       637  TIP3  OH2           3.6067133494       11.1722848107      -10.2231550093  CLST         637          1.0000000000
      1910       637  TIP3  H1            4.2620633094       11.4468110615       -9.6087567994  CLST         637          1.0000000000
      1911       637  TIP3  H2            3.2333201805       10.7305432830       -9.4556883680  CLST         637          1.0000000000
      1912       638  TIP3  OH2           8.7318622442      -12.1856555288       -7.0752094233  CLST         638          1.0000000000
      1913       638  TIP3  H1            8.6785668375      -12.7345974875       -7.9006844931  CLST         638          1.0000000000
      1914       638  TIP3  H2            9.4782132506      -11.7559955565       -7.6194118700  CLST         638          1.0000000000
      1915       639  TIP3  OH2           7.3118883026      -13.3816636367       -8.9019675584  CLST         639          1.0000000000
      1916       639  TIP3  H1            6.4268437023      -13.4793872960       -9.2083599375  CLST         639          1.0000000000
      1917       639  TIP3  H2            7.4511938115      -14.3314940692       -8.9478763547  CLST         639          1.0000000000
      1918       640  TIP3  OH2          -9.7994350144       -3.2496182700      -10.3097387218  CLST         640          1.0000000000
      1919       640  TIP3  H1           -8.8407412148       -3.1362635355      -10.2018681561  CLST         640          1.0000000000
      1920       640  TIP3  H2           -9.6986650677       -3.0491674286       -9.3683086464  CLST         640          1.0000000000
      1921       641  TIP3  OH2         -13.7416288676       -2.8079505695      -13.2054055676  CLST         641          1.0000000000
      1922       641  TIP3  H1          -13.4078555321       -3.9102208346      -13.3706129394  CLST         641          1.0000000000
      1923       641  TIP3  H2          -12.7848257515       -3.0978472865      -12.8664516741  CLST         641          1.0000000000
      1924       642  TIP3  OH2          -1.8977090242        1.9260693583       11.0852362278  CLST         642          1.0000000000
      1925       642  TIP3  H1           -1.2808428440        1.7878456322       11.7813481667  CLST         642          1.0000000000
      1926       642  TIP3  H2           -2.3461793424        1.2508722825       11.5616251029  CLST         642          1.0000000000
      1927       643  TIP3  OH2         -13.9179496049       -2.8526321100        3.6173081016  CLST         643          1.0000000000
      1928       643  TIP3  H1          -13.3197985425       -2.5084781493        4.3206820154  CLST         643          1.0000000000
      1929       643  TIP3  H2          -14.5883912097       -2.2683780838        3.8943212707  CLST         643          1.0000000000
      1930       644  TIP3  OH2          12.9102900182       -2.9195141781        1.3201560442  CLST         644          1.0000000000
      1931       644  TIP3  H1           13.8294348446       -2.5786324089        1.3519199052  CLST         644          1.0000000000
      1932       644  TIP3  H2           13.2999729556       -3.5318447283        0.6207838550  CLST         644          1.0000000000
      1933       645  TIP3  OH2          -6.5525843615        6.3365618152        8.7350574873  CLST         645          1.0000000000
      1934       645  TIP3  H1           -7.1663430916        6.4772390241        8.0385430741  CLST         645          1.0000000000
      1935       645  TIP3  H2           -6.5070839277        5.3660756282        8.5527006442  CLST         645          1.0000000000
      1936       646  TIP3  OH2           6.7331861609      -11.4522801375       12.1313376653  CLST         646          1.0000000000
      1937       646  TIP3  H1            5.8060391456      -11.5246514027       12.1645553219  CLST         646          1.0000000000
      1938       646  TIP3  H2            6.9273471762      -12.3076690084       11.7479946599  CLST         646          1.0000000000
      1939       647  TIP3  OH2         -12.7851618672       -9.1385007368       -7.3220167343  CLST         647          1.0000000000
      1940       647  TIP3  H1          -13.2594231621       -9.0107278041       -6.4944667569  CLST         647          1.0000000000
      1941       647  TIP3  H2          -12.1887702853       -9.4147802361       -6.5858798885  CLST         647          1.0000000000
      1942       648  TIP3  OH2         -13.8009215158        3.3713178652       -6.1444390040  CLST         648          1.0000000000
      1943       648  TIP3  H1          -14.5967437675        3.8457169721       -5.9298492505  CLST         648          1.0000000000
      1944       648  TIP3  H2          -13.5900642393        3.2058942123       -5.1699040058  CLST         648          1.0000000000
      1945       649  TIP3  OH2          -1.6227066439       -3.2545528135       -7.9234866763  CLST         649          1.0000000000
      1946       649  TIP3  H1           -0.7749449189       -3.0472516724       -7.5391482985  CLST         649          1.0000000000
      1947       649  TIP3  H2           -1.3115147545       -4.1310217716       -7.9829149536  CLST         649          1.0000000000
      1948       650  TIP3  OH2          -4.4456247291       -3.3716851315      -11.6286932289  CLST         650          1.0000000000
      1949       650  TIP3  H1           -3.4034892027       -2.9634969536      -11.3108586818  CLST         650          1.0000000000
      1950       650  TIP3  H2           -4.1357832050       -2.3986884544      -11.4032617053  CLST         650          1.0000000000
      1951       651  TIP3  OH2           0.8666459959       -4.1890024923       14.6403951508  CLST         651          1.0000000000
      1952       651  TIP3  H1            1.0576760480       -4.3856740678       13.7195135961  CLST         651          1.0000000000
      1953       651  TIP3  H2            0.1470572956       -4.8308838361       14.7423418856  CLST         651          1.0000000000
      1954       652  TIP3  OH2           2.2463327486       -9.0122749787       10.1316841219  CLST         652          1.0000000000
      1955       652  TIP3  H1            2.3127653736       -8.4327822722       10.9333432038  CLST         652          1.0000000000
      1956       652  TIP3  H2            1.9806335498       -8.2563795180        9.5694700891  CLST         652          1.0000000000
      1957       653  TIP3  OH2          13.7938313515        1.1907340541       -2.5058779709  CLST         653          1.0000000000
      1958       653  TIP3  H1           12.8904126966        1.0104646179       -2.8038528022  CLST         653          1.0000000000
      1959       653  TIP3  H2           13.9290825424        1.3309979826       -3.4347074125  CLST         653          1.0000000000
      1960       654  TIP3  OH2          -5.9908679626        8.8306042205       12.9326281590  CLST         654          1.0000000000
      1961       654  TIP3  H1           -5.0983293955        9.0768329358       13.0502996775  CLST         654          1.0000000000
      1962       654  TIP3  H2           -5.8639981351        8.3305203367       12.1535058885  CLST         654          1.0000000000
      1963       655  TIP3  OH2          -4.2405638648        1.3503880983       12.8296023513  CLST         655          1.0000000000
      1964       655  TIP3  H1           -4.5203376287        0.5290806321       12.3953688833  CLST         655          1.0000000000
      1965       655  TIP3  H2           -5.1781904547        1.2392688386       13.1703930461  CLST         655          1.0000000000
      1966       656  TIP3  OH2         -13.7889441798       -4.4978888226      -10.7022955223  CLST         656          1.0000000000
      1967       656  TIP3  H1          -14.5999659775       -3.9358337608      -10.8599085876  CLST         656          1.0000000000
      1968       656  TIP3  H2          -13.7166678505       -5.0571376470      -11.4933193047  CLST         656          1.0000000000
      1969       657  TIP3  OH2           4.5803854110       -0.9395499242        5.1405103059  CLST         657          1.0000000000
      1970       657  TIP3  H1            5.2693454336       -0.3675579053        5.4385565402  CLST         657          1.0000000000
      1971       657  TIP3  H2            4.1224035089       -0.6105343437        5.9169789345  CLST         657          1.0000000000
      1972       658  TIP3  OH2         -13.9149069937       -7.3372310263       -4.8209887068  CLST         658          1.0000000000
      1973       658  TIP3  H1          -13.8339756474       -6.5665133272       -5.4378564904  CLST         658          1.0000000000
      1974       658  TIP3  H2          -14.8541851257       -7.1452722690       -5.0753103796  CLST         658          1.0000000000
      1975       659  TIP3  OH2           9.4470441261      -13.1311466532        9.7655254572  CLST         659          1.0000000000
      1976       659  TIP3  H1            9.0312992616      -12.4021720592        9.3189774234  CLST         659          1.0000000000
      1977       659  TIP3  H2            8.4941349990      -13.4835634402        9.9061766922  CLST         659          1.0000000000
      1978       660  TIP3  OH2         -14.4557598827       -8.8927229044        6.3111117130  CLST         660          1.0000000000
      1979       660  TIP3  H1          -14.8064693922       -9.7454087977        6.7065387836  CLST         660          1.0000000000
      1980       660  TIP3  H2          -13.6144744415       -9.1038378384        6.8480616446  CLST         660          1.0000000000
      1981       661  TIP3  OH2           2.9598650351        0.8860014813       -4.5422327828  CLST         661          1.0000000000
      1982       661  TIP3  H1            2.1910110152        1.3159028962       -4.9422836284  CLST         661          1.0000000000
      1983       661  TIP3  H2            2.5546611166       -0.0214921992       -4.5740594270  CLST         661          1.0000000000
      1984       662  TIP3  OH2          -8.7746547026       -4.9936158885        1.0054410289  CLST         662          1.0000000000
      1985       662  TIP3  H1           -9.5416391929       -5.1643465742        0.4368982491  CLST         662          1.0000000000
      1986       662  TIP3  H2           -9.1268844768       -4.0674769404        0.8926964809  CLST         662          1.0000000000
      1987       663  TIP3  OH2           6.0928785016       -2.0585323150        3.4576182226  CLST         663          1.0000000000
      1988       663  TIP3  H1            5.6283123916       -2.0016692590        4.2942274831  CLST         663          1.0000000000
      1989       663  TIP3  H2            5.7074081153       -2.8824398971        3.2863698653  CLST         663          1.0000000000
      1990       664  TIP3  OH2          10.4803002567      -14.2223805999        2.4421392111  CLST         664          1.0000000000
      1991       664  TIP3  H1           10.0150327820      -13.5839184425        2.9438283661  CLST         664          1.0000000000
      1992       664  TIP3  H2           10.4164768328      -14.8934714496        3.1643784783  CLST         664          1.0000000000
      1993       665  TIP3  OH2           9.4252566545       10.4205357138      -14.1142178572  CLST         665          1.0000000000
      1994       665  TIP3  H1            8.8662121730        9.6257239057      -14.7530116877  CLST         665          1.0000000000
      1995       665  TIP3  H2            8.8410792343       10.7102710464      -14.7146207319  CLST         665          1.0000000000
      1996       666  TIP3  OH2         -11.6797342782       -7.9202053493       -9.1359078431  CLST         666          1.0000000000
      1997       666  TIP3  H1          -11.5591010031       -7.8379699807       -8.1672988719  CLST         666          1.0000000000
      1998       666  TIP3  H2          -12.5931267920       -8.2515460195       -8.9554839704  CLST         666          1.0000000000
      1999       667  TIP3  OH2         -11.0960634345        5.4726330168        7.8826158215  CLST         667          1.0000000000
      2000       667  TIP3  H1          -11.5090239358        5.0152182379        8.6235492265  CLST         667          1.0000000000
      2001       667  TIP3  H2          -10.6177854721        5.9491938785        8.5050916249  CLST         667          1.0000000000
      2002       668  TIP3  OH2         -12.3564970082        0.0225629439        0.2464315821  CLST         668          1.0000000000
      2003       668  TIP3  H1          -12.7846799242        0.3004421316        1.0506513507  CLST         668          1.0000000000
      2004       668  TIP3  H2          -13.1580403342        0.3091312620       -0.2329556590  CLST         668          1.0000000000
      2005       669  TIP3  OH2          -3.4909491000      -11.4732739019        5.3350633196  CLST         669          1.0000000000
      2006       669  TIP3  H1           -3.7151790946      -11.9480585049        4.5434943726  CLST         669          1.0000000000
      2007       669  TIP3  H2           -3.6701518541      -10.7021539759        4.7317792963  CLST         669          1.0000000000
      2008       670  TIP3  OH2          -6.2980553727       -2.4754539347        0.9169886920  CLST         670          1.0000000000
      2009       670  TIP3  H1           -7.0265433390       -1.8546049987        1.1812106307  CLST         670          1.0000000000
      2010       670  TIP3  H2           -6.2544230760       -1.8631691236        0.1589233788  CLST         670          1.0000000000
      2011       671  TIP3  OH2           4.1573302018       -9.3988815005      -10.9869046330  CLST         671          1.0000000000
      2012       671  TIP3  H1            3.5940027772       -9.2383023296      -10.2661710882  CLST         671          1.0000000000
      2013       671  TIP3  H2            4.9140066369       -8.7462030399      -10.9258523621  CLST         671          1.0000000000
      2014       672  TIP3  OH2          11.9659213441      -12.7151470329        9.2211996707  CLST         672          1.0000000000
      2015       672  TIP3  H1           11.2448266820      -13.0566715356        9.8403634187  CLST         672          1.0000000000
      2016       672  TIP3  H2           12.5598454817      -13.2811654220        9.7956743512  CLST         672          1.0000000000
      2017       673  TIP3  OH2           6.6160252092       -4.4449105525        7.1048298025  CLST         673          1.0000000000
      2018       673  TIP3  H1            7.4696713579       -4.0259230853        6.9139163111  CLST         673          1.0000000000
      2019       673  TIP3  H2            7.0711071233       -4.6692504286        7.9441594901  CLST         673          1.0000000000
      2020       674  TIP3  OH2          -4.2142807385       -1.0378383267        3.3205896772  CLST         674          1.0000000000
      2021       674  TIP3  H1           -3.6731333402       -2.0077724781        3.3714760874  CLST         674          1.0000000000
      2022       674  TIP3  H2           -3.9737322570       -1.4917110924        2.6859744595  CLST         674          1.0000000000
      2023       675  TIP3  OH2          -9.1692002947        2.3406749148       -3.2799328706  CLST         675          1.0000000000
      2024       675  TIP3  H1           -8.5904227224        1.8886944971       -2.6231261929  CLST         675          1.0000000000
      2025       675  TIP3  H2           -9.8524736581        2.1101490729       -2.6529363963  CLST         675          1.0000000000
      2026       676  TIP3  OH2         -13.6395027520        0.0417965888      -13.7394170294  CLST         676          1.0000000000
      2027       676  TIP3  H1          -14.1956374688       -0.9583382721      -13.8158982622  CLST         676          1.0000000000
      2028       676  TIP3  H2          -13.6028776658       -0.4915233407      -13.0531897125  CLST         676          1.0000000000
      2029       677  TIP3  OH2           2.0913369571      -12.0732470592        2.4309505914  CLST         677          1.0000000000
      2030       677  TIP3  H1            2.3467910779      -11.8151156061        1.5210983392  CLST         677          1.0000000000
      2031       677  TIP3  H2            1.9919855339      -12.9378379380        2.0908795294  CLST         677          1.0000000000
      2032       678  TIP3  OH2          11.3555815902       -7.0690146238       -8.2807105425  CLST         678          1.0000000000
      2033       678  TIP3  H1           12.3482674851       -7.3276072754       -8.2829814913  CLST         678          1.0000000000
      2034       678  TIP3  H2           12.1976012328       -6.2852620724       -8.5934765528  CLST         678          1.0000000000
      2035       679  TIP3  OH2           7.7401052755      -10.1855564220      -14.3763446412  CLST         679          1.0000000000
      2036       679  TIP3  H1            7.2301165893       -9.3794062976      -14.5182206297  CLST         679          1.0000000000
      2037       679  TIP3  H2            6.8243764652      -10.5525584324      -14.4651854402  CLST         679          1.0000000000
      2038       680  TIP3  OH2          10.0063509062       -7.9991471685       -1.6194169985  CLST         680          1.0000000000
      2039       680  TIP3  H1           10.2024886425       -8.9379956793       -1.8740573173  CLST         680          1.0000000000
      2040       680  TIP3  H2            9.3886852123       -8.0168703312       -2.3866601201  CLST         680          1.0000000000
      2041       681  TIP3  OH2           7.5603775875        8.9391695074       11.0367372821  CLST         681          1.0000000000
      2042       681  TIP3  H1            8.2999840678        8.4737358292       10.8235978180  CLST         681          1.0000000000
      2043       681  TIP3  H2            8.4159453204        9.5315134168       10.5427179018  CLST         681          1.0000000000
      2044       682  TIP3  OH2           7.9309391044       14.0804931584        1.7533083880  CLST         682          1.0000000000
      2045       682  TIP3  H1            7.2931262935       13.6600699189        1.0919620598  CLST         682          1.0000000000
      2046       682  TIP3  H2            7.0799235372       14.5562967692        1.9498941781  CLST         682          1.0000000000
      2047       683  TIP3  OH2           3.5266076461       11.9070975318      -14.8934714496  CLST         683          1.0000000000
      2048       683  TIP3  H1            3.1497886925       12.2154441032      -14.1043148365  CLST         683          1.0000000000
      2049       683  TIP3  H2            3.3488625568       11.0545496981      -14.4190063040  CLST         683          1.0000000000
      2050       684  TIP3  OH2          12.4900360763        2.6943975796      -12.7431906109  CLST         684          1.0000000000
      2051       684  TIP3  H1           12.0035217731        2.7167896399      -11.9005067886  CLST         684          1.0000000000
      2052       684  TIP3  H2           13.2136175833        2.8913943376      -12.1609474343  CLST         684          1.0000000000
      2053       685  TIP3  OH2           3.8476928648       13.3880109566        2.3752921073  CLST         685          1.0000000000
      2054       685  TIP3  H1            3.6414238176       12.4774296494        2.1669797282  CLST         685          1.0000000000
      2055       685  TIP3  H2            3.5528440099       13.6069087151        1.5028673669  CLST         685          1.0000000000
      2056       686  TIP3  OH2          -1.7572353507      -11.6963310178       -5.8680481854  CLST         686          1.0000000000
      2057       686  TIP3  H1           -1.7521449265      -11.8070718822       -4.9375026235  CLST         686          1.0000000000
      2058       686  TIP3  H2           -2.5580010879      -12.4053997697       -5.8205512221  CLST         686          1.0000000000
      2059       687  TIP3  OH2           1.8976186539       11.1997092194       -5.5271461316  CLST         687          1.0000000000
      2060       687  TIP3  H1            1.9322757006       11.2943794372       -4.5793639311  CLST         687          1.0000000000
      2061       687  TIP3  H2            2.8038013277       11.5874146262       -5.5128756640  CLST         687          1.0000000000
      2062       688  TIP3  OH2          -4.6014125227       -1.0478851753      -10.2133521438  CLST         688          1.0000000000
      2063       688  TIP3  H1           -4.2147153826       -0.4961053311       -9.2844340773  CLST         688          1.0000000000
      2064       688  TIP3  H2           -3.8208757373       -0.4910463671      -10.2432201538  CLST         688          1.0000000000
      2065       689  TIP3  OH2         -11.5674493720       -2.7276745475       -7.8545212066  CLST         689          1.0000000000
      2066       689  TIP3  H1          -12.1931235364       -2.3851179073       -7.1921528163  CLST         689          1.0000000000
      2067       689  TIP3  H2          -12.0774124017       -2.2433878266       -8.5437836013  CLST         689          1.0000000000
      2068       690  TIP3  OH2           9.1855342850      -12.2662920836        4.0193921488  CLST         690          1.0000000000
      2069       690  TIP3  H1            9.7257146152      -12.2740524813        4.8798362522  CLST         690          1.0000000000
      2070       690  TIP3  H2            9.8475488117      -11.6224796625        3.7295432148  CLST         690          1.0000000000
      2071       691  TIP3  OH2          -0.6377735574       10.2322787472       13.6791515920  CLST         691          1.0000000000
      2072       691  TIP3  H1           -0.7139648086       11.1847665301       13.5082795251  CLST         691          1.0000000000
      2073       691  TIP3  H2           -0.1663277621       10.4998806419       14.4739028215  CLST         691          1.0000000000
      2074       692  TIP3  OH2           1.5026102494       -6.8539944707        8.5470747691  CLST         692          1.0000000000
      2075       692  TIP3  H1            0.6489752261       -6.2738581777        8.6196193236  CLST         692          1.0000000000
      2076       692  TIP3  H2            1.9150726615       -6.0051972679        8.8737079174  CLST         692          1.0000000000
      2077       693  TIP3  OH2          -9.3505661471       -4.2737178484       -2.9362623613  CLST         693          1.0000000000
      2078       693  TIP3  H1           -8.5404528649       -4.4478027800       -2.3685049168  CLST         693          1.0000000000
      2079       693  TIP3  H2           -8.8735138695       -3.6804372372       -3.5468928312  CLST         693          1.0000000000
      2080       694  TIP3  OH2          -1.8481776100       11.5579735386        5.9324408896  CLST         694          1.0000000000
      2081       694  TIP3  H1           -2.3892374581       12.2469014382        5.9544103362  CLST         694          1.0000000000
      2082       694  TIP3  H2           -1.1332246985       12.4508451677        5.7344653354  CLST         694          1.0000000000
      2083       695  TIP3  OH2           1.5141936622       10.4954952944        7.8514080960  CLST         695          1.0000000000
      2084       695  TIP3  H1            0.9466954583       10.2360433911        7.0859125572  CLST         695          1.0000000000
      2085       695  TIP3  H2            0.9532444190       10.4179326887        8.6517763138  CLST         695          1.0000000000
      2086       696  TIP3  OH2          -4.4995451906        3.2790374870       -6.1491533682  CLST         696          1.0000000000
      2087       696  TIP3  H1           -3.8225911311        3.8897984905       -6.4518906573  CLST         696          1.0000000000
      2088       696  TIP3  H2           -4.5166474313        3.6466936794       -5.2985097434  CLST         696          1.0000000000
      2089       697  TIP3  OH2           2.8749115430        5.5245238777       11.8783238352  CLST         697          1.0000000000
      2090       697  TIP3  H1            2.2545836050        5.7101243462       11.1615838575  CLST         697          1.0000000000
      2091       697  TIP3  H2            3.6655239049        5.5322373702       11.4365056862  CLST         697          1.0000000000
      2092       698  TIP3  OH2          -3.2966266076        5.0023213323       -1.0979665912  CLST         698          1.0000000000
      2093       698  TIP3  H1           -3.9449587487        4.0844265118       -1.1694351730  CLST         698          1.0000000000
      2094       698  TIP3  H2           -4.3273012142        4.8499692391       -1.5820498763  CLST         698          1.0000000000
      2095       699  TIP3  OH2          -1.4526750388       -4.5514650948        3.5476070837  CLST         699          1.0000000000
      2096       699  TIP3  H1           -2.3782321642       -4.5872954489        3.6539587915  CLST         699          1.0000000000
      2097       699  TIP3  H2           -1.1678762034       -4.8092293812        2.6757929058  CLST         699          1.0000000000
      2098       700  TIP3  OH2          -5.0558023695       -8.1934199629        8.8397580635  CLST         700          1.0000000000
      2099       700  TIP3  H1           -5.2392457344       -7.6787343373        7.9966637690  CLST         700          1.0000000000
      2100       700  TIP3  H2           -4.3511623789       -8.7337220375        8.5253579718  CLST         700          1.0000000000
      2101       701  TIP3  OH2         -14.0186821042       10.3332824306        0.1008617444  CLST         701          1.0000000000
      2102       701  TIP3  H1          -13.5701660281        9.5716667889       -0.3937478724  CLST         701          1.0000000000
      2103       701  TIP3  H2          -14.6124923314       10.4026553517       -0.6388343901  CLST         701          1.0000000000
      2104       702  TIP3  OH2          -5.4715824609       -9.4451982910      -12.6156881570  CLST         702          1.0000000000
      2105       702  TIP3  H1           -5.3474571398       -9.7297299655      -11.7088211000  CLST         702          1.0000000000
      2106       702  TIP3  H2           -6.4228821574       -9.4672464472      -12.4326918280  CLST         702          1.0000000000
      2107       703  TIP3  OH2           3.6910935250        6.2110214056       -4.0363987731  CLST         703          1.0000000000
      2108       703  TIP3  H1            2.7450244057        6.2998159990       -3.4276844555  CLST         703          1.0000000000
      2109       703  TIP3  H2            3.2605778080        7.0383511788       -4.1887011161  CLST         703          1.0000000000
      2110       704  TIP3  OH2         -10.1380144440        4.9888858634       11.8338731423  CLST         704          1.0000000000
      2111       704  TIP3  H1          -10.1734940411        5.8882014408       12.2007965619  CLST         704          1.0000000000
      2112       704  TIP3  H2          -10.2212195838        5.6495174473       11.3362080220  CLST         704          1.0000000000
      2113       705  TIP3  OH2          -0.9159936052       -8.9397580978       -7.1310817150  CLST         705          1.0000000000
      2114       705  TIP3  H1           -1.1343579355       -9.8001286465       -7.5382591301  CLST         705          1.0000000000
      2115       705  TIP3  H2           -0.3286089939       -8.8261616619       -7.8213588597  CLST         705          1.0000000000
      2116       706  TIP3  OH2          -2.1862103635       -1.8950295888        4.3896067078  CLST         706          1.0000000000
      2117       706  TIP3  H1           -1.4385978143       -1.5397424724        4.9176049427  CLST         706          1.0000000000
      2118       706  TIP3  H2           -1.5457883815       -2.6074881442        4.1533704416  CLST         706          1.0000000000
      2119       707  TIP3  OH2           8.7166261500       10.7696179565        7.3066239849  CLST         707          1.0000000000
      2120       707  TIP3  H1            8.7102761356       11.2356239964        6.4406779405  CLST         707          1.0000000000
      2121       707  TIP3  H2            7.8797992547       10.4841941616        7.0124230896  CLST         707          1.0000000000
      2122       708  TIP3  OH2          -0.9638308872       -7.4817928390      -12.3625805625  CLST         708          1.0000000000
      2123       708  TIP3  H1           -1.8845233405       -7.6172861564      -12.7372181121  CLST         708          1.0000000000
      2124       708  TIP3  H2           -0.8549664675       -7.3221415795      -13.3221737947  CLST         708          1.0000000000
      2125       709  TIP3  OH2          -6.2667529804       14.0564756567        0.3974449102  CLST         709          1.0000000000
      2126       709  TIP3  H1           -5.3407380394       13.8848114744        0.6505101759  CLST         709          1.0000000000
      2127       709  TIP3  H2           -6.3497486566       14.2515615213        1.3388005733  CLST         709          1.0000000000
      2128       710  TIP3  OH2          -1.0292707382       14.1396275647      -10.4914803952  CLST         710          1.0000000000
      2129       710  TIP3  H1           -0.7317561660       13.4307409677      -11.1130104765  CLST         710          1.0000000000
      2130       710  TIP3  H2           -1.8854095485       13.7559427123      -10.7473621516  CLST         710          1.0000000000
      2131       711  TIP3  OH2          11.5108155694      -10.8486096596      -11.1015234444  CLST         711          1.0000000000
      2132       711  TIP3  H1           11.4861422676      -11.7398921896      -11.2137243932  CLST         711          1.0000000000
      2133       711  TIP3  H2           11.0343637816      -11.2630288457      -12.0522864665  CLST         711          1.0000000000
      2134       712  TIP3  OH2          -3.5869341100      -10.7674665799       11.4288934577  CLST         712          1.0000000000
      2135       712  TIP3  H1           -4.2978823458      -10.3698065326       10.9876950250  CLST         712          1.0000000000
      2136       712  TIP3  H2           -2.8849266582      -10.6250144851       10.8447477416  CLST         712          1.0000000000
      2137       713  TIP3  OH2           6.8743565159        0.4103086115        6.5310026670  CLST         713          1.0000000000
      2138       713  TIP3  H1            7.7289375463        0.7123489543        6.9492552746  CLST         713          1.0000000000
      2139       713  TIP3  H2            7.5440381110       -0.2925577683        6.2421839881  CLST         713          1.0000000000
      2140       714  TIP3  OH2           5.0840664775       12.2768138674        4.5343504530  CLST         714          1.0000000000
      2141       714  TIP3  H1            4.6549456970       12.6658035540        3.7554457793  CLST         714          1.0000000000
      2142       714  TIP3  H2            4.2707398424       12.6570274667        4.9583353422  CLST         714          1.0000000000
      2143       715  TIP3  OH2          -9.0159893439       -9.5214290229        1.7394978655  CLST         715          1.0000000000
      2144       715  TIP3  H1           -9.5450686587       -8.6998316248        1.8786434985  CLST         715          1.0000000000
      2145       715  TIP3  H2           -9.7340223865      -10.0156890977        2.2096311338  CLST         715          1.0000000000
      2146       716  TIP3  OH2         -13.7107918602      -13.5164725296        0.1031114112  CLST         716          1.0000000000
      2147       716  TIP3  H1          -13.3997238319      -14.1407042308       -0.6075030104  CLST         716          1.0000000000
      2148       716  TIP3  H2          -13.4845236525      -12.8238705739       -0.4726263853  CLST         716          1.0000000000
      2149       717  TIP3  OH2          -6.2564633645      -11.9595917787        2.5330269880  CLST         717          1.0000000000
      2150       717  TIP3  H1           -6.3004492845      -11.2272181370        1.8450908512  CLST         717          1.0000000000
      2151       717  TIP3  H2           -7.1013356474      -12.2209920608        2.1151516621  CLST         717          1.0000000000
      2152       718  TIP3  OH2         -10.8869400944        7.1086968579       13.3124071623  CLST         718          1.0000000000
      2153       718  TIP3  H1          -11.5010577857        7.8508936887       13.6172891845  CLST         718          1.0000000000
      2154       718  TIP3  H2          -10.2022608986        7.7857009217       13.2420404190  CLST         718          1.0000000000
      2155       719  TIP3  OH2          10.3561658913       -7.6154827124        2.8045503202  CLST         719          1.0000000000
      2156       719  TIP3  H1           11.3462106563       -7.4905608410        2.9880361549  CLST         719          1.0000000000
      2157       719  TIP3  H2           10.6043753675       -7.5092905009        1.8367150963  CLST         719          1.0000000000
      2158       720  TIP3  OH2          -4.8176129194       13.3239795645       -8.7503374884  CLST         720          1.0000000000
      2159       720  TIP3  H1           -3.8868319332       13.3998670631       -8.5044599843  CLST         720          1.0000000000
      2160       720  TIP3  H2           -4.9825799990       13.7460472341       -7.8850545085  CLST         720          1.0000000000
      2161       721  TIP3  OH2           3.7286974936       -5.9138829604       -9.7931816995  CLST         721          1.0000000000
      2162       721  TIP3  H1            4.2991203552       -5.1381610309       -9.2536544731  CLST         721          1.0000000000
      2163       721  TIP3  H2            4.6928494023       -6.0316645743       -9.0425632134  CLST         721          1.0000000000
      2164       722  TIP3  OH2          10.4285203406       -2.6850410971        2.0471407499  CLST         722          1.0000000000
      2165       722  TIP3  H1           10.3298325817       -3.1363783445        1.1580711861  CLST         722          1.0000000000
      2166       722  TIP3  H2           11.3455231858       -2.4946669314        1.9267805273  CLST         722          1.0000000000
      2167       723  TIP3  OH2           0.4072353081       13.2073944917        6.0790005216  CLST         723          1.0000000000
      2168       723  TIP3  H1            1.0661462180       13.8967411888        5.7958619550  CLST         723          1.0000000000
      2169       723  TIP3  H2            1.2635362481       12.7219438611        6.2351592943  CLST         723          1.0000000000
      2170       724  TIP3  OH2           8.2214126478       -8.3996201689       -3.8140090754  CLST         724          1.0000000000
      2171       724  TIP3  H1            7.8661036332       -8.7435956176       -4.8903390776  CLST         724          1.0000000000
      2172       724  TIP3  H2            8.4399265559       -8.0061449109       -4.5501902410  CLST         724          1.0000000000
      2173       725  TIP3  OH2          -0.8315659230       -0.2352210492        2.1473972367  CLST         725          1.0000000000
      2174       725  TIP3  H1           -1.6314862524       -0.4801027690        2.5924855466  CLST         725          1.0000000000
      2175       725  TIP3  H2           -1.3265332460        0.3546513745        1.6078315794  CLST         725          1.0000000000
      2176       726  TIP3  OH2         -14.0194969459       10.6659113634        6.1550283655  CLST         726          1.0000000000
      2177       726  TIP3  H1          -14.8844323137       10.8766482379        5.7508648726  CLST         726          1.0000000000
      2178       726  TIP3  H2          -13.6862629692       11.5380015682        5.7449540683  CLST         726          1.0000000000
      2179       727  TIP3  OH2          -4.3740499257      -13.3753515577       -0.4125172632  CLST         727          1.0000000000
      2180       727  TIP3  H1           -3.5781296768      -13.8684986638       -0.1280440800  CLST         727          1.0000000000
      2181       727  TIP3  H2           -3.8346859326      -12.6572640463        0.1006155959  CLST         727          1.0000000000
      2182       728  TIP3  OH2          -7.9614255651        3.3068230539       -0.7053530425  CLST         728          1.0000000000
      2183       728  TIP3  H1           -7.4761859677        2.4892299481       -0.4833243403  CLST         728          1.0000000000
      2184       728  TIP3  H2           -8.7097739104        2.7404452667       -0.3065176390  CLST         728          1.0000000000
      2185       729  TIP3  OH2          10.3443566895      -10.1714765598        2.6133967948  CLST         729          1.0000000000
      2186       729  TIP3  H1           10.8328491611       -9.4125574178        2.9434578091  CLST         729          1.0000000000
      2187       729  TIP3  H2           11.2490487078      -10.6158043118        2.7577287111  CLST         729          1.0000000000
      2188       730  TIP3  OH2          -4.5625671271       10.9644334634       -5.0193411719  CLST         730          1.0000000000
      2189       730  TIP3  H1           -4.2187014717       10.3466130357       -5.6489332778  CLST         730          1.0000000000
      2190       730  TIP3  H2           -5.2814191633       11.0603439962       -5.6257502240  CLST         730          1.0000000000
      2191       731  TIP3  OH2          13.4178084810       12.1927263689       -4.3046070264  CLST         731          1.0000000000
      2192       731  TIP3  H1           13.6156767851       12.5973339200       -5.1189672066  CLST         731          1.0000000000
      2193       731  TIP3  H2           12.8671978010       11.5070916353       -4.7631813554  CLST         731          1.0000000000
      2194       732  TIP3  OH2          -2.9221102346       -1.2877436091       -2.1393605968  CLST         732          1.0000000000
      2195       732  TIP3  H1           -3.6450093639       -1.3744434333       -1.5225948563  CLST         732          1.0000000000
      2196       732  TIP3  H2           -3.9624123534       -0.7340425714       -2.2453562807  CLST         732          1.0000000000
      2197       733  TIP3  OH2           5.5036313273        2.2310684978       13.0595712394  CLST         733          1.0000000000
      2198       733  TIP3  H1            5.0281341213        1.7740390231       12.4160662430  CLST         733          1.0000000000
      2199       733  TIP3  H2            4.6102093038        2.2552020484       13.3878763778  CLST         733          1.0000000000
      2200       734  TIP3  OH2           8.3911269637       -2.1534453811        5.8438581533  CLST         734          1.0000000000
      2201       734  TIP3  H1            8.2012529152       -2.9298466739        5.2443402904  CLST         734          1.0000000000
      2202       734  TIP3  H2            9.3587343070       -2.3636724385        5.6937874423  CLST         734          1.0000000000
      2203       735  TIP3  OH2         -10.4270521629      -12.8386023435        0.8325318843  CLST         735          1.0000000000
      2204       735  TIP3  H1          -10.5934605065      -12.1039179632        1.5366003738  CLST         735          1.0000000000
      2205       735  TIP3  H2          -11.3262317488      -13.1177856121        0.9329986519  CLST         735          1.0000000000
      2206       736  TIP3  OH2          13.4836156339        2.6981885402        2.5952926501  CLST         736          1.0000000000
      2207       736  TIP3  H1           13.8297580880        2.0954596913        1.6178373132  CLST         736          1.0000000000
      2208       736  TIP3  H2           12.9847699903        1.9104597040        2.1340678241  CLST         736          1.0000000000
      2209       737  TIP3  OH2          11.4379514823       -1.8928827840        8.0794903504  CLST         737          1.0000000000
      2210       737  TIP3  H1           11.0084882962       -1.9017120798        7.1525929497  CLST         737          1.0000000000
      2211       737  TIP3  H2           11.5549246543       -0.9264466868        7.8978041159  CLST         737          1.0000000000
      2212       738  TIP3  OH2          10.3489820728        0.9852766405       14.3915342500  CLST         738          1.0000000000
      2213       738  TIP3  H1            9.4068418562        0.8642540232       14.4814946034  CLST         738          1.0000000000
      2214       738  TIP3  H2           10.4202522294        0.0573681002       14.5651708092  CLST         738          1.0000000000
      2215       739  TIP3  OH2         -13.1756397915        1.3834982588       10.5101335957  CLST         739          1.0000000000
      2216       739  TIP3  H1          -14.1806242116        1.3034620404       10.6889174251  CLST         739          1.0000000000
      2217       739  TIP3  H2          -13.3484803295        0.9338202394        9.6509444130  CLST         739          1.0000000000
      2218       740  TIP3  OH2           6.2314312190      -14.1317902288       -5.4061891470  CLST         740          1.0000000000
      2219       740  TIP3  H1            5.7217883408      -14.8934714496       -5.8459380509  CLST         740          1.0000000000
      2220       740  TIP3  H2            7.0208702123      -14.5863976545       -5.7327785840  CLST         740          1.0000000000
      2221       741  TIP3  OH2          11.7963609320        4.6632073407        9.3829235963  CLST         741          1.0000000000
      2222       741  TIP3  H1           11.9488052160        3.8652332112        9.6151671522  CLST         741          1.0000000000
      2223       741  TIP3  H2           12.4010814242        4.0112035334        8.6707753619  CLST         741          1.0000000000
      2224       742  TIP3  OH2           8.2069909370       -9.6658339568       -6.4858621207  CLST         742          1.0000000000
      2225       742  TIP3  H1            8.3239396347      -10.6453645658       -6.3074928725  CLST         742          1.0000000000
      2226       742  TIP3  H2            7.6162088434       -9.9708529796       -7.1523429311  CLST         742          1.0000000000
      2227       743  TIP3  OH2          -7.2239778541       -0.3603343441      -10.6688227333  CLST         743          1.0000000000
      2228       743  TIP3  H1           -6.2571521169        0.2215892184      -10.1588700575  CLST         743          1.0000000000
      2229       743  TIP3  H2           -6.4192309723       -0.8665313277      -10.3700066734  CLST         743          1.0000000000
      2230       744  TIP3  OH2          -5.8244617819        3.6488781229        5.1631032489  CLST         744          1.0000000000
      2231       744  TIP3  H1           -5.1367994304        3.3560261599        5.7641118197  CLST         744          1.0000000000
      2232       744  TIP3  H2           -5.9968446180        4.4576778959        5.6586236678  CLST         744          1.0000000000
      2233       745  TIP3  OH2           0.3462818510       -8.2450830985        6.7665401535  CLST         745          1.0000000000
      2234       745  TIP3  H1            0.8841501241       -9.0092625801        6.8834166996  CLST         745          1.0000000000
      2235       745  TIP3  H2            0.5048068951       -8.1494249327        7.7012412462  CLST         745          1.0000000000
      2236       746  TIP3  OH2          -7.9294985040       -4.3569428349       -5.8917649703  CLST         746          1.0000000000
      2237       746  TIP3  H1           -7.8604433967       -5.0537377057       -6.5772744098  CLST         746          1.0000000000
      2238       746  TIP3  H2           -8.4623776400       -3.8069748769       -6.4924942481  CLST         746          1.0000000000
      2239       747  TIP3  OH2          11.3216162362       11.9098662612        2.2237697609  CLST         747          1.0000000000
      2240       747  TIP3  H1           10.8388905169       12.1971939955        3.0017752784  CLST         747          1.0000000000
      2241       747  TIP3  H2           11.5378070017       11.2094641045        2.8750042620  CLST         747          1.0000000000
      2242       748  TIP3  OH2           3.3972157732        4.8184565237        8.5388847663  CLST         748          1.0000000000
      2243       748  TIP3  H1            3.7446239431        4.8753954605        9.5021449377  CLST         748          1.0000000000
      2244       748  TIP3  H2            3.4387736032        5.7555839732        8.7367011060  CLST         748          1.0000000000
      2245       749  TIP3  OH2          11.1742471242        9.3299835050        6.7124608454  CLST         749          1.0000000000
      2246       749  TIP3  H1           10.7604031082        8.5523891195        7.5236627200  CLST         749          1.0000000000
      2247       749  TIP3  H2           10.6581718525        9.6644409476        7.4348948166  CLST         749          1.0000000000
      2248       750  TIP3  OH2         -13.9542068273       12.2519150218       -7.7487090812  CLST         750          1.0000000000
      2249       750  TIP3  H1          -14.8934714496       11.9986597812       -7.7318661428  CLST         750          1.0000000000
      2250       750  TIP3  H2          -13.8084965824       11.7423528669       -8.5404496607  CLST         750          1.0000000000
      2251       751  TIP3  OH2           8.7913535218        4.4324727832       -4.0026457242  CLST         751          1.0000000000
      2252       751  TIP3  H1            8.2192645456        3.7522662519       -4.2811532441  CLST         751          1.0000000000
      2253       751  TIP3  H2            9.4577036034        3.9732477949       -3.5422812916  CLST         751          1.0000000000
      2254       752  TIP3  OH2         -11.8571241079       13.2807143083        2.1582045213  CLST         752          1.0000000000
      2255       752  TIP3  H1          -12.5210300781       13.1868788593        1.5171036365  CLST         752          1.0000000000
      2256       752  TIP3  H2          -11.7663985576       12.3558912920        2.1083055046  CLST         752          1.0000000000
      2257       753  TIP3  OH2           9.0471388970        2.5994860147       -7.1439194537  CLST         753          1.0000000000
      2258       753  TIP3  H1            8.5668407956        3.3900188044       -7.5683773699  CLST         753          1.0000000000
      2259       753  TIP3  H2            8.2768501756        2.6664276399       -6.5123209998  CLST         753          1.0000000000
      2260       754  TIP3  OH2          11.4907272148        2.2377328405       -6.1072067884  CLST         754          1.0000000000
      2261       754  TIP3  H1           10.7752948886        2.3945508352       -5.4447719863  CLST         754          1.0000000000
      2262       754  TIP3  H2           10.6834762887        2.2358509008       -6.7200972160  CLST         754          1.0000000000
      2263       755  TIP3  OH2           7.3723265578       -1.8512564718       -0.2418673854  CLST         755          1.0000000000
      2264       755  TIP3  H1            6.5204047284       -2.0075917476        0.0869400625  CLST         755          1.0000000000
      2265       755  TIP3  H2            7.1093758547       -0.9076220797       -0.3676672922  CLST         755          1.0000000000
      2266       756  TIP3  OH2         -13.0815868290        6.5432482394        5.7246543620  CLST         756          1.0000000000
      2267       756  TIP3  H1          -13.5824070156        6.8617793212        6.5065996059  CLST         756          1.0000000000
      2268       756  TIP3  H2          -12.5802422004        6.0129251235        6.3603960580  CLST         756          1.0000000000
      2269       757  TIP3  OH2          -4.4889327683       -5.0179710556       -2.2694551699  CLST         757          1.0000000000
      2270       757  TIP3  H1           -3.9344991654       -5.0826277915       -3.0714434220  CLST         757          1.0000000000
      2271       757  TIP3  H2           -4.9833703477       -4.2850556422       -2.7727337554  CLST         757          1.0000000000
      2272       758  TIP3  OH2          12.2495706944        4.9272843425       -0.8839055666  CLST         758          1.0000000000
      2273       758  TIP3  H1           12.7365961634        5.4519613526       -0.0594544625  CLST         758          1.0000000000
      2274       758  TIP3  H2           12.6323643251        4.3894792725       -0.2865158382  CLST         758          1.0000000000
      2275       759  TIP3  OH2          -7.9836210914       11.9803327610      -11.1436957168  CLST         759          1.0000000000
      2276       759  TIP3  H1           -7.5639751851       12.7923861032      -11.3411344328  CLST         759          1.0000000000
      2277       759  TIP3  H2           -7.3026739613       11.4982548378      -11.5582459762  CLST         759          1.0000000000
      2278       760  TIP3  OH2           7.9977066844       14.2970163312       -6.1443912260  CLST         760          1.0000000000
      2279       760  TIP3  H1            8.0564767285       13.9746750147       -7.0243868576  CLST         760          1.0000000000
      2280       760  TIP3  H2            7.6510933061       13.4537905393       -5.8003125566  CLST         760          1.0000000000
      2281       761  TIP3  OH2          -7.1478496473        8.1893672908      -11.4318977860  CLST         761          1.0000000000
      2282       761  TIP3  H1           -7.7921425266        7.5823296613      -11.7969076172  CLST         761          1.0000000000
      2283       761  TIP3  H2           -7.7508126247        8.2618061460      -10.6946092803  CLST         761          1.0000000000
      2284       762  TIP3  OH2           7.9784637730       -6.1904040556      -12.7844583169  CLST         762          1.0000000000
      2285       762  TIP3  H1            7.2865834333       -6.7458953801      -12.4148108183  CLST         762          1.0000000000
      2286       762  TIP3  H2            7.6503526776       -5.4234297326      -12.3081948123  CLST         762          1.0000000000
      2287       763  TIP3  OH2          -1.3848823996       -5.8713765285        8.9026070410  CLST         763          1.0000000000
      2288       763  TIP3  H1           -1.8346067815       -5.0005270269        8.7235307763  CLST         763          1.0000000000
      2289       763  TIP3  H2           -2.0397828909       -5.8987635684        9.6526875046  CLST         763          1.0000000000
      2290       764  TIP3  OH2           8.7629409960      -11.2220122516        0.7162899507  CLST         764          1.0000000000
      2291       764  TIP3  H1            8.0977203180      -10.5328410122        0.7888378800  CLST         764          1.0000000000
      2292       764  TIP3  H2            9.3733846715      -10.9711607102        1.3536383116  CLST         764          1.0000000000
      2293       765  TIP3  OH2         -14.2205083023      -12.2222374715       13.1612117743  CLST         765          1.0000000000
      2294       765  TIP3  H1          -13.4882387602      -11.6962415500       13.4815208975  CLST         765          1.0000000000
      2295       765  TIP3  H2          -14.8934714496      -12.1080621733       13.7657142482  CLST         765          1.0000000000
      2296       766  TIP3  OH2          11.7186316490       -8.4644661354      -12.0284580954  CLST         766          1.0000000000
      2297       766  TIP3  H1           11.0212799931       -8.0919771979      -12.5429834229  CLST         766          1.0000000000
      2298       766  TIP3  H2           11.1856062419       -9.1820640188      -11.6254088479  CLST         766          1.0000000000
      2299       767  TIP3  OH2           2.5339346915       12.4191473480      -12.3676738039  CLST         767          1.0000000000
      2300       767  TIP3  H1            2.5851106543       12.0680520912      -11.4422312982  CLST         767          1.0000000000
      2301       767  TIP3  H2            2.2529229138       13.2508888150      -11.9669500867  CLST         767          1.0000000000
      2302       768  TIP3  OH2           7.7766160938        7.0916606656        8.4959800251  CLST         768          1.0000000000
      2303       768  TIP3  H1            8.7421356674        6.9796260991        8.4799400857  CLST         768          1.0000000000
      2304       768  TIP3  H2            7.8883054936        6.1346408317        8.7156478656  CLST         768          1.0000000000
      2305       769  TIP3  OH2         -11.7694552900        3.4226542107        0.8528145643  CLST         769          1.0000000000
      2306       769  TIP3  H1          -11.2871639483        3.1431571206        1.4571386900  CLST         769          1.0000000000
      2307       769  TIP3  H2          -12.0868324533        3.1065687682        1.8756177899  CLST         769          1.0000000000
      2308       770  TIP3  OH2          10.3262042540       -4.8316928393       11.3155489114  CLST         770          1.0000000000
      2309       770  TIP3  H1            9.9567686241       -4.0435830124       10.8568992628  CLST         770          1.0000000000
      2310       770  TIP3  H2           10.9843424831       -4.7000381084       10.5094147345  CLST         770          1.0000000000
      2311       771  TIP3  OH2         -10.2370165090        1.1517820671       -5.5599679139  CLST         771          1.0000000000
      2312       771  TIP3  H1           -9.1124502855        1.0627366450       -5.5192112799  CLST         771          1.0000000000
      2313       771  TIP3  H2           -9.8022941075        1.4523592605       -4.8652013741  CLST         771          1.0000000000
      2314       772  TIP3  OH2          13.0230259653      -12.3264296483       -6.5609413308  CLST         772          1.0000000000
      2315       772  TIP3  H1           13.2070925077      -11.3809269333       -6.6650541610  CLST         772          1.0000000000
      2316       772  TIP3  H2           12.4757791478      -12.0635770842       -5.8784856467  CLST         772          1.0000000000
      2317       773  TIP3  OH2          12.2727130510       -4.7316050490        3.5489790675  CLST         773          1.0000000000
      2318       773  TIP3  H1           11.9189750251       -3.9465704930        3.9632581984  CLST         773          1.0000000000
      2319       773  TIP3  H2           12.6334883426       -4.3967705690        2.7689968284  CLST         773          1.0000000000
      2320       774  TIP3  OH2          -8.1388296409       -0.4501812703       -6.1116205278  CLST         774          1.0000000000
      2321       774  TIP3  H1           -7.0110123778       -0.6597421029       -6.3094496188  CLST         774          1.0000000000
      2322       774  TIP3  H2           -7.3464355552        0.2825344131       -6.2477517093  CLST         774          1.0000000000
      2323       775  TIP3  OH2           2.5758303915        1.8611641439        5.2351515979  CLST         775          1.0000000000
      2324       775  TIP3  H1            2.7678764893        1.7913483163        6.2285864144  CLST         775          1.0000000000
      2325       775  TIP3  H2            2.6084550904        2.7719737347        5.4851363841  CLST         775          1.0000000000
      2326       776  TIP3  OH2           0.1385531208        9.6262240431        5.6922309945  CLST         776          1.0000000000
      2327       776  TIP3  H1           -0.6769970202       10.1424196374        5.8358195122  CLST         776          1.0000000000
      2328       776  TIP3  H2           -0.4759396521        8.9136939009        5.9522992808  CLST         776          1.0000000000
      2329       777  TIP3  OH2         -13.2175558630      -10.2816384762        0.3011909724  CLST         777          1.0000000000
      2330       777  TIP3  H1          -12.7531435858       -9.4542118957        0.2172106745  CLST         777          1.0000000000
      2331       777  TIP3  H2          -13.0102353511      -10.3649943469        1.2214464897  CLST         777          1.0000000000
      2332       778  TIP3  OH2         -11.5759729539        5.7595588555       -0.6586686234  CLST         778          1.0000000000
      2333       778  TIP3  H1          -11.7435293822        4.9735687555       -0.0485713716  CLST         778          1.0000000000
      2334       778  TIP3  H2          -11.7249187714        5.1392047707       -1.3654633575  CLST         778          1.0000000000
      2335       779  TIP3  OH2          -6.1220266983        5.5609804028       -2.1395990537  CLST         779          1.0000000000
      2336       779  TIP3  H1           -6.9824923086        5.2857623407       -1.6943460872  CLST         779          1.0000000000
      2337       779  TIP3  H2           -6.3481994163        6.3484942217       -1.5533487253  CLST         779          1.0000000000
      2338       780  TIP3  OH2           2.5814474586       13.8930661901       -8.6332849889  CLST         780          1.0000000000
      2339       780  TIP3  H1            2.1018647536       14.5434578228       -9.3919312536  CLST         780          1.0000000000
      2340       780  TIP3  H2            3.0127542107       14.2943331758       -9.5400184325  CLST         780          1.0000000000
      2341       781  TIP3  OH2           9.2224972354       -8.4202084390       -9.4890624946  CLST         781          1.0000000000
      2342       781  TIP3  H1           10.1578810281       -8.2754292094       -9.4825433507  CLST         781          1.0000000000
      2343       781  TIP3  H2            9.7302471290       -9.4040120420       -9.0948760470  CLST         781          1.0000000000
      2344       782  TIP3  OH2           0.1629757244        2.4403245096        4.8246214954  CLST         782          1.0000000000
      2345       782  TIP3  H1           -0.4229707263        1.6898683264        4.8627919089  CLST         782          1.0000000000
      2346       782  TIP3  H2            0.7836621746        1.7704665667        5.1552872091  CLST         782          1.0000000000
      2347       783  TIP3  OH2          -7.0873364835      -12.4498531766      -13.8675621476  CLST         783          1.0000000000
      2348       783  TIP3  H1           -7.9312570308      -12.2292166974      -13.4296505961  CLST         783          1.0000000000
      2349       783  TIP3  H2           -7.6731411856      -12.3528440433      -14.6651718640  CLST         783          1.0000000000
      2350       784  TIP3  OH2          14.5739517174        5.2785292868       -4.3243480413  CLST         784          1.0000000000
      2351       784  TIP3  H1           14.3995584088        5.6954989832       -5.2085615452  CLST         784          1.0000000000
      2352       784  TIP3  H2           14.0210290990        5.8960091582       -3.8599781927  CLST         784          1.0000000000
      2353       785  TIP3  OH2          10.8039636055        8.1760829339        0.7828996988  CLST         785          1.0000000000
      2354       785  TIP3  H1           11.4031496096        8.9532359107        0.7973817976  CLST         785          1.0000000000
      2355       785  TIP3  H2           11.5916967423        7.8108010876        0.3660989774  CLST         785          1.0000000000
      2356       786  TIP3  OH2          12.6375988431        3.6063210270       12.7324376368  CLST         786          1.0000000000
      2357       786  TIP3  H1           12.8370676722        4.6668282486       12.7825985417  CLST         786          1.0000000000
      2358       786  TIP3  H2           12.3523065108        4.0426328906       13.3424053057  CLST         786          1.0000000000
      2359       787  TIP3  OH2          -8.0390880303        0.1288605165       11.6225533214  CLST         787          1.0000000000
      2360       787  TIP3  H1           -8.9838247554        0.1037330937       11.4706550184  CLST         787          1.0000000000
      2361       787  TIP3  H2           -8.1430645251       -0.8421027568       11.7053691965  CLST         787          1.0000000000
      2362       788  TIP3  OH2           2.5204562968      -13.1787615718       11.0539289013  CLST         788          1.0000000000
      2363       788  TIP3  H1            2.7471723776      -13.1753921408       11.9685449937  CLST         788          1.0000000000
      2364       788  TIP3  H2            3.1736550049      -13.7759211791       10.8769069100  CLST         788          1.0000000000
      2365       789  TIP3  OH2          -7.1186363960        0.9839498043       -3.1074179302  CLST         789          1.0000000000
      2366       789  TIP3  H1           -6.6994567824        0.1613078873       -3.1846438947  CLST         789          1.0000000000
      2367       789  TIP3  H2           -6.5834017689        1.2154995000       -3.8439208760  CLST         789          1.0000000000
      2368       790  TIP3  OH2         -11.2590889292       -9.0743805544        5.3276496564  CLST         790          1.0000000000
      2369       790  TIP3  H1          -11.4345600940       -9.2538891515        6.2737054235  CLST         790          1.0000000000
      2370       790  TIP3  H2          -11.6784746572       -8.1993767029        5.4609876478  CLST         790          1.0000000000
      2371       791  TIP3  OH2          -4.8846029820       -5.8940269908      -10.7087357799  CLST         791          1.0000000000
      2372       791  TIP3  H1           -3.9779157585       -6.2304507102      -10.9477428707  CLST         791          1.0000000000
      2373       791  TIP3  H2           -4.5240074809       -5.1101934015      -11.1657767659  CLST         791          1.0000000000
      2374       792  TIP3  OH2           6.8181085987       -3.9551781891        9.8411350296  CLST         792          1.0000000000
      2375       792  TIP3  H1            7.5217698236       -4.5992763458        9.7146403715  CLST         792          1.0000000000
      2376       792  TIP3  H2            7.5215155844       -3.3347701913        9.9377975210  CLST         792          1.0000000000
      2377       793  TIP3  OH2          -3.2311999118       12.8371662839       -3.8848995591  CLST         793          1.0000000000
      2378       793  TIP3  H1           -3.5002770281       12.7092611014       -2.9829527235  CLST         793          1.0000000000
      2379       793  TIP3  H2           -3.4653952231       11.9791575852       -4.1302956444  CLST         793          1.0000000000
      2380       794  TIP3  OH2          -1.0169800195        2.8178033740       -6.4646303821  CLST         794          1.0000000000
      2381       794  TIP3  H1           -1.2700316801        2.2962704687       -7.2802464930  CLST         794          1.0000000000
      2382       794  TIP3  H2           -1.2211938547        3.5252194278       -7.1079275861  CLST         794          1.0000000000
      2383       795  TIP3  OH2          -1.9617985647       -9.3293870487        1.4231935838  CLST         795          1.0000000000
      2384       795  TIP3  H1           -2.4578798027      -10.0550031597        1.0444876315  CLST         795          1.0000000000
      2385       795  TIP3  H2           -1.6263569029       -9.9181424954        2.2132309094  CLST         795          1.0000000000
      2386       796  TIP3  OH2           2.7129318214        4.7385925415        4.7230696047  CLST         796          1.0000000000
      2387       796  TIP3  H1            2.9554916604        4.3639280070        4.0203578979  CLST         796          1.0000000000
      2388       796  TIP3  H2            3.8455557137        4.8017483653        4.4270215325  CLST         796          1.0000000000
      2389       797  TIP3  OH2         -11.5978419506        5.3841925144       -3.1338810764  CLST         797          1.0000000000
      2390       797  TIP3  H1          -12.1342401586        6.0499263141       -3.6181356409  CLST         797          1.0000000000
      2391       797  TIP3  H2          -11.2310573401        5.2113807677       -4.1001246063  CLST         797          1.0000000000
      2392       798  TIP3  OH2         -11.0745909434        9.7236218013       10.5471582721  CLST         798          1.0000000000
      2393       798  TIP3  H1          -11.3698110469       10.5557756780       10.1441306382  CLST         798          1.0000000000
      2394       798  TIP3  H2          -11.3094913409       10.1236081742       11.3814667523  CLST         798          1.0000000000
      2395       799  TIP3  OH2           4.1731448411       -1.6214529019      -12.7026580816  CLST         799          1.0000000000
      2396       799  TIP3  H1            5.0661957041       -1.1838407882      -12.8601804624  CLST         799          1.0000000000
      2397       799  TIP3  H2            3.9690018318       -1.5877067601      -13.6209055496  CLST         799          1.0000000000
      2398       800  TIP3  OH2         -10.0879019492        7.0706230761       10.2706316313  CLST         800          1.0000000000
      2399       800  TIP3  H1          -10.4007048092        8.0503132868       10.1851196959  CLST         800          1.0000000000
      2400       800  TIP3  H2           -9.2352494708        7.4838025854       10.1160527298  CLST         800          1.0000000000
      2401       801  TIP3  OH2           8.2077965842      -11.4345578159      -11.0533004004  CLST         801          1.0000000000
      2402       801  TIP3  H1            8.3584630586      -11.9657802775      -10.2810069351  CLST         801          1.0000000000
      2403       801  TIP3  H2            9.1363229433      -11.3092864678      -11.1273150164  CLST         801          1.0000000000
      2404       802  TIP3  OH2           5.5064020507        0.0272254426       11.9448146432  CLST         802          1.0000000000
      2405       802  TIP3  H1            5.1539480953        0.1894262338       10.9133590511  CLST         802          1.0000000000
      2406       802  TIP3  H2            5.9691316455       -0.2438323229       11.2705553927  CLST         802          1.0000000000
      2407       803  TIP3  OH2           6.5291206388       -9.4445752217        0.0311161738  CLST         803          1.0000000000
      2408       803  TIP3  H1            6.2504138188      -10.3677980907       -0.0557066802  CLST         803          1.0000000000
      2409       803  TIP3  H2            6.0085983630       -9.3504756481        0.8318331867  CLST         803          1.0000000000
      2410       804  TIP3  OH2           5.6929917416        6.3330532175        1.9021787151  CLST         804          1.0000000000
      2411       804  TIP3  H1            5.0348210425        5.7730524224        1.6301113266  CLST         804          1.0000000000
      2412       804  TIP3  H2            6.2253875157        5.5733166894        1.9567848613  CLST         804          1.0000000000
      2413       805  TIP3  OH2           7.6067015357       -4.6982793389       13.9565070641  CLST         805          1.0000000000
      2414       805  TIP3  H1            8.7039726773       -4.8997899712       13.5535194851  CLST         805          1.0000000000
      2415       805  TIP3  H2            8.4440727813       -5.0070906936       14.5503663756  CLST         805          1.0000000000
      2416       806  TIP3  OH2           8.6500890845       10.3020568710       13.7848125784  CLST         806          1.0000000000
      2417       806  TIP3  H1            8.0111609645        9.9766794547       13.1150955878  CLST         806          1.0000000000
      2418       806  TIP3  H2            8.3423196172       11.2524866251       13.6560157613  CLST         806          1.0000000000
      2419       807  TIP3  OH2          -3.9944748771        8.2671363937        1.1992415037  CLST         807          1.0000000000
      2420       807  TIP3  H1           -4.0534933534        9.2524000699        1.4421165852  CLST         807          1.0000000000
      2421       807  TIP3  H2           -4.0519990298        8.1269942969        2.1510793879  CLST         807          1.0000000000
      2422       808  TIP3  OH2          -3.7637420175       13.5059678618        1.3477552932  CLST         808          1.0000000000
      2423       808  TIP3  H1           -3.1549496019       13.6925053431        2.0561580007  CLST         808          1.0000000000
      2424       808  TIP3  H2           -2.9575164848       13.7521875320        0.8218460489  CLST         808          1.0000000000
      2425       809  TIP3  OH2           1.8399487590       13.0610658005        9.3537660357  CLST         809          1.0000000000
      2426       809  TIP3  H1            1.9139180513       12.1939822051        8.8719911147  CLST         809          1.0000000000
      2427       809  TIP3  H2            0.9235226540       12.9554117732        9.2405064179  CLST         809          1.0000000000
      2428       810  TIP3  OH2          -2.0514622163        8.7943247671        8.6955596484  CLST         810          1.0000000000
      2429       810  TIP3  H1           -1.3055231606        8.3013847746        8.3608683814  CLST         810          1.0000000000
      2430       810  TIP3  H2           -1.5962120311        8.6471145939        9.5498773230  CLST         810          1.0000000000
      2431       811  TIP3  OH2          -3.9304621230      -12.4025482823       -9.1187119795  CLST         811          1.0000000000
      2432       811  TIP3  H1           -3.9451055555      -12.9564228541       -9.9139497728  CLST         811          1.0000000000
      2433       811  TIP3  H2           -4.5306006435      -11.6819239301       -9.4648858450  CLST         811          1.0000000000
      2434       812  TIP3  OH2          10.6247051911        4.2322608164      -13.6956204016  CLST         812          1.0000000000
      2435       812  TIP3  H1           11.5793830214        3.9062756320      -13.7673530794  CLST         812          1.0000000000
      2436       812  TIP3  H2           10.7721843013        4.5268448050      -14.5935360977  CLST         812          1.0000000000
      2437       813  TIP3  OH2          -2.1445487333        0.8160616581      -13.8774527406  CLST         813          1.0000000000
      2438       813  TIP3  H1           -2.3421948435        1.6643478776      -14.5960989237  CLST         813          1.0000000000
      2439       813  TIP3  H2           -3.1777261515        1.1731523065      -14.0948830591  CLST         813          1.0000000000
      2440       814  TIP3  OH2          -7.5307490945        8.4648955912       -8.5657378362  CLST         814          1.0000000000
      2441       814  TIP3  H1           -6.8937534956        9.2212350058       -8.6847794404  CLST         814          1.0000000000
      2442       814  TIP3  H2           -6.7013533122        7.9398686843       -8.6079272000  CLST         814          1.0000000000
      2443       815  TIP3  OH2          -4.8909047261        1.0488970396       -8.3313144964  CLST         815          1.0000000000
      2444       815  TIP3  H1           -4.7050448555        1.8895170175       -7.8865754729  CLST         815          1.0000000000
      2445       815  TIP3  H2           -5.5243460076        1.6402518447       -8.7752092358  CLST         815          1.0000000000
      2446       816  TIP3  OH2          -8.0292212734      -13.6028230760        1.5292920058  CLST         816          1.0000000000
      2447       816  TIP3  H1           -8.1232901085      -14.4941379428        1.8589852750  CLST         816          1.0000000000
      2448       816  TIP3  H2           -8.9305841510      -13.7793721258        1.2386198892  CLST         816          1.0000000000
      2449       817  TIP3  OH2           3.4850954626       14.6096823470       10.7631943739  CLST         817          1.0000000000
      2450       817  TIP3  H1            2.9460732275       13.8665096585       10.3116517585  CLST         817          1.0000000000
      2451       817  TIP3  H2            3.2178068410       14.5387861542       11.7025420669  CLST         817          1.0000000000
      2452       818  TIP3  OH2          11.5899845313       -3.5706143503       -5.7850306319  CLST         818          1.0000000000
      2453       818  TIP3  H1           11.4265978401       -2.8621776981       -5.1280313422  CLST         818          1.0000000000
      2454       818  TIP3  H2           10.6680803331       -3.3833837326       -5.9191020284  CLST         818          1.0000000000
      2455       819  TIP3  OH2          -0.1905606429        0.2553234034      -10.4258508604  CLST         819          1.0000000000
      2456       819  TIP3  H1            0.3441791055       -0.7095106134      -10.7795990044  CLST         819          1.0000000000
      2457       819  TIP3  H2            0.6579107916        0.1480840587      -11.1099601866  CLST         819          1.0000000000
      2458       820  TIP3  OH2         -11.2875495856       -7.7272557604       14.0052926927  CLST         820          1.0000000000
      2459       820  TIP3  H1          -11.5888567948       -8.0501049604       14.8592578214  CLST         820          1.0000000000
      2460       820  TIP3  H2          -11.8581592913       -8.4793913863       13.7146902916  CLST         820          1.0000000000
      2461       821  TIP3  OH2          11.9773759159       -0.8403260299       14.8934714496  CLST         821          1.0000000000
      2462       821  TIP3  H1           12.0796224138       -1.2338094744       14.1832239834  CLST         821          1.0000000000
      2463       821  TIP3  H2           11.6574386925       -1.9678578484       14.7561474832  CLST         821          1.0000000000
      2464       822  TIP3  OH2          -7.2187710417       14.1186825680        9.4271292721  CLST         822          1.0000000000
      2465       822  TIP3  H1           -6.9260300736       13.8500064972        8.5718702973  CLST         822          1.0000000000
      2466       822  TIP3  H2           -6.7593811110       13.3028449915        9.6295728819  CLST         822          1.0000000000
      2467       823  TIP3  OH2          -9.3654509896       -1.4875881420        7.9513675749  CLST         823          1.0000000000
      2468       823  TIP3  H1           -9.6834390180       -2.3075826483        8.2618623342  CLST         823          1.0000000000
      2469       823  TIP3  H2           -8.4621371395       -1.6021956157        8.0881298502  CLST         823          1.0000000000
      2470       824  TIP3  OH2          10.9524203594        0.6065496801        6.9893833741  CLST         824          1.0000000000
      2471       824  TIP3  H1           10.3567849210        0.9704993521        6.2139267736  CLST         824          1.0000000000
      2472       824  TIP3  H2           10.8547563793        1.7761862286        6.7234862080  CLST         824          1.0000000000
      2473       825  TIP3  OH2          -4.6395441801      -11.6938321222      -13.8861766593  CLST         825          1.0000000000
      2474       825  TIP3  H1           -5.3756225180      -12.2432664735      -13.8869272386  CLST         825          1.0000000000
      2475       825  TIP3  H2           -5.0671212331      -11.0233282704      -13.3949672907  CLST         825          1.0000000000
      2476       826  TIP3  OH2           4.7981162965      -13.7705686592        2.1907430132  CLST         826          1.0000000000
      2477       826  TIP3  H1            5.1204687347      -14.6072393035        2.4978811512  CLST         826          1.0000000000
      2478       826  TIP3  H2            5.6968172021      -13.6596368683        1.8226136857  CLST         826          1.0000000000
      2479       827  TIP3  OH2         -10.1998600775        8.3208674127       -6.6775134641  CLST         827          1.0000000000
      2480       827  TIP3  H1           -9.1150266035        8.1918750263       -6.1947978328  CLST         827          1.0000000000
      2481       827  TIP3  H2           -9.9821674460        7.7827126621       -5.8431436656  CLST         827          1.0000000000
      2482       828  TIP3  OH2          -9.9244887931       -7.5779554074       11.1983057467  CLST         828          1.0000000000
      2483       828  TIP3  H1           -8.9867042454       -7.7199869093       11.5031887050  CLST         828          1.0000000000
      2484       828  TIP3  H2           -9.5795591952       -6.7238990377       11.0062426243  CLST         828          1.0000000000
      2485       829  TIP3  OH2           3.0487320333       13.3386711543        6.1170264108  CLST         829          1.0000000000
      2486       829  TIP3  H1            3.7254300152       13.5620705764        6.7945428956  CLST         829          1.0000000000
      2487       829  TIP3  H2            3.0553904673       14.2837629007        6.0639284249  CLST         829          1.0000000000
      2488       830  TIP3  OH2          13.8882551020        2.9140246532        8.7979544014  CLST         830          1.0000000000
      2489       830  TIP3  H1           14.6091719869        3.8864042208        9.0021296607  CLST         830          1.0000000000
      2490       830  TIP3  H2           14.7909835791        3.1560025370        8.3446933487  CLST         830          1.0000000000
      2491       831  TIP3  OH2           3.1091900021        2.5505421193        7.8142731243  CLST         831          1.0000000000
      2492       831  TIP3  H1            3.7986586461        3.1173499501        8.1028459817  CLST         831          1.0000000000
      2493       831  TIP3  H2            2.5432303165        3.3314572806        7.9789183712  CLST         831          1.0000000000
      2494       832  TIP3  OH2         -12.6096854337       -2.4990785611        1.1986422321  CLST         832          1.0000000000
      2495       832  TIP3  H1          -12.6687389832       -1.5551408114        1.0550291780  CLST         832          1.0000000000
      2496       832  TIP3  H2          -12.8690589010       -2.4528708047        2.1191324587  CLST         832          1.0000000000
      2497       833  TIP3  OH2           1.2600396865      -11.5837821782        5.2873052246  CLST         833          1.0000000000
      2498       833  TIP3  H1            1.8535397517      -11.1280608104        5.8557799017  CLST         833          1.0000000000
      2499       833  TIP3  H2            2.1070549929      -11.8952344998        4.8395399286  CLST         833          1.0000000000
      2500       834  TIP3  OH2           3.2120135571       -2.8832972055        4.1386588433  CLST         834          1.0000000000
      2501       834  TIP3  H1            2.8494028378       -2.0437843336        3.7820339339  CLST         834          1.0000000000
      2502       834  TIP3  H2            3.6966646375       -2.3712419071        4.7586213087  CLST         834          1.0000000000
      2503       835  TIP3  OH2           4.2166059705        2.6531002796        0.1709755332  CLST         835          1.0000000000
      2504       835  TIP3  H1            3.9947316288        2.6908004113       -0.7644865514  CLST         835          1.0000000000
      2505       835  TIP3  H2            3.9367124225        1.7416219155        0.0983564038  CLST         835          1.0000000000
      2506       836  TIP3  OH2           7.6700147818       -5.6027277518       -9.3563593394  CLST         836          1.0000000000
      2507       836  TIP3  H1            7.1150797696       -6.3522283611       -9.0599054882  CLST         836          1.0000000000
      2508       836  TIP3  H2            8.3302549025       -6.2985595967       -9.5338008714  CLST         836          1.0000000000
      2509       837  TIP3  OH2           3.3074114996        5.9875601840       -0.6542472363  CLST         837          1.0000000000
      2510       837  TIP3  H1            2.4592061389        5.5501431583       -0.8555217416  CLST         837          1.0000000000
      2511       837  TIP3  H2            2.7172488749        6.5671185869       -0.1417388680  CLST         837          1.0000000000
      2512       838  TIP3  OH2          -1.3232093391      -13.4197498356      -11.1540038916  CLST         838          1.0000000000
      2513       838  TIP3  H1           -1.0376579973      -14.3220785481      -10.9700239063  CLST         838          1.0000000000
      2514       838  TIP3  H2           -2.1286679043      -13.7971401585      -11.5355651076  CLST         838          1.0000000000
      2515       839  TIP3  OH2           1.4699316090       -7.1614843208       -1.4426158930  CLST         839          1.0000000000
      2516       839  TIP3  H1            1.1391454597       -7.5863610543       -0.5455238358  CLST         839          1.0000000000
      2517       839  TIP3  H2            0.5388331547       -7.2385705385       -1.7949481558  CLST         839          1.0000000000
      2518       840  TIP3  OH2          -7.6265858393       11.9443357669       10.4382316646  CLST         840          1.0000000000
      2519       840  TIP3  H1           -7.9355393112       11.4117970541       11.1618137879  CLST         840          1.0000000000
      2520       840  TIP3  H2           -6.9306925081       11.3099496969       10.2597018379  CLST         840          1.0000000000
      2521       841  TIP3  OH2          -8.7438247742       -7.6265511636       -4.2260819376  CLST         841          1.0000000000
      2522       841  TIP3  H1           -8.2853238455       -7.5962866864       -3.3716705512  CLST         841          1.0000000000
      2523       841  TIP3  H2           -7.7920184221       -7.3841322038       -4.4988813423  CLST         841          1.0000000000
      2524       842  TIP3  OH2          11.5574899937      -14.0321910178        0.2153191828  CLST         842          1.0000000000
      2525       842  TIP3  H1           11.4025987518      -14.5921611854        0.9481052877  CLST         842          1.0000000000
      2526       842  TIP3  H2           10.6079930139      -14.0532426642        0.2043097532  CLST         842          1.0000000000
      2527       843  TIP3  OH2           9.4512279786       13.0693242349        3.6936373460  CLST         843          1.0000000000
      2528       843  TIP3  H1            8.6752524115       12.6393100844        3.9944446757  CLST         843          1.0000000000
      2529       843  TIP3  H2            8.7848811264       13.4390768447        3.0992581739  CLST         843          1.0000000000
      2530       844  TIP3  OH2           1.5789120315      -12.4789936158       -1.9727312431  CLST         844          1.0000000000
      2531       844  TIP3  H1            1.7456743616      -12.7284531666       -1.0484383227  CLST         844          1.0000000000
      2532       844  TIP3  H2            0.6796998413      -12.7198228290       -1.6490284068  CLST         844          1.0000000000
      2533       845  TIP3  OH2         -14.6055050676        4.5638627487       10.3064470704  CLST         845          1.0000000000
      2534       845  TIP3  H1          -14.8934714496        3.8344971331       11.1463097064  CLST         845          1.0000000000
      2535       845  TIP3  H2          -14.0748514994        4.6245577109       11.0231390372  CLST         845          1.0000000000
      2536       846  TIP3  OH2         -11.0148128266       -7.5151978602        2.6682413767  CLST         846          1.0000000000
      2537       846  TIP3  H1          -11.8772256376       -7.8997915775        3.0247892556  CLST         846          1.0000000000
      2538       846  TIP3  H2          -11.6427767669       -6.8073893335        2.3673181670  CLST         846          1.0000000000
      2539       847  TIP3  OH2           5.0199793444        9.6292000291        5.2495278588  CLST         847          1.0000000000
      2540       847  TIP3  H1            5.0639751795       10.5808404163        5.1510253054  CLST         847          1.0000000000
      2541       847  TIP3  H2            5.6270765361        9.7871746929        5.9425056687  CLST         847          1.0000000000
      2542       848  TIP3  OH2          -9.3064695634        5.9179660822       -9.9446137332  CLST         848          1.0000000000
      2543       848  TIP3  H1           -9.9730109218        5.8156921395      -10.4247781735  CLST         848          1.0000000000
      2544       848  TIP3  H2          -10.0638117576        6.5574116450       -9.7305112688  CLST         848          1.0000000000
      2545       849  TIP3  OH2          -1.8325425328        1.9516514060        0.0834334206  CLST         849          1.0000000000
      2546       849  TIP3  H1           -0.8822272245        2.0995793038       -0.1395929290  CLST         849          1.0000000000
      2547       849  TIP3  H2           -1.8376799975        2.2270156994       -0.8362641363  CLST         849          1.0000000000
      2548       850  TIP3  OH2           5.2923633385       -6.1118122701        5.3741219592  CLST         850          1.0000000000
      2549       850  TIP3  H1            4.6503654512       -5.9406775350        6.0727304707  CLST         850          1.0000000000
      2550       850  TIP3  H2            5.9181346976       -5.5992581914        5.8882367367  CLST         850          1.0000000000
      2551       851  TIP3  OH2           7.9286410779        6.0458052695        5.5871650731  CLST         851          1.0000000000
      2552       851  TIP3  H1            8.1156655176        6.1641042536        6.5565274544  CLST         851          1.0000000000
      2553       851  TIP3  H2            8.4300826921        6.8252781974        5.5255887549  CLST         851          1.0000000000
      2554       852  TIP3  OH2           9.6055535621        3.9824108942        1.6616982594  CLST         852          1.0000000000
      2555       852  TIP3  H1            9.3950818960        3.9831826161        2.6374079240  CLST         852          1.0000000000
      2556       852  TIP3  H2            8.6695622119        4.1952214319        1.6950065115  CLST         852          1.0000000000
      2557       853  TIP3  OH2           8.7652198067       -5.2407920919       -3.4607131250  CLST         853          1.0000000000
      2558       853  TIP3  H1            7.9497680520       -4.9348134244       -3.8928376533  CLST         853          1.0000000000
      2559       853  TIP3  H2            8.0714814222       -5.0024852141       -2.7989232239  CLST         853          1.0000000000
      2560       854  TIP3  OH2         -10.2653106635       -9.4395238318       -5.4521663312  CLST         854          1.0000000000
      2561       854  TIP3  H1           -9.7274455296       -8.6743294258       -5.2757170368  CLST         854          1.0000000000
      2562       854  TIP3  H2          -10.5388232324       -9.2413340106       -4.5347302775  CLST         854          1.0000000000
      2563       855  TIP3  OH2           2.7380137030       -3.0648203280       -6.8305354280  CLST         855          1.0000000000
      2564       855  TIP3  H1            2.3240777158       -2.3775462540       -6.2257281511  CLST         855          1.0000000000
      2565       855  TIP3  H2            3.2763898035       -2.2997883705       -7.1626968266  CLST         855          1.0000000000
      2566       856  TIP3  OH2           3.0046619696      -12.9641620480        0.2025055022  CLST         856          1.0000000000
      2567       856  TIP3  H1            3.6890701438      -12.2663387329        0.0777036157  CLST         856          1.0000000000
      2568       856  TIP3  H2            3.6300193554      -13.4040072854        0.8535113035  CLST         856          1.0000000000
      2569       857  TIP3  OH2          -3.3524188166       -5.7489016791       10.8936657795  CLST         857          1.0000000000
      2570       857  TIP3  H1           -3.6675976268       -6.0576482233       11.7930918009  CLST         857          1.0000000000
      2571       857  TIP3  H2           -3.4778792566       -4.8288063268       11.2407746749  CLST         857          1.0000000000
      2572       858  TIP3  OH2           5.8317967369      -14.4109262120       13.0236944784  CLST         858          1.0000000000
      2573       858  TIP3  H1            6.3648067570      -14.8934714496       13.5821644910  CLST         858          1.0000000000
      2574       858  TIP3  H2            5.2040376701      -13.9239513691       13.4438247128  CLST         858          1.0000000000
      2575       859  TIP3  OH2          -8.7474582550       -1.5047382811      -12.7931645758  CLST         859          1.0000000000
      2576       859  TIP3  H1           -8.1138850776       -2.2185890971      -12.9141325551  CLST         859          1.0000000000
      2577       859  TIP3  H2           -8.1930716701       -1.1877648233      -12.0677584592  CLST         859          1.0000000000
      2578       860  TIP3  OH2          -9.7463537846       -6.2988037711       -0.9986833966  CLST         860          1.0000000000
      2579       860  TIP3  H1           -9.6964510461       -5.5922524903       -1.6177226293  CLST         860          1.0000000000
      2580       860  TIP3  H2           -8.8820657504       -6.6761214637       -1.2315788737  CLST         860          1.0000000000
      2581       861  TIP3  OH2           5.0260017358      -10.0525017547       -4.3390112681  CLST         861          1.0000000000
      2582       861  TIP3  H1            4.6059848700      -10.1182249229       -3.4968902962  CLST         861          1.0000000000
      2583       861  TIP3  H2            5.0828034633      -11.0172822679       -4.2547931897  CLST         861          1.0000000000
      2584       862  TIP3  OH2         -11.0189736453       -2.9094947327      -12.4275166181  CLST         862          1.0000000000
      2585       862  TIP3  H1          -10.3516161158       -2.2322636082      -12.5874671047  CLST         862          1.0000000000
      2586       862  TIP3  H2          -10.9160735474       -2.6413531566      -11.5365980507  CLST         862          1.0000000000
      2587       863  TIP3  OH2          10.8601811086      -10.5856730070       -8.6459687642  CLST         863          1.0000000000
      2588       863  TIP3  H1           11.9941393992      -10.4655078319       -8.3745041332  CLST         863          1.0000000000
      2589       863  TIP3  H2           11.3745435820      -10.5386339361       -9.3012746645  CLST         863          1.0000000000
      2590       864  TIP3  OH2         -13.4802206492        3.3743552671        3.0762637825  CLST         864          1.0000000000
      2591       864  TIP3  H1          -14.3706475638        3.5322332828        3.5070814349  CLST         864          1.0000000000
      2592       864  TIP3  H2          -13.6340581653        4.3232755651        2.8996006615  CLST         864          1.0000000000
      2593       865  TIP3  OH2          12.5160081993        8.7899115961      -11.1691811089  CLST         865          1.0000000000
      2594       865  TIP3  H1           12.7727167411        7.8775819515      -11.4462391056  CLST         865          1.0000000000
      2595       865  TIP3  H2           13.0067808970        8.6096055305      -10.3677199590  CLST         865          1.0000000000
      2596       866  TIP3  OH2           6.5466800116      -10.4792447307       -8.4562439956  CLST         866          1.0000000000
      2597       866  TIP3  H1            5.8340953461      -11.0874389679       -8.3032291718  CLST         866          1.0000000000
      2598       866  TIP3  H2            7.0265653296      -11.1645358075       -8.8671747771  CLST         866          1.0000000000
      2599       867  TIP3  OH2          -8.2733942388       12.0710116303       -3.3539854061  CLST         867          1.0000000000
      2600       867  TIP3  H1           -9.1007710633       11.9778745176       -2.9078582849  CLST         867          1.0000000000
      2601       867  TIP3  H2           -7.8594433619       12.7817633504       -2.8381976377  CLST         867          1.0000000000
      2602       868  TIP3  OH2         -10.0033484776       13.2379996603        9.7595189268  CLST         868          1.0000000000
      2603       868  TIP3  H1           -8.8593885044       12.9038165637        9.7601319758  CLST         868          1.0000000000
      2604       868  TIP3  H2           -9.4579269146       13.5553666904        9.2051776777  CLST         868          1.0000000000
      2605       869  TIP3  OH2           3.0398973485       -1.6692479570        1.0743704639  CLST         869          1.0000000000
      2606       869  TIP3  H1            2.1130646085       -1.8354860853        1.0114820294  CLST         869          1.0000000000
      2607       869  TIP3  H2            2.8980147743       -1.2392981514        1.9408767926  CLST         869          1.0000000000
      2608       870  TIP3  OH2          -7.0633291522       -3.5686618937      -12.6303866673  CLST         870          1.0000000000
      2609       870  TIP3  H1           -6.1121825839       -3.5040768580      -12.3536521104  CLST         870          1.0000000000
      2610       870  TIP3  H2           -6.6041380235       -4.0855555226      -13.3084887016  CLST         870          1.0000000000
      2611       871  TIP3  OH2          -6.9444726133        2.3266376889       -9.6728521417  CLST         871          1.0000000000
      2612       871  TIP3  H1           -7.0375287187        2.4389184728      -10.6332825165  CLST         871          1.0000000000
      2613       871  TIP3  H2           -7.8791604302        2.4642917133       -9.5032947360  CLST         871          1.0000000000
      2614       872  TIP3  OH2         -12.9515077456       11.0870994384      -10.0525940492  CLST         872          1.0000000000
      2615       872  TIP3  H1          -13.0618512082       11.4851387745      -11.0759716803  CLST         872          1.0000000000
      2616       872  TIP3  H2          -12.8556715676       10.4445333095      -10.9856054538  CLST         872          1.0000000000
      2617       873  TIP3  OH2          12.0750440649       -4.4609439161       -9.9489796649  CLST         873          1.0000000000
      2618       873  TIP3  H1           11.4090433168       -3.8002337870      -10.0554994518  CLST         873          1.0000000000
      2619       873  TIP3  H2           12.0775575950       -4.6120941438      -10.8807450181  CLST         873          1.0000000000
      2620       874  TIP3  OH2          12.9655997439        8.4220885521       -8.5942871390  CLST         874          1.0000000000
      2621       874  TIP3  H1           13.2772108985        7.8134524228       -7.8544336214  CLST         874          1.0000000000
      2622       874  TIP3  H2           12.0378981735        8.1557137463       -8.3343806547  CLST         874          1.0000000000
      2623       875  TIP3  OH2           1.3941009546       -1.0674150816      -12.2802398423  CLST         875          1.0000000000
      2624       875  TIP3  H1            2.1341441386       -1.6826378589      -12.2615716052  CLST         875          1.0000000000
      2625       875  TIP3  H2            0.9754276895       -1.5177957913      -12.9953902901  CLST         875          1.0000000000
      2626       876  TIP3  OH2           8.8665576650        7.2229262023      -11.8468869991  CLST         876          1.0000000000
      2627       876  TIP3  H1            8.4125591764        7.5102460350      -12.6116176732  CLST         876          1.0000000000
      2628       876  TIP3  H2            8.0862310810        6.8025890477      -11.4404804416  CLST         876          1.0000000000
      2629       877  TIP3  OH2          -7.0860968873      -13.0613692038       -4.7465044484  CLST         877          1.0000000000
      2630       877  TIP3  H1           -7.7630562967      -12.5327191210       -4.4656497729  CLST         877          1.0000000000
      2631       877  TIP3  H2           -6.4160979760      -12.4488134173       -4.6001476292  CLST         877          1.0000000000
      2632       878  TIP3  OH2           5.4915666040      -11.2006061774        7.1623398286  CLST         878          1.0000000000
      2633       878  TIP3  H1            5.1258240780      -10.9549338831        6.1230517736  CLST         878          1.0000000000
      2634       878  TIP3  H2            5.1491311307      -10.4751671329        6.9903724499  CLST         878          1.0000000000
      2635       879  TIP3  OH2           2.9559300352        5.3367514612       -7.1208993055  CLST         879          1.0000000000
      2636       879  TIP3  H1            3.7681296624        5.8969992955       -7.4023161366  CLST         879          1.0000000000
      2637       879  TIP3  H2            3.4610107543        5.3537438015       -6.2844133585  CLST         879          1.0000000000
      2638       880  TIP3  OH2          -5.3891949860       -1.8237915540       14.8418986013  CLST         880          1.0000000000
      2639       880  TIP3  H1           -6.1138371123       -2.0795081252       14.6223863339  CLST         880          1.0000000000
      2640       880  TIP3  H2           -6.2071431261       -1.1000112760       14.3178936400  CLST         880          1.0000000000
      2641       881  TIP3  OH2          -0.6657795940       13.3524443749        8.7397769749  CLST         881          1.0000000000
      2642       881  TIP3  H1           -0.3629737264       13.3782807537        7.8266796959  CLST         881          1.0000000000
      2643       881  TIP3  H2           -1.4223869629       13.0549653012        8.3011305234  CLST         881          1.0000000000
      2644       882  TIP3  OH2          11.7010633557       -1.7795250255       -1.5574678722  CLST         882          1.0000000000
      2645       882  TIP3  H1           11.0807843084       -2.1188605057       -2.1793985400  CLST         882          1.0000000000
      2646       882  TIP3  H2           10.8440189119       -1.9522266693       -1.0034219997  CLST         882          1.0000000000
      2647       883  TIP3  OH2           1.4422256551       -9.5455548849       -4.2697539453  CLST         883          1.0000000000
      2648       883  TIP3  H1            2.0108498942       -9.5106206131       -3.6335764565  CLST         883          1.0000000000
      2649       883  TIP3  H2            2.1780904147       -9.4231316089       -4.8961151620  CLST         883          1.0000000000
      2650       884  TIP3  OH2         -14.1859540483       -5.8013269988      -12.6608005557  CLST         884          1.0000000000
      2651       884  TIP3  H1          -13.7769278355       -6.7361314920      -12.7936191129  CLST         884          1.0000000000
      2652       884  TIP3  H2          -14.7346104127       -6.7936372695      -12.3835810478  CLST         884          1.0000000000
      2653       885  TIP3  OH2           0.5979958657       14.3767204259       -0.5303781165  CLST         885          1.0000000000
      2654       885  TIP3  H1           -0.1452188266       14.4029980185        0.1291171647  CLST         885          1.0000000000
      2655       885  TIP3  H2            0.9364020336       13.6924431537        0.1007182764  CLST         885          1.0000000000
      2656       886  TIP3  OH2          11.8643985397       10.0888510253        4.2964930117  CLST         886          1.0000000000
      2657       886  TIP3  H1           11.6573502183        9.5161119224        5.0314760063  CLST         886          1.0000000000
      2658       886  TIP3  H2           11.4601057915       10.5631620823        5.2197376832  CLST         886          1.0000000000
      2659       887  TIP3  OH2          -7.3221332006       -7.9645536198       -1.6912158444  CLST         887          1.0000000000
      2660       887  TIP3  H1           -7.5027958051       -8.8995049541       -1.6574839883  CLST         887          1.0000000000
      2661       887  TIP3  H2           -6.4048150345       -8.2204558873       -1.8080329892  CLST         887          1.0000000000
      2662       888  TIP3  OH2         -12.9457859079       -2.9265014983       10.5139716095  CLST         888          1.0000000000
      2663       888  TIP3  H1          -13.4798106038       -2.7549083174       11.3115249973  CLST         888          1.0000000000
      2664       888  TIP3  H2          -12.4184398327       -2.2190862668       10.8864463911  CLST         888          1.0000000000
      2665       889  TIP3  OH2           4.7877458859      -12.9250703897        8.6696424529  CLST         889          1.0000000000
      2666       889  TIP3  H1            4.9573688397      -12.7481420262        7.7585229782  CLST         889          1.0000000000
      2667       889  TIP3  H2            5.2533920939      -12.0762297955        8.8414390955  CLST         889          1.0000000000
      2668       890  TIP3  OH2         -13.3050828802        6.1734824521       -9.5655125288  CLST         890          1.0000000000
      2669       890  TIP3  H1          -13.3145709541        5.9587094595      -10.4923950235  CLST         890          1.0000000000
      2670       890  TIP3  H2          -13.8039483890        6.9361633232       -9.9052925726  CLST         890          1.0000000000
      2671       891  TIP3  OH2         -12.7055897002       -5.6200698248       10.8987581126  CLST         891          1.0000000000
      2672       891  TIP3  H1          -12.9568213719       -4.7439396000       10.6579133944  CLST         891          1.0000000000
      2673       891  TIP3  H2          -12.6234659719       -5.6418808197        9.9086201692  CLST         891          1.0000000000
      2674       892  TIP3  OH2           3.1071727075       13.6788662071       13.4796097780  CLST         892          1.0000000000
      2675       892  TIP3  H1            3.2249035008       14.4030306475       13.8795188375  CLST         892          1.0000000000
      2676       892  TIP3  H2            3.3454664445       13.2870475879       14.3185056629  CLST         892          1.0000000000
      2677       893  TIP3  OH2          -0.1573081568        7.3124947711        2.8686167738  CLST         893          1.0000000000
      2678       893  TIP3  H1           -0.8781897180        6.7493235520        2.6334745817  CLST         893          1.0000000000
      2679       893  TIP3  H2           -0.7957619072        7.9858270359        2.7902914543  CLST         893          1.0000000000
      2680       894  TIP3  OH2           9.4966092967       11.3432020474        0.1539347671  CLST         894          1.0000000000
      2681       894  TIP3  H1            9.9012941148       11.7209707338        0.8534047241  CLST         894          1.0000000000
      2682       894  TIP3  H2            8.5898661315       11.7619080530        0.0842801967  CLST         894          1.0000000000
      2683       895  TIP3  OH2          -9.9531855397       10.1624238350      -10.6074678919  CLST         895          1.0000000000
      2684       895  TIP3  H1          -10.4516368234       10.9178665231      -10.4303285203  CLST         895          1.0000000000
      2685       895  TIP3  H2           -9.2354086033       10.7832787985      -10.7640205769  CLST         895          1.0000000000
      2686       896  TIP3  OH2           8.0071630066       -6.6645142281       -0.4659154699  CLST         896          1.0000000000
      2687       896  TIP3  H1            7.4346351054       -7.0176615277       -1.1466795461  CLST         896          1.0000000000
      2688       896  TIP3  H2            8.6603107658       -7.2200399120       -0.8437854532  CLST         896          1.0000000000
      2689       897  TIP3  OH2           9.4247834642       -2.3568630541       -9.0895121164  CLST         897          1.0000000000
      2690       897  TIP3  H1            9.5361434923       -2.7893128155       -8.2444583128  CLST         897          1.0000000000
      2691       897  TIP3  H2            9.0634392985       -1.6511331718       -8.5132878186  CLST         897          1.0000000000
      2692       898  TIP3  OH2          13.7676079261        5.9564722384      -11.7746301737  CLST         898          1.0000000000
      2693       898  TIP3  H1           14.2995460475        5.3685991932      -11.2584219674  CLST         898          1.0000000000
      2694       898  TIP3  H2           12.9591810346        5.7573760169      -11.3074462372  CLST         898          1.0000000000
      2695       899  TIP3  OH2          14.1304698886       -6.6379751511        1.6616701877  CLST         899          1.0000000000
      2696       899  TIP3  H1           14.3451790225       -7.5982267095        1.6929095459  CLST         899          1.0000000000
      2697       899  TIP3  H2           13.6373270191       -6.6739710808        2.5371926265  CLST         899          1.0000000000
      2698       900  TIP3  OH2          -9.6844436873      -10.0729032854        9.8743081873  CLST         900          1.0000000000
      2699       900  TIP3  H1          -10.0289415176       -9.2425711151       10.1240076961  CLST         900          1.0000000000
      2700       900  TIP3  H2           -9.2854030417       -9.5217323772        9.1437277956  CLST         900          1.0000000000
      2701       901  TIP3  OH2          10.2731777580        8.5877332609       -8.7833003471  CLST         901          1.0000000000
      2702       901  TIP3  H1           10.0822213515        9.0010749707       -9.6495237153  CLST         901          1.0000000000
      2703       901  TIP3  H2            9.3165778477        8.7465645184       -8.6410805219  CLST         901          1.0000000000
      2704       902  TIP3  OH2           3.6014866747        0.3197689212        9.7405964003  CLST         902          1.0000000000
      2705       902  TIP3  H1            3.8661617948       -0.1285561263        8.9320042036  CLST         902          1.0000000000
      2706       902  TIP3  H2            3.1191761379        0.9672211939        9.2220469281  CLST         902          1.0000000000
      2707       903  TIP3  OH2          -0.9937849835        0.6646865106       -8.0489315886  CLST         903          1.0000000000
      2708       903  TIP3  H1           -0.8171480598        0.8012792497       -8.9150332163  CLST         903          1.0000000000
      2709       903  TIP3  H2           -0.3924438055       -0.0394240509       -8.2522851688  CLST         903          1.0000000000
