* Geometry rescue: EQUI at step 8000
*
        2709  EXT
         1         1  TIP3  OH2           5.6027106950        0.7535713006       -3.5833265426  CLST           1          1.0000000000
         2         1  TIP3  H1            5.2704502408        0.4095112071       -2.7214510400  CLST           1          1.0000000000
         3         1  TIP3  H2            4.6763695536        0.9079373273       -3.9368377061  CLST           1          1.0000000000
         4         2  TIP3  OH2          14.6638313826       -1.8556255516       -1.2322550137  CLST           2          1.0000000000
         5         2  TIP3  H1           13.7122847629       -1.9479438030       -1.3010716897  CLST           2          1.0000000000
         6         2  TIP3  H2           14.8666647993       -2.8026077114       -1.2690857691  CLST           2          1.0000000000
         7         3  TIP3  OH2          -8.4306392108       -6.5600014169       -7.5606649313  CLST           3          1.0000000000
         8         3  TIP3  H1           -9.3530935113       -6.2269325521       -7.4502942620  CLST           3          1.0000000000
         9         3  TIP3  H2           -8.3217751486       -6.5621155104       -8.5426081909  CLST           3          1.0000000000
        10         4  TIP3  OH2          -9.4618896997       -3.8601785835       13.1284422638  CLST           4          1.0000000000
        11         4  TIP3  H1          -10.2079430945       -4.5407773443       13.3438793517  CLST           4          1.0000000000
        12         4  TIP3  H2           -9.3155703084       -4.1497711702       12.1963068781  CLST           4          1.0000000000
        13         5  TIP3  OH2          -3.4020632512      -10.2094358524       14.3553578906  CLST           5          1.0000000000
        14         5  TIP3  H1           -3.8516400065      -10.9249648773       14.8666647993  CLST           5          1.0000000000
        15         5  TIP3  H2           -3.5459324752      -10.4810276309       13.3924552186  CLST           5          1.0000000000
        16         6  TIP3  OH2          -3.3972053292        9.8204569610       13.9976667473  CLST           6          1.0000000000
        17         6  TIP3  H1           -2.4044309956        9.9595221757       13.9709495447  CLST           6          1.0000000000
        18         6  TIP3  H2           -3.4971190307        9.4791625109       14.8666647993  CLST           6          1.0000000000
        19         7  TIP3  OH2          -5.0924172452       -1.3717414898        8.7470990765  CLST           7          1.0000000000
        20         7  TIP3  H1           -4.6969971501       -0.9072232696        7.9641247703  CLST           7          1.0000000000
        21         7  TIP3  H2           -5.5021145310       -2.0979973366        8.2127045505  CLST           7          1.0000000000
        22         8  TIP3  OH2          -7.2611496581       -4.3724769118       -1.2798522390  CLST           8          1.0000000000
        23         8  TIP3  H1           -7.5767153439       -4.9694276818       -0.5859237373  CLST           8          1.0000000000
        24         8  TIP3  H2           -6.4068091576       -4.6981710436       -1.6118276363  CLST           8          1.0000000000
        25         9  TIP3  OH2         -13.2936283529       -5.5245287882        0.3503049784  CLST           9          1.0000000000
        26         9  TIP3  H1          -14.1781311157       -5.1785544212        0.1069789049  CLST           9          1.0000000000
        27         9  TIP3  H2          -12.8152658674       -4.6700391929        0.3446954850  CLST           9          1.0000000000
        28        10  TIP3  OH2          -4.4849209376        8.1637149412       -8.7959076528  CLST          10          1.0000000000
        29        10  TIP3  H1           -4.7789855180        9.0896864545       -8.7927933569  CLST          10          1.0000000000
        30        10  TIP3  H2           -3.5311700505        8.0748147303       -8.9591526444  CLST          10          1.0000000000
        31        11  TIP3  OH2           5.7233152777       12.6010735640       10.6870163256  CLST          11          1.0000000000
        32        11  TIP3  H1            4.9063250291       13.1177919322       10.8481082392  CLST          11          1.0000000000
        33        11  TIP3  H2            5.4013013718       11.7122314698       10.9554195049  CLST          11          1.0000000000
        34        12  TIP3  OH2         -11.7704637377      -13.2689429553       -3.3758875681  CLST          12          1.0000000000
        35        12  TIP3  H1          -12.5169245401      -12.7446611835       -3.0516508216  CLST          12          1.0000000000
        36        12  TIP3  H2          -12.1069365707      -13.6064096283       -4.2406646233  CLST          12          1.0000000000
        37        13  TIP3  OH2          -0.5006605281      -10.9222004256        2.9041165854  CLST          13          1.0000000000
        38        13  TIP3  H1            0.4628631186      -11.0995264792        2.8183059803  CLST          13          1.0000000000
        39        13  TIP3  H2           -0.4996563799      -10.8467541309        3.8877107779  CLST          13          1.0000000000
        40        14  TIP3  OH2          -1.7193459747        5.1317638100        7.9539864880  CLST          14          1.0000000000
        41        14  TIP3  H1           -1.6946606001        5.0554325373        8.9270372150  CLST          14          1.0000000000
        42        14  TIP3  H2           -0.8300336465        4.7809458264        7.7222477402  CLST          14          1.0000000000
        43        15  TIP3  OH2           1.0341654663       -1.3047404308       -4.7500678693  CLST          15          1.0000000000
        44        15  TIP3  H1            0.3613286659       -0.8197220781       -4.1990647035  CLST          15          1.0000000000
        45        15  TIP3  H2            1.0887087571       -2.1217325962       -4.1516456515  CLST          15          1.0000000000
        46        16  TIP3  OH2          -4.5193466992       -6.2732462036       13.5780899626  CLST          16          1.0000000000
        47        16  TIP3  H1           -3.8347113300       -6.9774637169       13.5677721615  CLST          16          1.0000000000
        48        16  TIP3  H2           -5.1326661940       -6.5382584672       14.2860909701  CLST          16          1.0000000000
        49        17  TIP3  OH2           8.3877139033       -0.7151870367        2.5030308272  CLST          17          1.0000000000
        50        17  TIP3  H1            7.6508355989       -1.3180038606        2.8011985130  CLST          17          1.0000000000
        51        17  TIP3  H2            8.9515025649       -1.4521388456        2.1644740035  CLST          17          1.0000000000
        52        18  TIP3  OH2           2.7132136624       -8.4266009072       -8.6422283492  CLST          18          1.0000000000
        53        18  TIP3  H1            3.1338878341       -7.7385778026       -8.0774233393  CLST          18          1.0000000000
        54        18  TIP3  H2            2.7992950357       -9.1522954991       -7.9444352848  CLST          18          1.0000000000
        55        19  TIP3  OH2           6.7635221074        7.7106728527       14.1876113845  CLST          19          1.0000000000
        56        19  TIP3  H1            7.7075629694        7.5763055796       13.9350534559  CLST          19          1.0000000000
        57        19  TIP3  H2            6.8848088975        8.4282279748       14.8666647993  CLST          19          1.0000000000
        58        20  TIP3  OH2           4.1326574236        9.5039902865        8.7906303267  CLST          20          1.0000000000
        59        20  TIP3  H1            3.2198252586        9.8878386347        8.5782624164  CLST          20          1.0000000000
        60        20  TIP3  H2            3.8673727741        8.5787495529        8.4775046480  CLST          20          1.0000000000
        61        21  TIP3  OH2           0.7532578585       -8.3479010530        1.0821949646  CLST          21          1.0000000000
        62        21  TIP3  H1            0.7417558120       -8.1573986223        2.0413832302  CLST          21          1.0000000000
        63        21  TIP3  H2           -0.1931131122       -8.5904738612        0.9696571439  CLST          21          1.0000000000
        64        22  TIP3  OH2          11.1491408747       -9.4407290355       10.2888502949  CLST          22          1.0000000000
        65        22  TIP3  H1           10.9540323308       -8.9868499814        9.4503280769  CLST          22          1.0000000000
        66        22  TIP3  H2           10.3261648917       -9.9687590060       10.3755498575  CLST          22          1.0000000000
        67        23  TIP3  OH2          12.2475746513      -14.3812094511      -10.7857488076  CLST          23          1.0000000000
        68        23  TIP3  H1           12.0263011199      -14.8391949616       -9.9102856435  CLST          23          1.0000000000
        69        23  TIP3  H2           13.1766540397      -14.3054213379      -10.3438072057  CLST          23          1.0000000000
        70        24  TIP3  OH2          13.2001200187       -7.8870114121       14.2326902837  CLST          24          1.0000000000
        71        24  TIP3  H1           12.5294043980       -7.7177496532       13.5087218046  CLST          24          1.0000000000
        72        24  TIP3  H2           12.5013672481       -8.1245678458       14.8666647993  CLST          24          1.0000000000
        73        25  TIP3  OH2           0.0836996673       -5.6797698267        5.8894478847  CLST          25          1.0000000000
        74        25  TIP3  H1           -0.5458382949       -5.5345863974        5.1259137516  CLST          25          1.0000000000
        75        25  TIP3  H2           -0.0463222006       -6.6236432691        6.1598597794  CLST          25          1.0000000000
        76        26  TIP3  OH2          -5.3035413955       -5.7607409955       -7.9548133854  CLST          26          1.0000000000
        77        26  TIP3  H1           -5.6192164871       -6.6753989598       -8.1234928961  CLST          26          1.0000000000
        78        26  TIP3  H2           -4.8578247035       -5.6841638224       -8.8335208694  CLST          26          1.0000000000
        79        27  TIP3  OH2           3.9475279241       12.2909265049       -1.0383782996  CLST          27          1.0000000000
        80        27  TIP3  H1            4.8703979347       12.2117669057       -0.7162462880  CLST          27          1.0000000000
        81        27  TIP3  H2            3.9518809600       13.2863782957       -1.1337922967  CLST          27          1.0000000000
        82        28  TIP3  OH2          -5.3501791609       -6.5178650947        6.5923774623  CLST          28          1.0000000000
        83        28  TIP3  H1           -4.3512695656       -6.6602210117        6.5607180788  CLST          28          1.0000000000
        84        28  TIP3  H2           -5.4909480208       -6.7759408144        5.6363491341  CLST          28          1.0000000000
        85        29  TIP3  OH2           4.2144360101      -10.0509806234       13.2865670654  CLST          29          1.0000000000
        86        29  TIP3  H1            4.9212810813       -9.4540784700       12.9808478444  CLST          29          1.0000000000
        87        29  TIP3  H2            3.4788594475       -9.4128790955       13.3778375151  CLST          29          1.0000000000
        88        30  TIP3  OH2          -1.2147196431       -3.3727391678       12.0004600563  CLST          30          1.0000000000
        89        30  TIP3  H1           -1.5567800591       -3.9923348284       12.6521676187  CLST          30          1.0000000000
        90        30  TIP3  H2           -0.8297456283       -2.6416206413       12.5605019709  CLST          30          1.0000000000
        91        31  TIP3  OH2          -5.4531639800      -10.2353488760      -10.0733774293  CLST          31          1.0000000000
        92        31  TIP3  H1           -6.4331258303      -10.3834980048       -9.9298248145  CLST          31          1.0000000000
        93        31  TIP3  H2           -5.3728675018       -9.5887741193       -9.3130534276  CLST          31          1.0000000000
        94        32  TIP3  OH2           4.3316706333        6.4962517882       14.8666647993  CLST          32          1.0000000000
        95        32  TIP3  H1            5.1444175521        6.8979978479       14.4508314952  CLST          32          1.0000000000
        96        32  TIP3  H2            3.7110597754        6.5210938578       14.1022243707  CLST          32          1.0000000000
        97        33  TIP3  OH2           1.8100817781       -5.5944948249       11.7343252529  CLST          33          1.0000000000
        98        33  TIP3  H1            1.5006276798       -4.8663493230       12.3498859691  CLST          33          1.0000000000
        99        33  TIP3  H2            1.7449016112       -5.1064036022       10.8941078817  CLST          33          1.0000000000
       100        34  TIP3  OH2         -12.5514734230       -6.6995099916        5.7614104525  CLST          34          1.0000000000
       101        34  TIP3  H1          -12.5056041476       -6.3953893275        4.8272473775  CLST          34          1.0000000000
       102        34  TIP3  H2          -13.5598600917       -6.7848185182        5.7711728937  CLST          34          1.0000000000
       103        35  TIP3  OH2         -12.4900901115        9.5444620205       14.0567466841  CLST          35          1.0000000000
       104        35  TIP3  H1          -13.1250998644        9.8851673164       13.3651472351  CLST          35          1.0000000000
       105        35  TIP3  H2          -12.8842877489        9.8459415212       14.8666647993  CLST          35          1.0000000000
       106        36  TIP3  OH2           6.7133616779       -8.4420233083      -11.6576947171  CLST          36          1.0000000000
       107        36  TIP3  H1            7.2290133049       -8.7466008313      -10.8924279096  CLST          36          1.0000000000
       108        36  TIP3  H2            6.8783424287       -9.0135082305      -12.4064748943  CLST          36          1.0000000000
       109        37  TIP3  OH2          10.3399009830      -12.1710999170        6.5671016743  CLST          37          1.0000000000
       110        37  TIP3  H1            9.5677189618      -11.7550680122        7.0332991028  CLST          37          1.0000000000
       111        37  TIP3  H2           10.8771460322      -12.4900104305        7.3376115672  CLST          37          1.0000000000
       112        38  TIP3  OH2           6.0195532489      -12.2231173327       -0.6532323054  CLST          38          1.0000000000
       113        38  TIP3  H1            6.8573016596      -12.7098311865       -0.5188097976  CLST          38          1.0000000000
       114        38  TIP3  H2            5.5664560990      -12.6489856764       -1.4163315957  CLST          38          1.0000000000
       115        39  TIP3  OH2          13.4511328017        6.2684624149       -6.6241530485  CLST          39          1.0000000000
       116        39  TIP3  H1           13.5001804548        5.3830343762       -7.0628373552  CLST          39          1.0000000000
       117        39  TIP3  H2           12.4855375685        6.2243025160       -6.3473795892  CLST          39          1.0000000000
       118        40  TIP3  OH2          -4.8718405965       14.1587924175       -5.7627629096  CLST          40          1.0000000000
       119        40  TIP3  H1           -5.5821086202       14.2151946683       -5.1015267741  CLST          40          1.0000000000
       120        40  TIP3  H2           -4.2850385278       13.5407818397       -5.2614957412  CLST          40          1.0000000000
       121        41  TIP3  OH2          11.1269064507        5.5365104603      -11.0021940808  CLST          41          1.0000000000
       122        41  TIP3  H1           10.9860951860        5.0761936695      -11.8614605557  CLST          41          1.0000000000
       123        41  TIP3  H2           10.6188545963        6.3643796285      -11.2169047455  CLST          41          1.0000000000
       124        42  TIP3  OH2          -1.0349042760       -6.7463722351       -1.9673901696  CLST          42          1.0000000000
       125        42  TIP3  H1           -1.3562441803       -5.8083194456       -2.0700643253  CLST          42          1.0000000000
       126        42  TIP3  H2           -1.1038058004       -6.9831402651       -2.9495859846  CLST          42          1.0000000000
       127        43  TIP3  OH2           9.8475870419      -10.9867503023       -1.9086625994  CLST          43          1.0000000000
       128        43  TIP3  H1            9.4217548685      -11.0338621976       -1.0194525778  CLST          43          1.0000000000
       129        43  TIP3  H2            9.7503354345      -11.9222788266       -2.1874035599  CLST          43          1.0000000000
       130        44  TIP3  OH2           0.5082670171       -3.0292942952        6.4640305241  CLST          44          1.0000000000
       131        44  TIP3  H1           -0.3412402569       -3.1352272768        6.9849258084  CLST          44          1.0000000000
       132        44  TIP3  H2            0.5027712633       -4.0029931718        6.2360614848  CLST          44          1.0000000000
       133        45  TIP3  OH2           4.8940638134       -6.3700404442        9.1070192692  CLST          45          1.0000000000
       134        45  TIP3  H1            5.4000052620       -5.5874577644        8.9162180724  CLST          45          1.0000000000
       135        45  TIP3  H2            4.9496793608       -6.3903841524       10.0909547671  CLST          45          1.0000000000
       136        46  TIP3  OH2           7.6745000705        4.6291033186       -8.2395232046  CLST          46          1.0000000000
       137        46  TIP3  H1            7.0720347110        4.9489461731       -7.5473602721  CLST          46          1.0000000000
       138        46  TIP3  H2            7.0832705914        4.6838845798       -9.0153692158  CLST          46          1.0000000000
       139        47  TIP3  OH2         -10.9046245270      -11.1397972981        3.3006844199  CLST          47          1.0000000000
       140        47  TIP3  H1          -11.1754498791      -10.4773674378        4.0066196112  CLST          47          1.0000000000
       141        47  TIP3  H2          -10.6233886905      -11.7993440806        4.0139595375  CLST          47          1.0000000000
       142        48  TIP3  OH2         -14.5825654641        9.5098988765        8.7040110615  CLST          48          1.0000000000
       143        48  TIP3  H1          -14.4662753694        9.5381426265        7.7428521243  CLST          48          1.0000000000
       144        48  TIP3  H2          -13.7873444928       10.0342918116        8.9232453408  CLST          48          1.0000000000
       145        49  TIP3  OH2           8.3536061600       -4.2667582731        4.1212741576  CLST          49          1.0000000000
       146        49  TIP3  H1            7.4187994882       -4.5139828275        3.8997042916  CLST          49          1.0000000000
       147        49  TIP3  H2            8.6733279745       -4.0871716954        3.2078769751  CLST          49          1.0000000000
       148        50  TIP3  OH2          11.0351400540        5.6657716863       -5.4677972106  CLST          50          1.0000000000
       149        50  TIP3  H1           11.1721522709        4.9970164201       -4.7464091958  CLST          50          1.0000000000
       150        50  TIP3  H2           10.0773325824        5.4634192561       -5.6404781055  CLST          50          1.0000000000
       151        51  TIP3  OH2          12.9175016680       -1.2671880814      -10.6373942938  CLST          51          1.0000000000
       152        51  TIP3  H1           13.2227829012       -2.0850097983      -11.1105756414  CLST          51          1.0000000000
       153        51  TIP3  H2           12.4980185209       -0.7491097487      -11.3541194520  CLST          51          1.0000000000
       154        52  TIP3  OH2          -1.7438057477       -1.7478130476        9.9362657595  CLST          52          1.0000000000
       155        52  TIP3  H1           -2.3505412317       -1.0931790306       10.3984744319  CLST          52          1.0000000000
       156        52  TIP3  H2           -1.4435496777       -2.2505264953       10.6957928590  CLST          52          1.0000000000
       157        53  TIP3  OH2         -10.9328272754       14.1050861167       -6.8181365223  CLST          53          1.0000000000
       158        53  TIP3  H1          -11.3815614586       14.8666647993       -6.3741709306  CLST          53          1.0000000000
       159        53  TIP3  H2          -10.0718035670       14.6000720005       -7.0084519413  CLST          53          1.0000000000
       160        54  TIP3  OH2         -13.8563161839       -5.4102606350       -7.9888432299  CLST          54          1.0000000000
       161        54  TIP3  H1          -12.8764920250       -5.4469784610       -7.9756762728  CLST          54          1.0000000000
       162        54  TIP3  H2          -14.0614405145       -4.9397158736       -8.7996516268  CLST          54          1.0000000000
       163        55  TIP3  OH2           0.3503916572        9.3776720377      -10.3185460395  CLST          55          1.0000000000
       164        55  TIP3  H1           -0.4550184142        9.7952203687      -10.7242322879  CLST          55          1.0000000000
       165        55  TIP3  H2            0.6523931183       10.1625132990       -9.7848910112  CLST          55          1.0000000000
       166        56  TIP3  OH2          -1.7366340007       -5.1058704579       14.0687253807  CLST          56          1.0000000000
       167        56  TIP3  H1           -2.3659706482       -4.6611081500       14.6450673905  CLST          56          1.0000000000
       168        56  TIP3  H2           -1.9419476223       -6.0859651583       14.0948642247  CLST          56          1.0000000000
       169        57  TIP3  OH2         -10.4190096666       11.4836907263       -1.2854782861  CLST          57          1.0000000000
       170        57  TIP3  H1          -10.8797897175       11.5698198681       -0.4245508774  CLST          57          1.0000000000
       171        57  TIP3  H2          -11.2300198992       11.6938354348       -1.8234357732  CLST          57          1.0000000000
       172        58  TIP3  OH2           9.6248574308        1.3425733121        0.2549009812  CLST          58          1.0000000000
       173        58  TIP3  H1            8.7010811413        0.9458196846        0.3325506689  CLST          58          1.0000000000
       174        58  TIP3  H2            9.3722318784        2.2199613010        0.6526639263  CLST          58          1.0000000000
       175        59  TIP3  OH2         -13.0743669624       13.0230672742        5.3608885240  CLST          59          1.0000000000
       176        59  TIP3  H1          -13.2391355457       13.0902613426        4.4028955713  CLST          59          1.0000000000
       177        59  TIP3  H2          -12.2249317471       12.5189117915        5.3404538741  CLST          59          1.0000000000
       178        60  TIP3  OH2          -3.8957911045        3.3137233091        7.0320960399  CLST          60          1.0000000000
       179        60  TIP3  H1           -3.2656704963        2.6018261061        7.3195734941  CLST          60          1.0000000000
       180        60  TIP3  H2           -3.3319133772        4.0860681377        7.2884572051  CLST          60          1.0000000000
       181        61  TIP3  OH2           0.5801828380       -2.1057244184        0.7016080190  CLST          61          1.0000000000
       182        61  TIP3  H1            0.0504708804       -1.5816703282        1.3689205497  CLST          61          1.0000000000
       183        61  TIP3  H2            0.2431409348       -3.0084185790        0.9043859502  CLST          61          1.0000000000
       184        62  TIP3  OH2          -3.8716518931        8.9662523965        4.4627517797  CLST          62          1.0000000000
       185        62  TIP3  H1           -3.3133799437        8.4065962939        5.0434170356  CLST          62          1.0000000000
       186        62  TIP3  H2           -3.1968199058        9.5458701377        4.0828207294  CLST          62          1.0000000000
       187        63  TIP3  OH2          -0.2453563665        7.5402357724       -2.9029890617  CLST          63          1.0000000000
       188        63  TIP3  H1           -0.5313458199        8.1811640520       -3.5789726238  CLST          63          1.0000000000
       189        63  TIP3  H2           -0.7793296012        7.8252244796       -2.0937724199  CLST          63          1.0000000000
       190        64  TIP3  OH2         -13.5464119693        3.5869724987       -3.5210089875  CLST          64          1.0000000000
       191        64  TIP3  H1          -13.0122355990        4.3129344806       -3.0978686119  CLST          64          1.0000000000
       192        64  TIP3  H2          -14.4439163466        4.0590181005       -3.4618913487  CLST          64          1.0000000000
       193        65  TIP3  OH2          -9.3977543771      -12.0964958529      -11.8123328472  CLST          65          1.0000000000
       194        65  TIP3  H1           -9.4514859638      -12.3260852088      -10.8346481853  CLST          65          1.0000000000
       195        65  TIP3  H2          -10.3896446131      -11.9149842588      -11.9962021085  CLST          65          1.0000000000
       196        66  TIP3  OH2          12.8986451489       -7.8959294766        3.8764618486  CLST          66          1.0000000000
       197        66  TIP3  H1           13.1538049176       -8.6109481857        3.2568614898  CLST          66          1.0000000000
       198        66  TIP3  H2           12.5789505470       -8.4732076433        4.6153707455  CLST          66          1.0000000000
       199        67  TIP3  OH2           7.3737471178       -0.8049083312       -6.5897513124  CLST          67          1.0000000000
       200        67  TIP3  H1            7.8615331101       -1.5921211068       -6.3098875983  CLST          67          1.0000000000
       201        67  TIP3  H2            8.0963475065       -0.2239577433       -6.9079177247  CLST          67          1.0000000000
       202        68  TIP3  OH2          -6.9759418201        1.1343442033        0.7481082150  CLST          68          1.0000000000
       203        68  TIP3  H1           -7.5768143464        0.5208552570        1.2608182517  CLST          68          1.0000000000
       204        68  TIP3  H2           -7.0075406889        2.0086856208        1.2384248969  CLST          68          1.0000000000
       205        69  TIP3  OH2         -11.8940407105       -0.7508487493        7.1938091462  CLST          69          1.0000000000
       206        69  TIP3  H1          -11.0163890499       -1.1251730843        7.5325228672  CLST          69          1.0000000000
       207        69  TIP3  H2          -11.7751366797        0.1466099495        7.5708511438  CLST          69          1.0000000000
       208        70  TIP3  OH2          -1.8020267887        7.3634137307       -8.6098622359  CLST          70          1.0000000000
       209        70  TIP3  H1           -0.8432210716        7.1469985018       -8.7774771129  CLST          70          1.0000000000
       210        70  TIP3  H2           -1.5579385445        8.2476887381       -8.1767001634  CLST          70          1.0000000000
       211        71  TIP3  OH2         -13.3631152336       -1.6580000768       -5.5180644055  CLST          71          1.0000000000
       212        71  TIP3  H1          -12.8891253460       -1.3968260098       -4.6836238761  CLST          71          1.0000000000
       213        71  TIP3  H2          -13.3657438058       -0.7374364205       -5.8875208071  CLST          71          1.0000000000
       214        72  TIP3  OH2          10.9629738270       -2.5611034988        4.7426608374  CLST          72          1.0000000000
       215        72  TIP3  H1           10.6306387661       -2.6658345382        3.8054823725  CLST          72          1.0000000000
       216        72  TIP3  H2           11.4132950897       -1.6946449958        4.6586977719  CLST          72          1.0000000000
       217        73  TIP3  OH2          -3.5236056948      -13.7139505432       -6.6574953947  CLST          73          1.0000000000
       218        73  TIP3  H1           -3.8942255223      -13.3150091796       -7.4508330551  CLST          73          1.0000000000
       219        73  TIP3  H2           -3.8901397134      -14.5193770152       -6.3240516941  CLST          73          1.0000000000
       220        74  TIP3  OH2          -4.2851901891       12.1123490962       -1.5000645180  CLST          74          1.0000000000
       221        74  TIP3  H1           -4.7606763075       11.3123359951       -1.8084216550  CLST          74          1.0000000000
       222        74  TIP3  H2           -5.0892195119       12.7074678411       -1.3838746916  CLST          74          1.0000000000
       223        75  TIP3  OH2          -9.7568292953        4.9006005701        5.3420501154  CLST          75          1.0000000000
       224        75  TIP3  H1           -9.0206361494        5.3767586775        5.8376069437  CLST          75          1.0000000000
       225        75  TIP3  H2          -10.5431118071        5.2028451471        5.9285879353  CLST          75          1.0000000000
       226        76  TIP3  OH2           8.5226104643       13.4802310064       -9.0934974021  CLST          76          1.0000000000
       227        76  TIP3  H1            8.5663689151       13.6048144297      -10.0442253811  CLST          76          1.0000000000
       228        76  TIP3  H2            9.4101039801       13.0135954249       -9.1051091774  CLST          76          1.0000000000
       229        77  TIP3  OH2           0.5501602673       -5.6273294490       -5.1317176638  CLST          77          1.0000000000
       230        77  TIP3  H1            1.0561967015       -5.4799850060       -5.9430932420  CLST          77          1.0000000000
       231        77  TIP3  H2           -0.2185745688       -6.1109794785       -5.4593897072  CLST          77          1.0000000000
       232        78  TIP3  OH2          -5.3545005217       -8.1792875270        1.5554416667  CLST          78          1.0000000000
       233        78  TIP3  H1           -4.9204879902       -7.8791216175        0.7123462193  CLST          78          1.0000000000
       234        78  TIP3  H2           -5.9163801214       -8.9069668799        1.1893752328  CLST          78          1.0000000000
       235        79  TIP3  OH2           6.9649374024      -14.3629850690       10.2545313500  CLST          79          1.0000000000
       236        79  TIP3  H1            6.5869064811      -14.4946372221       11.1576539827  CLST          79          1.0000000000
       237        79  TIP3  H2            6.1620225963      -14.0931448391        9.7473791320  CLST          79          1.0000000000
       238        80  TIP3  OH2           6.5934306448       -0.0409601072      -12.9726881457  CLST          80          1.0000000000
       239        80  TIP3  H1            6.6200874550        0.2480400486      -13.9154928318  CLST          80          1.0000000000
       240        80  TIP3  H2            7.5252379593        0.1241783622      -12.7248632328  CLST          80          1.0000000000
       241        81  TIP3  OH2          -7.2662723514        1.0978826878        5.8236290473  CLST          81          1.0000000000
       242        81  TIP3  H1           -8.1871172252        1.4379151633        5.6887652031  CLST          81          1.0000000000
       243        81  TIP3  H2           -6.7901212279        1.9560374417        5.6411695198  CLST          81          1.0000000000
       244        82  TIP3  OH2           2.3673719505       -1.7832804654       10.9295088517  CLST          82          1.0000000000
       245        82  TIP3  H1            2.6558260160       -0.9942982203       10.4251980419  CLST          82          1.0000000000
       246        82  TIP3  H2            3.2409032367       -2.2518495579       10.9626628431  CLST          82          1.0000000000
       247        83  TIP3  OH2          10.3421322003        8.3922809622       -4.8799904862  CLST          83          1.0000000000
       248        83  TIP3  H1           10.5138890892        7.4388826401       -5.1315256816  CLST          83          1.0000000000
       249        83  TIP3  H2           10.7877787449        8.3620282113       -3.9967045070  CLST          83          1.0000000000
       250        84  TIP3  OH2         -13.4399567147        7.9553558263       -1.1719448155  CLST          84          1.0000000000
       251        84  TIP3  H1          -14.0888319834        7.4353418524       -0.7688551119  CLST          84          1.0000000000
       252        84  TIP3  H2          -12.6411269256        7.4429588946       -0.8199778477  CLST          84          1.0000000000
       253        85  TIP3  OH2           2.3989214360       -1.6698721498        7.8912354026  CLST          85          1.0000000000
       254        85  TIP3  H1            1.8895781851       -2.1680971661        7.2038105502  CLST          85          1.0000000000
       255        85  TIP3  H2            3.1149684216       -2.3499615343        8.0607931661  CLST          85          1.0000000000
       256        86  TIP3  OH2           8.0740114159       -9.3921730858       10.0058564207  CLST          86          1.0000000000
       257        86  TIP3  H1            8.3839322990       -8.6245809426       10.5249848581  CLST          86          1.0000000000
       258        86  TIP3  H2            7.4585494725       -9.7947725265       10.6827465490  CLST          86          1.0000000000
       259        87  TIP3  OH2           0.3805116433       -1.2508157089       12.8288222048  CLST          87          1.0000000000
       260        87  TIP3  H1            1.0380189560       -1.4226779903       12.0646522794  CLST          87          1.0000000000
       261        87  TIP3  H2            0.3727876576       -0.2882446108       12.8429187364  CLST          87          1.0000000000
       262        88  TIP3  OH2          14.4808244435      -10.8771090396        8.1861453319  CLST          88          1.0000000000
       263        88  TIP3  H1           13.5979140799      -11.1136559771        8.5246523339  CLST          88          1.0000000000
       264        88  TIP3  H2           14.6982849025      -11.7875872834        7.9067844726  CLST          88          1.0000000000
       265        89  TIP3  OH2           6.8314970727       11.8712158118       -4.1705286256  CLST          89          1.0000000000
       266        89  TIP3  H1            6.0130226283       12.1360734508       -3.7674715952  CLST          89          1.0000000000
       267        89  TIP3  H2            6.9870595116       11.0097809765       -3.7079030374  CLST          89          1.0000000000
       268        90  TIP3  OH2          14.3670703523       -4.6983146435       -0.3293971389  CLST          90          1.0000000000
       269        90  TIP3  H1           13.8589993297       -5.1467739124       -1.0775352163  CLST          90          1.0000000000
       270        90  TIP3  H2           14.0714670498       -5.3591114718        0.3728757009  CLST          90          1.0000000000
       271        91  TIP3  OH2          11.3756924886       10.7945828383       -5.8338210153  CLST          91          1.0000000000
       272        91  TIP3  H1           11.0575163170        9.9071468446       -5.4884185956  CLST          91          1.0000000000
       273        91  TIP3  H2           10.5005614551       11.2238530571       -5.9560064594  CLST          91          1.0000000000
       274        92  TIP3  OH2          -6.2470876437        3.4583076320        8.6364024192  CLST          92          1.0000000000
       275        92  TIP3  H1           -5.5678033702        3.3140874250        7.9191575448  CLST          92          1.0000000000
       276        92  TIP3  H2           -6.5121542975        2.5292512447        8.8392999353  CLST          92          1.0000000000
       277        93  TIP3  OH2           4.9678248128       -6.6407810368       11.9046270210  CLST          93          1.0000000000
       278        93  TIP3  H1            4.9194619980       -5.8189882826       12.3815350404  CLST          93          1.0000000000
       279        93  TIP3  H2            5.7652068688       -7.1683351475       12.1549005119  CLST          93          1.0000000000
       280        94  TIP3  OH2          -5.8902612353       11.9481732952        4.7700090429  CLST          94          1.0000000000
       281        94  TIP3  H1           -6.0880915030       12.0371341999        3.8303358259  CLST          94          1.0000000000
       282        94  TIP3  H2           -6.2785426782       11.0471592247        4.9148643178  CLST          94          1.0000000000
       283        95  TIP3  OH2           6.4529441334       11.2873465451       -0.6222319937  CLST          95          1.0000000000
       284        95  TIP3  H1            6.8003408416       10.6981943797       -1.3512338464  CLST          95          1.0000000000
       285        95  TIP3  H2            6.2199396137       10.5702698967        0.0133525212  CLST          95          1.0000000000
       286        96  TIP3  OH2          14.4957744259       -1.0801251625       11.7926714790  CLST          96          1.0000000000
       287        96  TIP3  H1           14.8666647993       -1.8442633977       12.2504436775  CLST          96          1.0000000000
       288        96  TIP3  H2           13.5800969975       -1.2079743748       11.4366292756  CLST          96          1.0000000000
       289        97  TIP3  OH2          -8.7611687478        9.0311965149       12.9071037863  CLST          97          1.0000000000
       290        97  TIP3  H1           -8.4772131129        8.7651991401       11.9866037106  CLST          97          1.0000000000
       291        97  TIP3  H2           -7.8163984463        9.1699357009       13.2321641425  CLST          97          1.0000000000
       292        98  TIP3  OH2           1.6469458587        4.2409426524       14.0155830901  CLST          98          1.0000000000
       293        98  TIP3  H1            2.2490458652        4.7556561303       13.4248802677  CLST          98          1.0000000000
       294        98  TIP3  H2            2.2430187605        3.4846517395       14.2305018978  CLST          98          1.0000000000
       295        99  TIP3  OH2         -12.5491393353       12.1359106078       -5.2519759933  CLST          99          1.0000000000
       296        99  TIP3  H1          -13.1156911243       12.2802547083       -6.0716293003  CLST          99          1.0000000000
       297        99  TIP3  H2          -11.7847941238       12.7700477154       -5.6282653951  CLST          99          1.0000000000
       298       100  TIP3  OH2           9.2057790820       -3.7618820735       -6.7563173717  CLST         100          1.0000000000
       299       100  TIP3  H1            8.5220644815       -3.8544711849       -6.1043989272  CLST         100          1.0000000000
       300       100  TIP3  H2            9.3770978946       -4.8250968546       -6.5814355078  CLST         100          1.0000000000
       301       101  TIP3  OH2          11.4106027369        2.1872337051      -10.3015544924  CLST         101          1.0000000000
       302       101  TIP3  H1           11.1284092848        2.7622543310       -9.5954979476  CLST         101          1.0000000000
       303       101  TIP3  H2           11.5585212906        1.4846638393       -9.6711586242  CLST         101          1.0000000000
       304       102  TIP3  OH2          -7.1275403377        2.2757919011      -12.6757422204  CLST         102          1.0000000000
       305       102  TIP3  H1           -7.8835786165        1.9876562168      -13.1468321960  CLST         102          1.0000000000
       306       102  TIP3  H2           -7.2991040814        3.1678708642      -12.9421753833  CLST         102          1.0000000000
       307       103  TIP3  OH2          -4.3657215603      -13.8421799702      -11.2341644285  CLST         103          1.0000000000
       308       103  TIP3  H1           -4.7656347575      -14.6511687242      -11.6207552562  CLST         103          1.0000000000
       309       103  TIP3  H2           -5.2963934695      -13.4888180339      -11.4680254382  CLST         103          1.0000000000
       310       104  TIP3  OH2         -10.9041171665      -11.7196178590        7.7920307385  CLST         104          1.0000000000
       311       104  TIP3  H1          -10.1586810113      -11.7328675641        8.1575357745  CLST         104          1.0000000000
       312       104  TIP3  H2          -10.5807780087      -10.9942656082        8.6047564080  CLST         104          1.0000000000
       313       105  TIP3  OH2           4.5508222521       -0.5239997478       14.3383258813  CLST         105          1.0000000000
       314       105  TIP3  H1            4.0182796562       -1.3457924632       14.4821336035  CLST         105          1.0000000000
       315       105  TIP3  H2            4.8575416384       -0.9723033102       13.5145114543  CLST         105          1.0000000000
       316       106  TIP3  OH2          14.4676561211       -1.3021509279        4.5295537365  CLST         106          1.0000000000
       317       106  TIP3  H1           14.5863220611       -0.4530769189        4.9992767930  CLST         106          1.0000000000
       318       106  TIP3  H2           13.5779447908       -0.9504129757        4.3904829513  CLST         106          1.0000000000
       319       107  TIP3  OH2           1.6185854317      -12.2270750466       -7.0994240777  CLST         107          1.0000000000
       320       107  TIP3  H1            0.8492937249      -11.6871914957       -6.8690890162  CLST         107          1.0000000000
       321       107  TIP3  H2            1.5101283462      -12.3954193932       -6.1437158774  CLST         107          1.0000000000
       322       108  TIP3  OH2          -6.9943542812       -3.7713291695       14.5311808767  CLST         108          1.0000000000
       323       108  TIP3  H1           -6.8129837502       -4.5642278029       14.0089060557  CLST         108          1.0000000000
       324       108  TIP3  H2           -7.9349206088       -3.8210879076       14.1473336155  CLST         108          1.0000000000
       325       109  TIP3  OH2          -4.0279929064       -1.1098689666       11.3082114735  CLST         109          1.0000000000
       326       109  TIP3  H1           -4.1901849197       -2.0699854931       11.5510544094  CLST         109          1.0000000000
       327       109  TIP3  H2           -4.3674955474       -1.3120039913       10.4013135553  CLST         109          1.0000000000
       328       110  TIP3  OH2           0.9687664620       -3.6484900020       -3.1697909103  CLST         110          1.0000000000
       329       110  TIP3  H1            0.8323187520       -4.4060358175       -3.7993830572  CLST         110          1.0000000000
       330       110  TIP3  H2            0.1057610523       -3.8185767846       -2.7611951775  CLST         110          1.0000000000
       331       111  TIP3  OH2          -5.1513203885       -1.0775795675       -6.2850001404  CLST         111          1.0000000000
       332       111  TIP3  H1           -4.8700187628       -0.4281047782       -6.9625356772  CLST         111          1.0000000000
       333       111  TIP3  H2           -4.5635303702       -1.8547303351       -6.5273439175  CLST         111          1.0000000000
       334       112  TIP3  OH2           2.2501541141      -12.3881428568       -4.5028770544  CLST         112          1.0000000000
       335       112  TIP3  H1            1.6318128047      -12.7551020251       -3.8512688873  CLST         112          1.0000000000
       336       112  TIP3  H2            2.0786796720      -11.5734564630       -3.9348437394  CLST         112          1.0000000000
       337       113  TIP3  OH2          14.0550926863        5.6525507901       12.3677894901  CLST         113          1.0000000000
       338       113  TIP3  H1           13.9913609804        6.6235873542       11.9198834664  CLST         113          1.0000000000
       339       113  TIP3  H2           14.6939773464        5.7072112034       11.6196611792  CLST         113          1.0000000000
       340       114  TIP3  OH2          -5.3270442254      -11.3205264293       -4.5049712085  CLST         114          1.0000000000
       341       114  TIP3  H1           -5.0568666241      -10.4118414378       -4.6553873948  CLST         114          1.0000000000
       342       114  TIP3  H2           -4.6553683885      -11.5914950339       -5.0910600976  CLST         114          1.0000000000
       343       115  TIP3  OH2           4.8666834580      -13.8146612695       -9.1855234979  CLST         115          1.0000000000
       344       115  TIP3  H1            4.5732794572      -14.4535409743      -10.0286416340  CLST         115          1.0000000000
       345       115  TIP3  H2            4.1789427294      -13.6039440133      -10.0585847395  CLST         115          1.0000000000
       346       116  TIP3  OH2           8.4820252672        5.4958501724      -14.3240654491  CLST         116          1.0000000000
       347       116  TIP3  H1            9.0309300000        5.0025260800      -13.7050132666  CLST         116          1.0000000000
       348       116  TIP3  H2            7.8360013691        4.8822428167      -13.9617853067  CLST         116          1.0000000000
       349       117  TIP3  OH2          -0.1679647125        1.7978866530       12.9570409248  CLST         117          1.0000000000
       350       117  TIP3  H1           -0.5330157564        1.8644442879       13.8395225442  CLST         117          1.0000000000
       351       117  TIP3  H2            0.1886765691        2.6840837276       12.9312526577  CLST         117          1.0000000000
       352       118  TIP3  OH2          12.6035054333       -9.7653692513       -6.6095472212  CLST         118          1.0000000000
       353       118  TIP3  H1           11.8436637232       -9.3886481098       -6.0813312702  CLST         118          1.0000000000
       354       118  TIP3  H2           12.9937331365       -8.9318071595       -6.4021147951  CLST         118          1.0000000000
       355       119  TIP3  OH2         -12.2549882484       -1.2901090665        4.4879478465  CLST         119          1.0000000000
       356       119  TIP3  H1          -11.6958161813       -2.0938714074        4.3764230646  CLST         119          1.0000000000
       357       119  TIP3  H2          -12.0887599064       -1.1971087694        5.4220194271  CLST         119          1.0000000000
       358       120  TIP3  OH2         -11.6931329483        4.2266154059       -7.7691816311  CLST         120          1.0000000000
       359       120  TIP3  H1          -12.2219902929        4.6163612997       -8.5113517121  CLST         120          1.0000000000
       360       120  TIP3  H2          -12.6182587410        4.0215747177       -7.4977404193  CLST         120          1.0000000000
       361       121  TIP3  OH2          -6.0700073676       -7.0903596898        3.9953596780  CLST         121          1.0000000000
       362       121  TIP3  H1           -5.7391086888       -7.3551976716        3.0738842450  CLST         121          1.0000000000
       363       121  TIP3  H2           -6.8458941332       -6.6283074381        3.5808012579  CLST         121          1.0000000000
       364       122  TIP3  OH2           9.4361983296       -7.1213551362       -6.3318201185  CLST         122          1.0000000000
       365       122  TIP3  H1            9.4100784434       -7.9583537840       -6.8356550446  CLST         122          1.0000000000
       366       122  TIP3  H2            9.7227633909       -7.1681009659       -7.4105150295  CLST         122          1.0000000000
       367       123  TIP3  OH2          -6.8546809888      -10.3835793968        0.6809554413  CLST         123          1.0000000000
       368       123  TIP3  H1           -6.9259273744      -10.7143799660       -0.1842505986  CLST         123          1.0000000000
       369       123  TIP3  H2           -7.7576135690      -10.1613896211        0.6777539235  CLST         123          1.0000000000
       370       124  TIP3  OH2         -13.1028019501       -1.9678298815       -9.6574788228  CLST         124          1.0000000000
       371       124  TIP3  H1          -13.7387162491       -2.7230691537       -9.7322338152  CLST         124          1.0000000000
       372       124  TIP3  H2          -12.7624906615       -2.9710697948      -10.2450165985  CLST         124          1.0000000000
       373       125  TIP3  OH2           6.5954144130        2.8877624667       -5.4425012638  CLST         125          1.0000000000
       374       125  TIP3  H1            6.2961367369        2.2159268598       -4.8306709824  CLST         125          1.0000000000
       375       125  TIP3  H2            6.0188476484        2.5320791358       -6.1536336403  CLST         125          1.0000000000
       376       126  TIP3  OH2          12.2095049784       -9.9634187492        5.5771398517  CLST         126          1.0000000000
       377       126  TIP3  H1           13.0344391286      -10.4969186562        5.4407159434  CLST         126          1.0000000000
       378       126  TIP3  H2           11.7143465192      -10.8317775231        5.7534004399  CLST         126          1.0000000000
       379       127  TIP3  OH2         -10.2900195530       -5.7881008546       -5.0963144377  CLST         127          1.0000000000
       380       127  TIP3  H1           -9.8749412894       -5.1287861270       -4.5064974830  CLST         127          1.0000000000
       381       127  TIP3  H2           -9.5804504486       -6.3933204583       -4.9194528427  CLST         127          1.0000000000
       382       128  TIP3  OH2          -6.2039332762       -3.4222584503        7.0190947843  CLST         128          1.0000000000
       383       128  TIP3  H1           -5.7091086090       -4.2354980053        7.1063861067  CLST         128          1.0000000000
       384       128  TIP3  H2           -6.1839234652       -3.1080624712        6.0983783151  CLST         128          1.0000000000
       385       129  TIP3  OH2         -11.9369994088      -14.1222396376      -10.7053564912  CLST         129          1.0000000000
       386       129  TIP3  H1          -11.0565594177      -14.4497606321      -10.8211995761  CLST         129          1.0000000000
       387       129  TIP3  H2          -12.5803881990      -14.5666545256      -11.0567348848  CLST         129          1.0000000000
       388       130  TIP3  OH2           8.8998010894       -0.8466872688       13.7996744829  CLST         130          1.0000000000
       389       130  TIP3  H1            8.5438916092       -1.6903077454       14.1258210453  CLST         130          1.0000000000
       390       130  TIP3  H2            7.8773222196       -0.7023117437       13.8319062533  CLST         130          1.0000000000
       391       131  TIP3  OH2          -9.8454836843      -11.0324918866       -1.3237200005  CLST         131          1.0000000000
       392       131  TIP3  H1           -9.1113727902      -11.7246763818       -1.1900107004  CLST         131          1.0000000000
       393       131  TIP3  H2          -10.2343629624      -11.5434237663       -0.5723958304  CLST         131          1.0000000000
       394       132  TIP3  OH2           9.0786999885       -2.5255811397        9.5485784484  CLST         132          1.0000000000
       395       132  TIP3  H1            9.9195961791       -2.4488082598        9.0600982282  CLST         132          1.0000000000
       396       132  TIP3  H2            9.3843740852       -1.6620477992        9.8560332275  CLST         132          1.0000000000
       397       133  TIP3  OH2          -9.7095866377       -7.8587336600        7.6003202828  CLST         133          1.0000000000
       398       133  TIP3  H1           -8.7565886171       -7.9605000113        7.8175682483  CLST         133          1.0000000000
       399       133  TIP3  H2           -9.3638873756       -7.4961940665        6.7987438321  CLST         133          1.0000000000
       400       134  TIP3  OH2          -8.9559702294      -12.0443261317       14.6892360092  CLST         134          1.0000000000
       401       134  TIP3  H1           -9.4666516710      -12.3212871492       13.6893336098  CLST         134          1.0000000000
       402       134  TIP3  H2           -8.9980644751      -11.4263252071       13.8125586502  CLST         134          1.0000000000
       403       135  TIP3  OH2          -9.0385800918       11.0047198345        3.6363657535  CLST         135          1.0000000000
       404       135  TIP3  H1           -9.0839338969       10.5773226870        2.7803388451  CLST         135          1.0000000000
       405       135  TIP3  H2           -8.6373120187       10.1041225738        3.8316802470  CLST         135          1.0000000000
       406       136  TIP3  OH2          -4.8028066504       13.0558802428      -11.4284741356  CLST         136          1.0000000000
       407       136  TIP3  H1           -4.8190249532       13.0215097481      -10.6188163346  CLST         136          1.0000000000
       408       136  TIP3  H2           -5.4493986424       13.5307219859      -11.2217566652  CLST         136          1.0000000000
       409       137  TIP3  OH2          -5.5962416837      -10.8445821652        7.6979423193  CLST         137          1.0000000000
       410       137  TIP3  H1           -5.2005560760      -11.0163777760        6.7609241399  CLST         137          1.0000000000
       411       137  TIP3  H2           -5.1176368514      -11.7252602740        7.7539893535  CLST         137          1.0000000000
       412       138  TIP3  OH2           9.9629161991        8.2721436344       11.0362517129  CLST         138          1.0000000000
       413       138  TIP3  H1           10.1817467489        7.7416894023       11.7962019008  CLST         138          1.0000000000
       414       138  TIP3  H2           10.4431578892        8.6897541996       12.0355519147  CLST         138          1.0000000000
       415       139  TIP3  OH2           2.1002417606        9.7483695830       12.3473519319  CLST         139          1.0000000000
       416       139  TIP3  H1            3.0481879261       10.0076953311       12.3764728206  CLST         139          1.0000000000
       417       139  TIP3  H2            2.4599553078        9.0667237172       12.9294677928  CLST         139          1.0000000000
       418       140  TIP3  OH2          -3.1696828870       -1.2387249634       -8.0196977948  CLST         140          1.0000000000
       419       140  TIP3  H1           -2.5867454232       -0.5010679596       -7.9509175447  CLST         140          1.0000000000
       420       140  TIP3  H2           -2.5156153755       -1.8343574800       -8.2023198247  CLST         140          1.0000000000
       421       141  TIP3  OH2         -12.8995662022        5.4791931086       12.7438533552  CLST         141          1.0000000000
       422       141  TIP3  H1          -12.1898369616        6.0949152665       12.6584061531  CLST         141          1.0000000000
       423       141  TIP3  H2          -12.8563547801        5.9130565540       13.5644278817  CLST         141          1.0000000000
       424       142  TIP3  OH2          14.8281067943       -6.7118107212        5.5146150123  CLST         142          1.0000000000
       425       142  TIP3  H1           14.1027153335       -7.0143492529        4.8931800469  CLST         142          1.0000000000
       426       142  TIP3  H2           14.8666647993       -7.6277078431        5.9388241132  CLST         142          1.0000000000
       427       143  TIP3  OH2           6.7156855493       -6.7916858959        1.7855319910  CLST         143          1.0000000000
       428       143  TIP3  H1            7.1846139721       -6.7761105294        0.8485275967  CLST         143          1.0000000000
       429       143  TIP3  H2            5.9860673213       -6.6983465556        1.1331954413  CLST         143          1.0000000000
       430       144  TIP3  OH2          -1.6840518391      -13.9782111305        7.6315965121  CLST         144          1.0000000000
       431       144  TIP3  H1           -1.4835292963      -14.4264720416        6.7722475296  CLST         144          1.0000000000
       432       144  TIP3  H2           -1.4395495860      -14.8273712043        7.9527750376  CLST         144          1.0000000000
       433       145  TIP3  OH2           1.9569840839        7.3908213692       13.4542592468  CLST         145          1.0000000000
       434       145  TIP3  H1            1.1946922619        7.5646169329       13.9917207993  CLST         145          1.0000000000
       435       145  TIP3  H2            1.5110035191        6.9831574487       12.7007455453  CLST         145          1.0000000000
       436       146  TIP3  OH2          -5.9278491606       10.6311459166       -8.5066927625  CLST         146          1.0000000000
       437       146  TIP3  H1           -5.7033800932       11.5897263073       -8.3980997100  CLST         146          1.0000000000
       438       146  TIP3  H2           -6.7419583737       10.9277120564       -8.0567531084  CLST         146          1.0000000000
       439       147  TIP3  OH2           1.0628256390        2.8507885320       -4.6316071522  CLST         147          1.0000000000
       440       147  TIP3  H1            0.2459164594        3.0935356948       -4.1454708484  CLST         147          1.0000000000
       441       147  TIP3  H2            0.6289120590        3.1580983189       -5.3763161124  CLST         147          1.0000000000
       442       148  TIP3  OH2           7.5883210807        6.5520102658       -3.3796660529  CLST         148          1.0000000000
       443       148  TIP3  H1            8.0472421437        5.7724267202       -3.3738191823  CLST         148          1.0000000000
       444       148  TIP3  H2            6.9842163423        6.0940539312       -2.7438053547  CLST         148          1.0000000000
       445       149  TIP3  OH2          -4.1285436885      -13.4316868025       11.0268989347  CLST         149          1.0000000000
       446       149  TIP3  H1           -4.4222211662      -12.4750089821       10.9274758048  CLST         149          1.0000000000
       447       149  TIP3  H2           -3.8208811144      -13.0141604714       11.8334693201  CLST         149          1.0000000000
       448       150  TIP3  OH2          10.6986197796        1.2280497294       -2.4583473420  CLST         150          1.0000000000
       449       150  TIP3  H1           10.4326584164        1.1454168037       -1.4561190494  CLST         150          1.0000000000
       450       150  TIP3  H2            9.7172036774        1.0698800296       -2.5775125055  CLST         150          1.0000000000
       451       151  TIP3  OH2           3.6916298108      -11.8547961151        4.3949890658  CLST         151          1.0000000000
       452       151  TIP3  H1            4.0527126881      -12.5280089436        3.4671198437  CLST         151          1.0000000000
       453       151  TIP3  H2            3.4547574382      -11.7131764352        3.5410082195  CLST         151          1.0000000000
       454       152  TIP3  OH2           0.6791644598        6.0200778569       -5.8017868276  CLST         152          1.0000000000
       455       152  TIP3  H1            0.9973992364        6.9582924780       -5.9806606070  CLST         152          1.0000000000
       456       152  TIP3  H2            1.4562618107        5.7459974182       -6.2548399479  CLST         152          1.0000000000
       457       153  TIP3  OH2          -1.4343491215       10.0909234379       -7.6679418378  CLST         153          1.0000000000
       458       153  TIP3  H1           -2.0462261397       10.8000316187       -7.4352031665  CLST         153          1.0000000000
       459       153  TIP3  H2           -0.6695606870       10.4336351148       -7.3797201736  CLST         153          1.0000000000
       460       154  TIP3  OH2         -11.7872671206       -8.0919454684       -0.3668350600  CLST         154          1.0000000000
       461       154  TIP3  H1          -12.2778088201       -7.2449825205       -0.2644939522  CLST         154          1.0000000000
       462       154  TIP3  H2          -10.9968833023       -7.5361209004       -0.2939848575  CLST         154          1.0000000000
       463       155  TIP3  OH2          10.3808176695       -4.8661241479       14.4617970515  CLST         155          1.0000000000
       464       155  TIP3  H1           11.1779652365       -4.5562398045       13.9855132743  CLST         155          1.0000000000
       465       155  TIP3  H2           10.2371285330       -4.6239092895       13.3492620150  CLST         155          1.0000000000
       466       156  TIP3  OH2          13.8251948526        1.6921859584        0.0417101155  CLST         156          1.0000000000
       467       156  TIP3  H1           14.5800237067        1.2489855832       -0.2843695601  CLST         156          1.0000000000
       468       156  TIP3  H2           13.5513124477        1.6862626437       -0.8808436821  CLST         156          1.0000000000
       469       157  TIP3  OH2           0.1353219821       -5.0239393605       -8.3513955481  CLST         157          1.0000000000
       470       157  TIP3  H1            0.7195560955       -4.6554482221       -9.1156347567  CLST         157          1.0000000000
       471       157  TIP3  H2            0.4207507804       -5.9140852305       -8.7051007355  CLST         157          1.0000000000
       472       158  TIP3  OH2          -6.8295047693       -1.5540815305       -2.2323362585  CLST         158          1.0000000000
       473       158  TIP3  H1           -7.7163639274       -1.7743635039       -2.3396978551  CLST         158          1.0000000000
       474       158  TIP3  H2           -6.5800619593       -2.2447661356       -2.8824051609  CLST         158          1.0000000000
       475       159  TIP3  OH2           8.0626166813      -11.2975721282        8.0175470750  CLST         159          1.0000000000
       476       159  TIP3  H1            7.2055766998      -11.2199158700        7.5602639827  CLST         159          1.0000000000
       477       159  TIP3  H2            7.9859831903      -10.5421940444        8.6434820093  CLST         159          1.0000000000
       478       160  TIP3  OH2           4.5802551857       -9.4858622173        2.1342138644  CLST         160          1.0000000000
       479       160  TIP3  H1            4.3050416508       -8.9704990966        2.9271228930  CLST         160          1.0000000000
       480       160  TIP3  H2            5.0919111073       -9.8673983604        2.9159312542  CLST         160          1.0000000000
       481       161  TIP3  OH2           4.2696152529       -6.9885084653       -3.1321373150  CLST         161          1.0000000000
       482       161  TIP3  H1            4.9328905694       -7.3790432392       -2.6358829839  CLST         161          1.0000000000
       483       161  TIP3  H2            3.6313707887       -7.1923601525       -2.4374407510  CLST         161          1.0000000000
       484       162  TIP3  OH2           6.7697949772      -10.5273154349        3.1389066838  CLST         162          1.0000000000
       485       162  TIP3  H1            7.5087984480      -11.1211105849        3.3369907876  CLST         162          1.0000000000
       486       162  TIP3  H2            7.4138917915       -9.9560321346        3.5874271085  CLST         162          1.0000000000
       487       163  TIP3  OH2         -13.3536920180        0.1984717527        2.7396851052  CLST         163          1.0000000000
       488       163  TIP3  H1          -13.4889426413        0.4306783881        3.6740871560  CLST         163          1.0000000000
       489       163  TIP3  H2          -12.6327712384       -0.2417574889        3.1408548155  CLST         163          1.0000000000
       490       164  TIP3  OH2           8.4365181287        2.8823090302       10.1775098497  CLST         164          1.0000000000
       491       164  TIP3  H1            8.4394218196        3.5982929864        9.5113811961  CLST         164          1.0000000000
       492       164  TIP3  H2            9.3838302246        2.9499983992       10.0393341089  CLST         164          1.0000000000
       493       165  TIP3  OH2          14.4543406694        3.8417197692        5.0430111096  CLST         165          1.0000000000
       494       165  TIP3  H1           13.4844523088        4.3148439124        4.7375186594  CLST         165          1.0000000000
       495       165  TIP3  H2           13.8297920542        3.3717879545        4.4809419694  CLST         165          1.0000000000
       496       166  TIP3  OH2          -6.2498060637      -12.5646096796        5.2990771569  CLST         166          1.0000000000
       497       166  TIP3  H1           -6.4668924114      -12.1496863530        4.4404258549  CLST         166          1.0000000000
       498       166  TIP3  H2           -7.1972643149      -12.3024781122        5.4496668903  CLST         166          1.0000000000
       499       167  TIP3  OH2           0.2105846375       -7.6013142868       -9.4580860051  CLST         167          1.0000000000
       500       167  TIP3  H1            0.0107242780       -8.0823927016      -10.2414230682  CLST         167          1.0000000000
       501       167  TIP3  H2            1.1801752150       -7.8838840601       -9.4542139486  CLST         167          1.0000000000
       502       168  TIP3  OH2          -2.8131933171       -2.4221880475        1.5716576040  CLST         168          1.0000000000
       503       168  TIP3  H1           -3.1120718511       -3.2975356167        1.8859499386  CLST         168          1.0000000000
       504       168  TIP3  H2           -2.6245061530       -2.9119102454        0.7982030715  CLST         168          1.0000000000
       505       169  TIP3  OH2           0.8101264758       12.1821232496       12.7785864059  CLST         169          1.0000000000
       506       169  TIP3  H1            1.4550323117       11.4165829091       12.6787065598  CLST         169          1.0000000000
       507       169  TIP3  H2            1.6220244200       12.5518829110       13.0522883403  CLST         169          1.0000000000
       508       170  TIP3  OH2         -14.2450347784      -12.1914315869        4.5486329335  CLST         170          1.0000000000
       509       170  TIP3  H1          -14.0550762466      -13.1357563166        4.7888057695  CLST         170          1.0000000000
       510       170  TIP3  H2          -13.6939198848      -11.9741176904        5.2875647341  CLST         170          1.0000000000
       511       171  TIP3  OH2          -9.9121603659        2.4241910789        2.6726139840  CLST         171          1.0000000000
       512       171  TIP3  H1           -9.1530922864        3.0280723657        2.8347430013  CLST         171          1.0000000000
       513       171  TIP3  H2           -9.5689583203        1.9710184414        3.4508684236  CLST         171          1.0000000000
       514       172  TIP3  OH2          13.6282149730       -7.0778969171      -11.6220469229  CLST         172          1.0000000000
       515       172  TIP3  H1           13.4271991764       -7.1194157707      -10.6660210619  CLST         172          1.0000000000
       516       172  TIP3  H2           13.2809642466       -8.0127730371      -11.5145240257  CLST         172          1.0000000000
       517       173  TIP3  OH2         -12.6177217072       -5.7722086869        3.1031674796  CLST         173          1.0000000000
       518       173  TIP3  H1          -12.7635325098       -4.8143325544        3.2012797010  CLST         173          1.0000000000
       519       173  TIP3  H2          -13.1009018365       -5.7969880389        2.2080000471  CLST         173          1.0000000000
       520       174  TIP3  OH2           5.5274371623      -14.1146996941        5.7813519560  CLST         174          1.0000000000
       521       174  TIP3  H1            5.2043978102      -14.5037926384        6.5963675091  CLST         174          1.0000000000
       522       174  TIP3  H2            4.9692070934      -13.3945513224        6.0226496463  CLST         174          1.0000000000
       523       175  TIP3  OH2           4.5714445605       -3.6127174104        7.4899776581  CLST         175          1.0000000000
       524       175  TIP3  H1            4.0457847458       -4.3934562768        7.2736021411  CLST         175          1.0000000000
       525       175  TIP3  H2            5.2627174971       -3.8734604660        6.9168293048  CLST         175          1.0000000000
       526       176  TIP3  OH2           8.3540944649        2.5559972626      -10.8120215559  CLST         176          1.0000000000
       527       176  TIP3  H1            9.3184206695        2.5051029034      -11.1020196206  CLST         176          1.0000000000
       528       176  TIP3  H2            8.2851999553        1.6943443038      -11.3141074688  CLST         176          1.0000000000
       529       177  TIP3  OH2          -4.2433192571       11.0001174984        7.3262157531  CLST         177          1.0000000000
       530       177  TIP3  H1           -3.2845709682       11.1328753865        7.2463360711  CLST         177          1.0000000000
       531       177  TIP3  H2           -4.1233466827       10.2126096434        6.7648021152  CLST         177          1.0000000000
       532       178  TIP3  OH2           4.3186886238       -6.4500617005        0.5968733372  CLST         178          1.0000000000
       533       178  TIP3  H1            3.7596810033       -5.8888431757        0.0862466940  CLST         178          1.0000000000
       534       178  TIP3  H2            3.6319573256       -7.0378755754        0.9407425171  CLST         178          1.0000000000
       535       179  TIP3  OH2           2.9293029021       -9.9684558137        0.0401218194  CLST         179          1.0000000000
       536       179  TIP3  H1            2.2639043803       -9.3031699297        0.3929986963  CLST         179          1.0000000000
       537       179  TIP3  H2            3.5597477161       -9.7876664561        0.7183189133  CLST         179          1.0000000000
       538       180  TIP3  OH2          -1.8479976918       -3.6356177095        7.9493875308  CLST         180          1.0000000000
       539       180  TIP3  H1           -2.0080275512       -2.8682566169        8.5686085114  CLST         180          1.0000000000
       540       180  TIP3  H2           -2.6441308909       -3.5391616936        7.3927064048  CLST         180          1.0000000000
       541       181  TIP3  OH2         -12.3156765305       -0.0456434098      -11.1637851696  CLST         181          1.0000000000
       542       181  TIP3  H1          -11.4647642338       -0.4847891102      -10.4937172575  CLST         181          1.0000000000
       543       181  TIP3  H2          -12.4454723219       -0.3466627619      -10.1889672891  CLST         181          1.0000000000
       544       182  TIP3  OH2         -10.4130357321      -12.7142810136        5.5767266520  CLST         182          1.0000000000
       545       182  TIP3  H1          -11.0192763363      -12.3968474778        6.2072499097  CLST         182          1.0000000000
       546       182  TIP3  H2           -9.7554584869      -12.3828147474        6.2369681664  CLST         182          1.0000000000
       547       183  TIP3  OH2          11.8406757493        5.4685320224        4.3467901990  CLST         183          1.0000000000
       548       183  TIP3  H1           11.6988751841        5.2735614075        3.4094466082  CLST         183          1.0000000000
       549       183  TIP3  H2           11.7478756929        6.3127978575        3.9398514168  CLST         183          1.0000000000
       550       184  TIP3  OH2          -0.1472547633       -0.3811393088        7.9713756991  CLST         184          1.0000000000
       551       184  TIP3  H1            0.7165380882       -0.9262005268        8.0221956316  CLST         184          1.0000000000
       552       184  TIP3  H2           -0.5809979676       -0.9628321667        8.6611832072  CLST         184          1.0000000000
       553       185  TIP3  OH2           9.4656018287       13.0019434126       -4.0255568052  CLST         185          1.0000000000
       554       185  TIP3  H1            8.5728609110       12.6596102252       -4.1566442376  CLST         185          1.0000000000
       555       185  TIP3  H2            9.2592055004       13.8998751127       -4.3497346129  CLST         185          1.0000000000
       556       186  TIP3  OH2          12.1479993573        0.0679254440        4.1582371075  CLST         186          1.0000000000
       557       186  TIP3  H1           12.3861704087        0.5388139575        3.3531201234  CLST         186          1.0000000000
       558       186  TIP3  H2           11.3511621800        0.6354221318        4.1367726544  CLST         186          1.0000000000
       559       187  TIP3  OH2         -10.0886641260       -7.5932438727      -11.4934210800  CLST         187          1.0000000000
       560       187  TIP3  H1          -10.3991101827       -7.5590170117      -10.5936194394  CLST         187          1.0000000000
       561       187  TIP3  H2           -9.9463246591       -6.6675783282      -11.3814933500  CLST         187          1.0000000000
       562       188  TIP3  OH2         -14.1652359218       -0.5296734697        0.7342052692  CLST         188          1.0000000000
       563       188  TIP3  H1          -14.6935425561       -0.2225270906        1.4737903384  CLST         188          1.0000000000
       564       188  TIP3  H2          -14.8666647993       -0.9206395271        0.1759962904  CLST         188          1.0000000000
       565       189  TIP3  OH2          13.9434093758        1.9878622303       14.2605618634  CLST         189          1.0000000000
       566       189  TIP3  H1           13.1688519330        1.7452905660       13.7732548218  CLST         189          1.0000000000
       567       189  TIP3  H2           13.6288215160        1.3391788380       14.8666647993  CLST         189          1.0000000000
       568       190  TIP3  OH2           0.4977832293       -7.9338874772        3.8290268277  CLST         190          1.0000000000
       569       190  TIP3  H1            0.8723810651       -8.2068147339        4.6680012998  CLST         190          1.0000000000
       570       190  TIP3  H2            1.1071640556       -7.1963583256        3.7826213955  CLST         190          1.0000000000
       571       191  TIP3  OH2          -0.8309743443       13.9974026432       -3.9528411787  CLST         191          1.0000000000
       572       191  TIP3  H1           -1.6798840715       13.5651559756       -3.7645741174  CLST         191          1.0000000000
       573       191  TIP3  H2           -1.3150253954       14.7887801719       -4.0715434677  CLST         191          1.0000000000
       574       192  TIP3  OH2          -4.9655041809       -0.1697761168       -0.9472953338  CLST         192          1.0000000000
       575       192  TIP3  H1           -5.8000819004       -0.5576668141       -1.1801159378  CLST         192          1.0000000000
       576       192  TIP3  H2           -5.5926998355        0.4361010590       -0.4100533380  CLST         192          1.0000000000
       577       193  TIP3  OH2         -12.9569464200      -12.9862769706        6.8292602396  CLST         193          1.0000000000
       578       193  TIP3  H1          -12.1996842331      -13.5363050269        7.0226684394  CLST         193          1.0000000000
       579       193  TIP3  H2          -12.4869594070      -12.3861816049        7.4288049572  CLST         193          1.0000000000
       580       194  TIP3  OH2          12.4554564398       12.5480402015      -11.2605814506  CLST         194          1.0000000000
       581       194  TIP3  H1           12.5635318095       13.1844039925      -12.0221405979  CLST         194          1.0000000000
       582       194  TIP3  H2           13.3863493683       12.6630865924      -11.0792596330  CLST         194          1.0000000000
       583       195  TIP3  OH2           4.9883392965        2.6170404882        3.5702567991  CLST         195          1.0000000000
       584       195  TIP3  H1            4.0790346557        2.8108793879        3.1457214049  CLST         195          1.0000000000
       585       195  TIP3  H2            4.5771310124        1.6941913520        3.4422336129  CLST         195          1.0000000000
       586       196  TIP3  OH2           7.1530803502        5.5731430895       10.7202561682  CLST         196          1.0000000000
       587       196  TIP3  H1            7.2645924532        6.0151472281       11.4875256785  CLST         196          1.0000000000
       588       196  TIP3  H2            6.5366557828        6.0934158641        9.9280572924  CLST         196          1.0000000000
       589       197  TIP3  OH2          -4.1995644317       -9.4346866404        3.7236277087  CLST         197          1.0000000000
       590       197  TIP3  H1           -4.5680100204       -9.0282450354        2.8899504121  CLST         197          1.0000000000
       591       197  TIP3  H2           -3.6288274748       -8.6297234880        3.7006509534  CLST         197          1.0000000000
       592       198  TIP3  OH2          -4.5309057497       -9.0775426601       -5.8372660531  CLST         198          1.0000000000
       593       198  TIP3  H1           -4.0967825896       -9.0115466000       -6.6815034657  CLST         198          1.0000000000
       594       198  TIP3  H2           -5.2782235037       -9.3710066804       -6.4450698740  CLST         198          1.0000000000
       595       199  TIP3  OH2          11.7475471222        7.8041093689       -2.2930114183  CLST         199          1.0000000000
       596       199  TIP3  H1           11.6125673714        8.5424049184       -1.7038424417  CLST         199          1.0000000000
       597       199  TIP3  H2           12.5283323120        7.6109149973       -1.8366562958  CLST         199          1.0000000000
       598       200  TIP3  OH2          -4.6203538707       -7.7964058472       -1.0860729205  CLST         200          1.0000000000
       599       200  TIP3  H1           -3.8053525565       -7.8149375253       -1.5914262356  CLST         200          1.0000000000
       600       200  TIP3  H2           -4.8321850449       -6.9415013028       -1.5147311713  CLST         200          1.0000000000
       601       201  TIP3  OH2          13.7767411506      -10.6961867852       11.6621996938  CLST         201          1.0000000000
       602       201  TIP3  H1           14.4251036013      -10.2452429172       11.1432363630  CLST         201          1.0000000000
       603       201  TIP3  H2           13.0383349847      -10.2764271522       11.3122207639  CLST         201          1.0000000000
       604       202  TIP3  OH2          -2.8236882758       -9.6148208522        8.0266726297  CLST         202          1.0000000000
       605       202  TIP3  H1           -2.1755851957      -10.4775527287        8.4505236828  CLST         202          1.0000000000
       606       202  TIP3  H2           -2.3600779294      -10.4443166015        7.4175720961  CLST         202          1.0000000000
       607       203  TIP3  OH2          10.3574682663        4.3898586416       13.8196241824  CLST         203          1.0000000000
       608       203  TIP3  H1            9.7197485449        3.7508484048       13.3627985228  CLST         203          1.0000000000
       609       203  TIP3  H2            9.3900843695        3.9660727361       14.1808809787  CLST         203          1.0000000000
       610       204  TIP3  OH2          -5.4761498478        6.1417956650        6.0109340688  CLST         204          1.0000000000
       611       204  TIP3  H1           -6.1921581232        6.8159307485        5.8223421702  CLST         204          1.0000000000
       612       204  TIP3  H2           -5.2084044186        6.7820201032        6.7128301594  CLST         204          1.0000000000
       613       205  TIP3  OH2          -2.1443365302        1.5105218531       -4.8921687160  CLST         205          1.0000000000
       614       205  TIP3  H1           -1.3249623318        1.6325893464       -5.4376432753  CLST         205          1.0000000000
       615       205  TIP3  H2           -2.5106922003        2.1597957334       -5.4868759104  CLST         205          1.0000000000
       616       206  TIP3  OH2          -8.7749313069       -1.2984423262        4.6136850986  CLST         206          1.0000000000
       617       206  TIP3  H1           -9.0711316580       -1.5788544175        5.4937088981  CLST         206          1.0000000000
       618       206  TIP3  H2           -8.1088758171       -0.6469518943        4.8999951034  CLST         206          1.0000000000
       619       207  TIP3  OH2          -7.7185767826        9.6518327282        0.3574862164  CLST         207          1.0000000000
       620       207  TIP3  H1           -7.1490085992        8.8344977769        0.2666558558  CLST         207          1.0000000000
       621       207  TIP3  H2           -8.2569737429        9.1079700172        0.9679507453  CLST         207          1.0000000000
       622       208  TIP3  OH2           9.3967520306       14.0868803587      -11.6368402120  CLST         208          1.0000000000
       623       208  TIP3  H1            9.4510356387       13.5781745331      -12.4134579262  CLST         208          1.0000000000
       624       208  TIP3  H2            9.9130482914       14.8575606503      -11.7455000766  CLST         208          1.0000000000
       625       209  TIP3  OH2          -6.6446464516       -6.3354502649      -14.3918542885  CLST         209          1.0000000000
       626       209  TIP3  H1           -7.5382485514       -6.4136216775      -14.6813554421  CLST         209          1.0000000000
       627       209  TIP3  H2           -6.8009814046       -6.9328379415      -13.7091232354  CLST         209          1.0000000000
       628       210  TIP3  OH2          -2.2419435264        1.0594067372        7.9082743622  CLST         210          1.0000000000
       629       210  TIP3  H1           -1.8514154312        0.1910496538        8.0569541491  CLST         210          1.0000000000
       630       210  TIP3  H2           -1.9117583054        1.3175716617        8.7901109064  CLST         210          1.0000000000
       631       211  TIP3  OH2          -0.8325137959        0.0498133781       -3.0336391005  CLST         211          1.0000000000
       632       211  TIP3  H1           -1.5534520794       -0.4681988936       -2.8555843052  CLST         211          1.0000000000
       633       211  TIP3  H2           -1.3556989630        0.6852704071       -3.4992554043  CLST         211          1.0000000000
       634       212  TIP3  OH2           6.8870951922        2.9782476177        5.4876033644  CLST         212          1.0000000000
       635       212  TIP3  H1            6.8584068092        2.0404405101        5.7432252232  CLST         212          1.0000000000
       636       212  TIP3  H2            6.0273743900        3.1165145011        5.0054381918  CLST         212          1.0000000000
       637       213  TIP3  OH2           1.8769423890       -4.7852441670       -0.5675660105  CLST         213          1.0000000000
       638       213  TIP3  H1            1.9394478035       -4.0002104693       -1.1444370890  CLST         213          1.0000000000
       639       213  TIP3  H2            1.8798084195       -5.2436903240       -1.4248864707  CLST         213          1.0000000000
       640       214  TIP3  OH2           2.3889279782       -6.9329940906      -11.6661034509  CLST         214          1.0000000000
       641       214  TIP3  H1            2.8227972428       -7.8045311990      -11.5780338493  CLST         214          1.0000000000
       642       214  TIP3  H2            3.1339916594       -6.6191789919      -11.0972533187  CLST         214          1.0000000000
       643       215  TIP3  OH2         -12.4958470963        2.8163130912      -11.2180506659  CLST         215          1.0000000000
       644       215  TIP3  H1          -12.5386688061        1.7618635752      -11.6306393525  CLST         215          1.0000000000
       645       215  TIP3  H2          -13.1933011276        2.3009812356      -11.1772864387  CLST         215          1.0000000000
       646       216  TIP3  OH2          11.4070735597       -6.2691238921       -4.5884323162  CLST         216          1.0000000000
       647       216  TIP3  H1           10.6540580719       -6.9150077663       -4.5795368516  CLST         216          1.0000000000
       648       216  TIP3  H2           10.9078404696       -5.9322706064       -5.3553610340  CLST         216          1.0000000000
       649       217  TIP3  OH2          -6.6157201996        9.1252679267        3.9914138438  CLST         217          1.0000000000
       650       217  TIP3  H1           -5.6310834867        8.9797463688        4.0426449184  CLST         217          1.0000000000
       651       217  TIP3  H2           -6.7592119376        8.3488751199        3.5435209671  CLST         217          1.0000000000
       652       218  TIP3  OH2           5.8503332112       -7.6010524110       -8.3640568689  CLST         218          1.0000000000
       653       218  TIP3  H1            6.1249966844       -8.5389000265       -8.2466552231  CLST         218          1.0000000000
       654       218  TIP3  H2            5.6774079850       -7.7201125668       -7.4022533017  CLST         218          1.0000000000
       655       219  TIP3  OH2           2.6579054537      -13.5182931344        7.4392644296  CLST         219          1.0000000000
       656       219  TIP3  H1            2.2565898027      -13.0031874930        8.1570559928  CLST         219          1.0000000000
       657       219  TIP3  H2            3.4042152094      -13.7768057077        8.0618165284  CLST         219          1.0000000000
       658       220  TIP3  OH2           2.1415340797        1.6707202214      -11.1998927752  CLST         220          1.0000000000
       659       220  TIP3  H1            2.7492589971        1.6486380558      -11.9688198386  CLST         220          1.0000000000
       660       220  TIP3  H2            3.0260576547        1.2451017514      -10.8912747241  CLST         220          1.0000000000
       661       221  TIP3  OH2           1.9319568057       -0.3235751909        3.2415613323  CLST         221          1.0000000000
       662       221  TIP3  H1            1.1027300206       -0.2070207523        2.8283883394  CLST         221          1.0000000000
       663       221  TIP3  H2            1.7894734653        0.5265318335        3.6697619149  CLST         221          1.0000000000
       664       222  TIP3  OH2          12.1571385276        0.7986272653        1.5355120487  CLST         222          1.0000000000
       665       222  TIP3  H1           12.4522268885        0.8853985324        0.5956434743  CLST         222          1.0000000000
       666       222  TIP3  H2           11.2027582474        0.6175893929        1.0816098742  CLST         222          1.0000000000
       667       223  TIP3  OH2           1.1296435520      -10.4567245199      -12.8895282381  CLST         223          1.0000000000
       668       223  TIP3  H1            0.8205274431      -10.6270835292      -11.7062868585  CLST         223          1.0000000000
       669       223  TIP3  H2            0.4043026719       -9.9515144964      -12.4569392524  CLST         223          1.0000000000
       670       224  TIP3  OH2          -8.9845745661        7.0721077763      -12.7557714757  CLST         224          1.0000000000
       671       224  TIP3  H1           -9.5397065940        6.2983637355      -12.3919086165  CLST         224          1.0000000000
       672       224  TIP3  H2           -8.5094453270        6.2721530215      -12.8540766456  CLST         224          1.0000000000
       673       225  TIP3  OH2          12.9694328981        3.6726952867       -7.4609318118  CLST         225          1.0000000000
       674       225  TIP3  H1           11.9852955208        3.8200389487       -7.6109225152  CLST         225          1.0000000000
       675       225  TIP3  H2           12.8021553146        2.9642570868       -6.8929577219  CLST         225          1.0000000000
       676       226  TIP3  OH2           5.1034663524        4.8969888480       10.5482997574  CLST         226          1.0000000000
       677       226  TIP3  H1            5.8646827659        4.0555081895       10.5233965635  CLST         226          1.0000000000
       678       226  TIP3  H2            5.7932645632        4.5688627665       11.4840203052  CLST         226          1.0000000000
       679       227  TIP3  OH2          -6.2490203807        0.9005381232        9.8491487561  CLST         227          1.0000000000
       680       227  TIP3  H1           -6.7982886186        0.6440898804       10.5267418001  CLST         227          1.0000000000
       681       227  TIP3  H2           -5.7920710503        0.0528542561        9.6814723981  CLST         227          1.0000000000
       682       228  TIP3  OH2          -8.7174581015       -5.3195149425       10.6557940266  CLST         228          1.0000000000
       683       228  TIP3  H1           -8.9369780633       -5.2046475271        9.7557511102  CLST         228          1.0000000000
       684       228  TIP3  H2           -7.7901335607       -5.3564578333       10.5341964207  CLST         228          1.0000000000
       685       229  TIP3  OH2          11.3067398545        8.1000494793      -14.8666647993  CLST         229          1.0000000000
       686       229  TIP3  H1           11.4305635120        8.2028772165      -13.8960014298  CLST         229          1.0000000000
       687       229  TIP3  H2           11.8879343949        7.3637038112      -14.6010514217  CLST         229          1.0000000000
       688       230  TIP3  OH2         -10.6189750443       -3.5597863606        8.8394944084  CLST         230          1.0000000000
       689       230  TIP3  H1          -10.9665975346       -4.3843708727        8.5523143141  CLST         230          1.0000000000
       690       230  TIP3  H2          -11.4627454170       -3.3744474805        9.2824720608  CLST         230          1.0000000000
       691       231  TIP3  OH2          -0.2350274917        3.1010674576      -11.9335887066  CLST         231          1.0000000000
       692       231  TIP3  H1            0.5195400277        2.4582676046      -11.3683717481  CLST         231          1.0000000000
       693       231  TIP3  H2            0.5296479990        2.9277578840      -12.4162297668  CLST         231          1.0000000000
       694       232  TIP3  OH2           1.7904375780      -14.8666647993      -12.3700116709  CLST         232          1.0000000000
       695       232  TIP3  H1            1.6960296500      -14.4032555765      -11.5054699274  CLST         232          1.0000000000
       696       232  TIP3  H2            2.2481359233      -14.0749079895      -12.7153945652  CLST         232          1.0000000000
       697       233  TIP3  OH2         -12.1238701695        9.6824530458        2.1442608003  CLST         233          1.0000000000
       698       233  TIP3  H1          -12.6943720702        9.1210107921        2.6974713666  CLST         233          1.0000000000
       699       233  TIP3  H2          -12.9290228907        9.8036354161        1.6133393153  CLST         233          1.0000000000
       700       234  TIP3  OH2          -2.1773365004        4.5783207718       -8.2334394901  CLST         234          1.0000000000
       701       234  TIP3  H1           -2.3015762280        5.5793956371       -8.3110553774  CLST         234          1.0000000000
       702       234  TIP3  H2           -2.2344747961        4.6505554615       -9.2315797920  CLST         234          1.0000000000
       703       235  TIP3  OH2         -10.2346772639        4.8688818508       -5.5256882436  CLST         235          1.0000000000
       704       235  TIP3  H1          -10.5376195814        4.3746709807       -6.5715947328  CLST         235          1.0000000000
       705       235  TIP3  H2           -9.6951713175        4.8229022347       -6.4716528490  CLST         235          1.0000000000
       706       236  TIP3  OH2         -12.0088796744      -10.5942896987       13.8034380613  CLST         236          1.0000000000
       707       236  TIP3  H1          -11.6573866262      -11.1232636513       13.1222234735  CLST         236          1.0000000000
       708       236  TIP3  H2          -11.9174753317      -10.2480928473       12.7064041826  CLST         236          1.0000000000
       709       237  TIP3  OH2          -6.4085015847       -6.6242507245       10.7649547263  CLST         237          1.0000000000
       710       237  TIP3  H1           -5.7561383756       -6.7115679644       10.0322341611  CLST         237          1.0000000000
       711       237  TIP3  H2           -5.5810558323       -6.3825576530       11.2709692963  CLST         237          1.0000000000
       712       238  TIP3  OH2          -0.9518533996        3.7118890395       -3.1438781158  CLST         238          1.0000000000
       713       238  TIP3  H1           -1.6549576324        4.1033503481       -3.7226818244  CLST         238          1.0000000000
       714       238  TIP3  H2           -1.7660162571        3.2125066139       -2.8164851455  CLST         238          1.0000000000
       715       239  TIP3  OH2           7.8935500135        7.2253882033        0.0711338560  CLST         239          1.0000000000
       716       239  TIP3  H1            8.3391681511        6.6062430373       -0.4824747433  CLST         239          1.0000000000
       717       239  TIP3  H2            8.7591598503        7.5283620268        0.3143297350  CLST         239          1.0000000000
       718       240  TIP3  OH2          -9.6923545030        8.7131133145        1.9590146055  CLST         240          1.0000000000
       719       240  TIP3  H1          -10.5637999631        9.1051829492        1.8148495534  CLST         240          1.0000000000
       720       240  TIP3  H2          -10.3533282054        7.9458898402        2.0019309244  CLST         240          1.0000000000
       721       241  TIP3  OH2          10.8675572393       -4.3356315525       -1.7345707067  CLST         241          1.0000000000
       722       241  TIP3  H1           10.4783294948       -4.8366753852       -2.5107614812  CLST         241          1.0000000000
       723       241  TIP3  H2           11.6075331960       -4.5416085632       -2.2330238401  CLST         241          1.0000000000
       724       242  TIP3  OH2           9.6228347107       -1.5993751947       -4.5573132233  CLST         242          1.0000000000
       725       242  TIP3  H1           10.2739654607       -1.5081409405       -3.5869158611  CLST         242          1.0000000000
       726       242  TIP3  H2            9.5826848684       -2.1758542229       -3.9379883294  CLST         242          1.0000000000
       727       243  TIP3  OH2           5.1878436553        9.4654216164      -12.3328457603  CLST         243          1.0000000000
       728       243  TIP3  H1            4.5505493830       10.1635226124      -12.0449069546  CLST         243          1.0000000000
       729       243  TIP3  H2            4.8774468495        9.1048407320      -11.5181417414  CLST         243          1.0000000000
       730       244  TIP3  OH2          -9.3392532809       -6.8397588796      -14.4823792837  CLST         244          1.0000000000
       731       244  TIP3  H1           -9.4688217724       -6.5369608956      -13.6570312203  CLST         244          1.0000000000
       732       244  TIP3  H2          -10.1128850693       -7.1920511083      -14.8440616396  CLST         244          1.0000000000
       733       245  TIP3  OH2         -12.9164048271        6.1988806182        2.6400146229  CLST         245          1.0000000000
       734       245  TIP3  H1          -12.6565011912        6.3441161501        3.5528692420  CLST         245          1.0000000000
       735       245  TIP3  H2          -12.2369529367        5.5568681012        2.6613580670  CLST         245          1.0000000000
       736       246  TIP3  OH2          -9.1746124812        6.5441324921       -1.7961205794  CLST         246          1.0000000000
       737       246  TIP3  H1           -9.9930463711        6.2310503895       -2.1571679665  CLST         246          1.0000000000
       738       246  TIP3  H2           -9.4041514517        7.4486417059       -2.0061063571  CLST         246          1.0000000000
       739       247  TIP3  OH2          -4.4547961958        7.9450355533        7.9005200907  CLST         247          1.0000000000
       740       247  TIP3  H1           -3.4863893990        7.9849430369        7.9944882174  CLST         247          1.0000000000
       741       247  TIP3  H2           -4.3491998556        7.6870123369        8.8314534021  CLST         247          1.0000000000
       742       248  TIP3  OH2           9.9454358713       -7.7212835796        8.0321742424  CLST         248          1.0000000000
       743       248  TIP3  H1            9.3383375937       -8.4350771908        7.7800843875  CLST         248          1.0000000000
       744       248  TIP3  H2            9.7942224254       -7.3697695212        7.1226198982  CLST         248          1.0000000000
       745       249  TIP3  OH2           9.7602051203        5.5813473568       -1.1326974176  CLST         249          1.0000000000
       746       249  TIP3  H1           10.2594985361        4.7153556657       -0.9934641669  CLST         249          1.0000000000
       747       249  TIP3  H2           10.6327838026        5.8710568861       -1.4193558470  CLST         249          1.0000000000
       748       250  TIP3  OH2           5.6729277711       -4.7568687666        3.4081300149  CLST         250          1.0000000000
       749       250  TIP3  H1            5.9011964705       -5.5997300414        2.9545027595  CLST         250          1.0000000000
       750       250  TIP3  H2            4.8068473498       -5.0856823105        3.5251189597  CLST         250          1.0000000000
       751       251  TIP3  OH2         -14.7419895105      -11.5294832422        1.8665879016  CLST         251          1.0000000000
       752       251  TIP3  H1          -14.4717471182      -11.8345122145        0.9459763132  CLST         251          1.0000000000
       753       251  TIP3  H2          -14.1771410040      -11.9851558760        2.4406260487  CLST         251          1.0000000000
       754       252  TIP3  OH2          -7.1417414205      -14.8666647993      -11.6029451998  CLST         252          1.0000000000
       755       252  TIP3  H1           -7.6533048463      -14.7413684443      -10.8608031524  CLST         252          1.0000000000
       756       252  TIP3  H2           -7.8424004350      -14.6753463589      -12.2513212824  CLST         252          1.0000000000
       757       253  TIP3  OH2           0.9335865478        7.4538304517        7.8836125714  CLST         253          1.0000000000
       758       253  TIP3  H1            0.8448594613        7.4284335692        6.9372792546  CLST         253          1.0000000000
       759       253  TIP3  H2            1.8666330057        7.5476722792        7.6374107755  CLST         253          1.0000000000
       760       254  TIP3  OH2         -11.5084345390        1.2404594640      -14.3726509384  CLST         254          1.0000000000
       761       254  TIP3  H1          -12.1365966329        0.4066098254      -13.8797239265  CLST         254          1.0000000000
       762       254  TIP3  H2          -12.5095316808        1.2973645076      -14.4933913867  CLST         254          1.0000000000
       763       255  TIP3  OH2           4.1472530602        0.0536527467       -0.8533533963  CLST         255          1.0000000000
       764       255  TIP3  H1            4.0074560532       -0.3986874721       -0.0259796125  CLST         255          1.0000000000
       765       255  TIP3  H2            3.2678388074       -0.2106876006       -1.0620757000  CLST         255          1.0000000000
       766       256  TIP3  OH2          14.0939465224       -3.3209274698      -12.1956601745  CLST         256          1.0000000000
       767       256  TIP3  H1           14.7138121420       -2.9481645895      -12.8782394071  CLST         256          1.0000000000
       768       256  TIP3  H2           13.5090812198       -3.8676749876      -12.7292294045  CLST         256          1.0000000000
       769       257  TIP3  OH2          -6.4452948067      -13.3331728611       10.1962180567  CLST         257          1.0000000000
       770       257  TIP3  H1           -6.7562199102      -14.2635826634        9.9133144609  CLST         257          1.0000000000
       771       257  TIP3  H2           -5.6281997336      -13.9017223298       10.3023829353  CLST         257          1.0000000000
       772       258  TIP3  OH2         -10.2104843370      -11.8580355530       -6.6073287586  CLST         258          1.0000000000
       773       258  TIP3  H1           -9.9584722744      -11.3227884948       -5.8484803931  CLST         258          1.0000000000
       774       258  TIP3  H2          -10.3672894411      -10.9690723507       -6.9713167772  CLST         258          1.0000000000
       775       259  TIP3  OH2           3.1446744127        1.6907572912       14.1358790598  CLST         259          1.0000000000
       776       259  TIP3  H1            3.4370681088        0.8213040723       14.4280818586  CLST         259          1.0000000000
       777       259  TIP3  H2            2.5420912859        1.4536010251       14.8666647993  CLST         259          1.0000000000
       778       260  TIP3  OH2         -10.6220904579      -10.1652633145       -9.5721639315  CLST         260          1.0000000000
       779       260  TIP3  H1          -11.3464371292      -10.6024386927       -9.9739096960  CLST         260          1.0000000000
       780       260  TIP3  H2          -11.1704418742       -9.5188281623       -9.2929803647  CLST         260          1.0000000000
       781       261  TIP3  OH2           6.8454334247        0.7974484504       -0.2235299884  CLST         261          1.0000000000
       782       261  TIP3  H1            6.6996447557        1.4351958634       -0.9387145400  CLST         261          1.0000000000
       783       261  TIP3  H2            6.0253841371        1.2073243837        0.1558322972  CLST         261          1.0000000000
       784       262  TIP3  OH2          -1.7552783447       14.3036581011        3.0216406064  CLST         262          1.0000000000
       785       262  TIP3  H1           -1.8038577923       13.6986429887        3.7837150433  CLST         262          1.0000000000
       786       262  TIP3  H2           -1.1741055210       13.6104176953        2.6592236940  CLST         262          1.0000000000
       787       263  TIP3  OH2           6.5385314856        3.9837411070        1.7213415788  CLST         263          1.0000000000
       788       263  TIP3  H1            6.0979832610        3.4104381980        1.0383046226  CLST         263          1.0000000000
       789       263  TIP3  H2            6.0796756272        3.3620882295        2.2966525164  CLST         263          1.0000000000
       790       264  TIP3  OH2          -2.9897319548       10.2986207280       10.2658041123  CLST         264          1.0000000000
       791       264  TIP3  H1           -2.5217717736       11.1044464344       10.4675530423  CLST         264          1.0000000000
       792       264  TIP3  H2           -2.5376757446       10.3796555337        9.4242544819  CLST         264          1.0000000000
       793       265  TIP3  OH2         -12.7384827004       12.8128512547       -0.2103677752  CLST         265          1.0000000000
       794       265  TIP3  H1          -13.0141715814       13.0274597730       -1.0607664372  CLST         265          1.0000000000
       795       265  TIP3  H2          -13.2782857608       12.0150957467       -0.1920868919  CLST         265          1.0000000000
       796       266  TIP3  OH2          -4.0865813029        1.5214414211        4.0444656640  CLST         266          1.0000000000
       797       266  TIP3  H1           -4.4332692002        0.7891249146        3.4147339273  CLST         266          1.0000000000
       798       266  TIP3  H2           -4.3449606731        2.0864079986        3.2719774666  CLST         266          1.0000000000
       799       267  TIP3  OH2          -6.9644309032       11.4244916134       -5.3238351640  CLST         267          1.0000000000
       800       267  TIP3  H1           -7.6157807547       11.3874571264       -6.0862613090  CLST         267          1.0000000000
       801       267  TIP3  H2           -7.8066826919       11.5967388477       -4.8728016113  CLST         267          1.0000000000
       802       268  TIP3  OH2           5.0646788135        3.3713997307      -13.8307178759  CLST         268          1.0000000000
       803       268  TIP3  H1            5.8782734209        3.5764490034      -13.2931759032  CLST         268          1.0000000000
       804       268  TIP3  H2            5.1874411647        4.3167841772      -14.0870745388  CLST         268          1.0000000000
       805       269  TIP3  OH2           9.3166049367       -0.4866887882       11.2523113971  CLST         269          1.0000000000
       806       269  TIP3  H1           10.1934406815       -0.0588809551       11.4991857236  CLST         269          1.0000000000
       807       269  TIP3  H2            9.4237976708       -0.8704731803       12.1563738873  CLST         269          1.0000000000
       808       270  TIP3  OH2          -8.2747672888       -6.1939271722        6.3781767014  CLST         270          1.0000000000
       809       270  TIP3  H1           -8.0758785981       -6.1103736143        5.4204668937  CLST         270          1.0000000000
       810       270  TIP3  H2           -7.3267406115       -6.1946534817        6.5779415868  CLST         270          1.0000000000
       811       271  TIP3  OH2         -11.6936629667       11.7428189599       11.3756557297  CLST         271          1.0000000000
       812       271  TIP3  H1          -11.2084397579       12.1891980862       12.1503675463  CLST         271          1.0000000000
       813       271  TIP3  H2          -11.3751825535       12.5502251897       10.9914568295  CLST         271          1.0000000000
       814       272  TIP3  OH2           6.9275680662      -14.2600373379        3.4674761422  CLST         272          1.0000000000
       815       272  TIP3  H1            7.6830542267      -13.8677172764        3.9575578604  CLST         272          1.0000000000
       816       272  TIP3  H2            6.6074291372      -14.2558011464        4.3485581143  CLST         272          1.0000000000
       817       273  TIP3  OH2          -8.4563513502       10.7898109565       -7.6133337748  CLST         273          1.0000000000
       818       273  TIP3  H1           -9.2319743945       11.0070717189       -8.2544146462  CLST         273          1.0000000000
       819       273  TIP3  H2           -9.1001334890       10.0749944688       -7.4307468493  CLST         273          1.0000000000
       820       274  TIP3  OH2          -6.4411346363        0.7391939169       14.0254759415  CLST         274          1.0000000000
       821       274  TIP3  H1           -7.3108144117        0.7882611702       14.5016797558  CLST         274          1.0000000000
       822       274  TIP3  H2           -7.1637321981        0.8516831798       13.2982914463  CLST         274          1.0000000000
       823       275  TIP3  OH2           3.8123596823      -14.8666647993       -0.6886663715  CLST         275          1.0000000000
       824       275  TIP3  H1            2.7293832547      -14.6078775697       -0.2970319957  CLST         275          1.0000000000
       825       275  TIP3  H2            3.4993002850      -13.9612510405       -0.8772403794  CLST         275          1.0000000000
       826       276  TIP3  OH2           2.5625218165      -10.0066240214        7.3458759359  CLST         276          1.0000000000
       827       276  TIP3  H1            2.2079452678      -10.3146188287        8.1407579590  CLST         276          1.0000000000
       828       276  TIP3  H2            3.4351924544      -10.1186273392        7.6839001458  CLST         276          1.0000000000
       829       277  TIP3  OH2          -7.2616665862        7.0225967120        2.4942332645  CLST         277          1.0000000000
       830       277  TIP3  H1           -7.8162779254        6.7822759603        1.8510938649  CLST         277          1.0000000000
       831       277  TIP3  H2           -6.8257023040        6.4482431133        1.5482497375  CLST         277          1.0000000000
       832       278  TIP3  OH2           5.0249829662      -10.5207992541       10.0145808693  CLST         278          1.0000000000
       833       278  TIP3  H1            5.3751750917       -9.7784970501        9.5054386344  CLST         278          1.0000000000
       834       278  TIP3  H2            4.5555615634       -9.9719106647       10.6839824560  CLST         278          1.0000000000
       835       279  TIP3  OH2          11.8410244490       -5.6104348968        7.5050279656  CLST         279          1.0000000000
       836       279  TIP3  H1           11.6178677431       -6.2109339072        6.7707195051  CLST         279          1.0000000000
       837       279  TIP3  H2           12.2952745893       -5.2064803423        6.7308382830  CLST         279          1.0000000000
       838       280  TIP3  OH2           6.9855663515       -8.7764461121       12.7063117826  CLST         280          1.0000000000
       839       280  TIP3  H1            7.4002354014       -9.6491476210       13.0402574246  CLST         280          1.0000000000
       840       280  TIP3  H2            7.8654408991       -8.3725491624       12.6079108142  CLST         280          1.0000000000
       841       281  TIP3  OH2          -1.6611846167        4.6647417577       10.6910259702  CLST         281          1.0000000000
       842       281  TIP3  H1           -2.2170823391        3.9242058072       10.9162770018  CLST         281          1.0000000000
       843       281  TIP3  H2           -1.5537934722        4.7576239219       11.6306829376  CLST         281          1.0000000000
       844       282  TIP3  OH2          10.6191215622       10.5245177185      -10.7450298852  CLST         282          1.0000000000
       845       282  TIP3  H1           11.3616507648       10.0833836652      -11.5229644055  CLST         282          1.0000000000
       846       282  TIP3  H2           11.5232878503       11.0328917979      -11.1750397816  CLST         282          1.0000000000
       847       283  TIP3  OH2          -2.8533402164       -4.4473566890       -0.1088899665  CLST         283          1.0000000000
       848       283  TIP3  H1           -3.6186718732       -4.8057164777       -0.6766796972  CLST         283          1.0000000000
       849       283  TIP3  H2           -2.9538784334       -5.2860129352        0.3336083869  CLST         283          1.0000000000
       850       284  TIP3  OH2           4.4527299534       10.7597748751        2.3280994065  CLST         284          1.0000000000
       851       284  TIP3  H1            4.8829866188        9.8937862972        1.9879358170  CLST         284          1.0000000000
       852       284  TIP3  H2            3.8628185728       10.1059452317        2.7442895731  CLST         284          1.0000000000
       853       285  TIP3  OH2         -11.5993245613       -6.1080887914        8.3244029766  CLST         285          1.0000000000
       854       285  TIP3  H1          -10.8036078480       -6.5601484160        7.9711222515  CLST         285          1.0000000000
       855       285  TIP3  H2          -11.8860039247       -6.0620548521        7.3537103708  CLST         285          1.0000000000
       856       286  TIP3  OH2          -2.7440996300       -9.5540922629      -10.6635169676  CLST         286          1.0000000000
       857       286  TIP3  H1           -2.7564515331       -9.5406277713      -11.6336297939  CLST         286          1.0000000000
       858       286  TIP3  H2           -3.5953527140      -10.0443654937      -10.7267136234  CLST         286          1.0000000000
       859       287  TIP3  OH2           2.6496196982       -0.9612750590       -7.9513322586  CLST         287          1.0000000000
       860       287  TIP3  H1            2.5516542721        0.0172765794       -8.2062195497  CLST         287          1.0000000000
       861       287  TIP3  H2            3.5760149819       -0.6913258648       -8.1759766841  CLST         287          1.0000000000
       862       288  TIP3  OH2          13.6556294306      -14.2883123884       -8.6444578245  CLST         288          1.0000000000
       863       288  TIP3  H1           13.5658702933      -13.5727909266       -8.1016804919  CLST         288          1.0000000000
       864       288  TIP3  H2           14.3361961917      -14.8125864063       -8.3753357968  CLST         288          1.0000000000
       865       289  TIP3  OH2          14.0081211249        3.6704903773      -10.1513833490  CLST         289          1.0000000000
       866       289  TIP3  H1           13.6099023897        3.6713397234       -9.2880951336  CLST         289          1.0000000000
       867       289  TIP3  H2           14.8344418625        3.3811873361       -9.7317911774  CLST         289          1.0000000000
       868       290  TIP3  OH2          11.8129336842        1.0626900608       12.0998112060  CLST         290          1.0000000000
       869       290  TIP3  H1           11.2934675379        1.5598724153       12.7997287191  CLST         290          1.0000000000
       870       290  TIP3  H2           12.0790653550        1.8975178557       11.7134822014  CLST         290          1.0000000000
       871       291  TIP3  OH2         -11.4174430805       -9.4434804013       -2.8160361813  CLST         291          1.0000000000
       872       291  TIP3  H1          -10.8443680481       -9.7912661161       -2.1851531961  CLST         291          1.0000000000
       873       291  TIP3  H2          -11.4311649205       -8.9911232010       -1.7226466306  CLST         291          1.0000000000
       874       292  TIP3  OH2           8.9874263033       -2.0199722981      -11.8121620911  CLST         292          1.0000000000
       875       292  TIP3  H1            8.2415987759       -2.6442180389      -11.7052655480  CLST         292          1.0000000000
       876       292  TIP3  H2            9.2518788995       -2.2077787424      -10.9480782155  CLST         292          1.0000000000
       877       293  TIP3  OH2           2.3762854703        2.8405417530      -13.4336199148  CLST         293          1.0000000000
       878       293  TIP3  H1            2.3144627340        3.8050955768      -13.5585465777  CLST         293          1.0000000000
       879       293  TIP3  H2            3.3100069081        2.9948151841      -13.6810499950  CLST         293          1.0000000000
       880       294  TIP3  OH2           1.7943875323        8.0386814236        1.0741822648  CLST         294          1.0000000000
       881       294  TIP3  H1            1.8426684029        7.6954179287        1.8894118413  CLST         294          1.0000000000
       882       294  TIP3  H2            2.6912933510        8.3721812887        1.7670297885  CLST         294          1.0000000000
       883       295  TIP3  OH2           3.7063386987       12.8143699488       -4.3778555939  CLST         295          1.0000000000
       884       295  TIP3  H1            3.1960905538       13.1339900236       -3.6407555143  CLST         295          1.0000000000
       885       295  TIP3  H2            4.0422043232       13.6427475434       -4.6258538566  CLST         295          1.0000000000
       886       296  TIP3  OH2           2.6944538325        5.5594730801      -11.2251541209  CLST         296          1.0000000000
       887       296  TIP3  H1            2.7496143657        6.0931134803      -12.0752381443  CLST         296          1.0000000000
       888       296  TIP3  H2            2.0813401819        4.9933515803      -11.6996279024  CLST         296          1.0000000000
       889       297  TIP3  OH2          13.4081989096        0.1501016461        9.3898868100  CLST         297          1.0000000000
       890       297  TIP3  H1           13.6596268662        1.0120127249        9.0702123738  CLST         297          1.0000000000
       891       297  TIP3  H2           14.3391957516       -0.0161825095        9.6758180681  CLST         297          1.0000000000
       892       298  TIP3  OH2          12.1493555366       -5.0109501958      -12.4756975896  CLST         298          1.0000000000
       893       298  TIP3  H1           11.5557436998       -5.4997088271      -12.9702219047  CLST         298          1.0000000000
       894       298  TIP3  H2           12.4262726973       -5.9028390029      -12.1462537274  CLST         298          1.0000000000
       895       299  TIP3  OH2           3.4785387546       -5.7333958864       -7.7802464840  CLST         299          1.0000000000
       896       299  TIP3  H1            2.7480022269       -5.0596194150       -7.8540135586  CLST         299          1.0000000000
       897       299  TIP3  H2            3.8494979837       -4.9933561967       -7.2149475037  CLST         299          1.0000000000
       898       300  TIP3  OH2          10.3928696520       -6.6187109795      -13.7464860159  CLST         300          1.0000000000
       899       300  TIP3  H1           10.3824257610       -6.0114925898      -14.5262180587  CLST         300          1.0000000000
       900       300  TIP3  H2            9.3934576611       -6.4183754330      -13.8699163881  CLST         300          1.0000000000
       901       301  TIP3  OH2          11.1292013474       -6.9039130559        0.3047732928  CLST         301          1.0000000000
       902       301  TIP3  H1           10.8664630364       -6.4020117631       -0.4934797931  CLST         301          1.0000000000
       903       301  TIP3  H2           10.6904292509       -7.5480012029       -0.2664144914  CLST         301          1.0000000000
       904       302  TIP3  OH2          11.3642755921       -6.9948777817       11.8017409368  CLST         302          1.0000000000
       905       302  TIP3  H1           11.6539899559       -6.3994072949       11.2798659988  CLST         302          1.0000000000
       906       302  TIP3  H2           11.2420310995       -7.7389567719       11.2280728984  CLST         302          1.0000000000
       907       303  TIP3  OH2          -8.7178999383       11.6177705930        6.8397129821  CLST         303          1.0000000000
       908       303  TIP3  H1           -9.5469171112       11.6140959009        6.2833717757  CLST         303          1.0000000000
       909       303  TIP3  H2           -8.5292442631       12.4329177274        6.2693366022  CLST         303          1.0000000000
       910       304  TIP3  OH2          -1.8584508669        8.1545215366       -0.6515728029  CLST         304          1.0000000000
       911       304  TIP3  H1           -2.4785116533        7.4762568208       -0.3841764569  CLST         304          1.0000000000
       912       304  TIP3  H2           -2.5967312028        8.7324038171       -0.7584085690  CLST         304          1.0000000000
       913       305  TIP3  OH2          -2.4420229241       -6.0480489011      -10.3067908648  CLST         305          1.0000000000
       914       305  TIP3  H1           -2.2895536489       -5.1707874646      -10.5562236332  CLST         305          1.0000000000
       915       305  TIP3  H2           -1.4646794927       -6.2519275615      -10.3752117073  CLST         305          1.0000000000
       916       306  TIP3  OH2          -8.5855815722      -14.3873175519       -6.9688282003  CLST         306          1.0000000000
       917       306  TIP3  H1           -7.7131364663      -14.4445541130       -6.5976429670  CLST         306          1.0000000000
       918       306  TIP3  H2           -8.6808636123      -13.8311997566       -6.1598856942  CLST         306          1.0000000000
       919       307  TIP3  OH2           0.8250478645       10.2245656072      -14.0978407446  CLST         307          1.0000000000
       920       307  TIP3  H1            1.3676134251       10.9160183385      -13.6861193506  CLST         307          1.0000000000
       921       307  TIP3  H2            1.5466495562        9.5713239465      -13.9622485560  CLST         307          1.0000000000
       922       308  TIP3  OH2          12.2104299767       -3.3265832406       13.1556084425  CLST         308          1.0000000000
       923       308  TIP3  H1           12.2662758435       -3.3227446550       12.1534310285  CLST         308          1.0000000000
       924       308  TIP3  H2           12.9668940515       -3.9104990307       13.2117405489  CLST         308          1.0000000000
       925       309  TIP3  OH2          12.8585850251       12.6839666975       14.8608048367  CLST         309          1.0000000000
       926       309  TIP3  H1           12.3806796524       11.8757782546       14.7979916572  CLST         309          1.0000000000
       927       309  TIP3  H2           12.8757510334       12.8489283705       13.9557871021  CLST         309          1.0000000000
       928       310  TIP3  OH2           4.1769928863       14.6251339580       -6.3097466282  CLST         310          1.0000000000
       929       310  TIP3  H1            4.2343943009       13.9086892567       -7.0963387122  CLST         310          1.0000000000
       930       310  TIP3  H2            3.7175039251       14.7434331605       -6.9872079889  CLST         310          1.0000000000
       931       311  TIP3  OH2          -5.8660282113        5.9874378905       -5.1422217588  CLST         311          1.0000000000
       932       311  TIP3  H1           -6.5261284998        5.2291996337       -5.1906703095  CLST         311          1.0000000000
       933       311  TIP3  H2           -6.2392599011        6.0745973129       -6.0748040974  CLST         311          1.0000000000
       934       312  TIP3  OH2           5.1656178627       -8.8315550505        7.9561363228  CLST         312          1.0000000000
       935       312  TIP3  H1            4.9379549898       -7.9266497843        8.3446796694  CLST         312          1.0000000000
       936       312  TIP3  H2            5.8972437566       -8.2353781538        7.5695913801  CLST         312          1.0000000000
       937       313  TIP3  OH2          -2.2320985714        7.9062452383       11.0359964443  CLST         313          1.0000000000
       938       313  TIP3  H1           -2.9528300320        8.6651021595       11.1441678472  CLST         313          1.0000000000
       939       313  TIP3  H2           -3.0714422923        7.4133877349       10.8343244741  CLST         313          1.0000000000
       940       314  TIP3  OH2           9.1916390966       -2.5173307546       -2.2864522698  CLST         314          1.0000000000
       941       314  TIP3  H1            8.9314665886       -3.4493780082       -2.2894568925  CLST         314          1.0000000000
       942       314  TIP3  H2            8.4639203191       -2.6225925524       -1.6310863120  CLST         314          1.0000000000
       943       315  TIP3  OH2           4.5018639263        9.9003916126       -2.9020271378  CLST         315          1.0000000000
       944       315  TIP3  H1            3.6896970185        9.4513077618       -2.7974791403  CLST         315          1.0000000000
       945       315  TIP3  H2            4.2844295450       10.5884270878       -2.2202692149  CLST         315          1.0000000000
       946       316  TIP3  OH2          13.7662438522       -6.6298435285       -5.9583581363  CLST         316          1.0000000000
       947       316  TIP3  H1           12.8076539299       -6.4370062609       -5.8047150055  CLST         316          1.0000000000
       948       316  TIP3  H2           13.7521408066       -5.8021012758       -6.4340871339  CLST         316          1.0000000000
       949       317  TIP3  OH2          -2.8596580985       -9.7936054591       -2.6826371408  CLST         317          1.0000000000
       950       317  TIP3  H1           -2.5678090295       -9.8361373996       -3.5907599307  CLST         317          1.0000000000
       951       317  TIP3  H2           -2.1376743680       -9.1100350083       -2.5956634871  CLST         317          1.0000000000
       952       318  TIP3  OH2          -1.1492952064        9.5749335364       -4.6914793382  CLST         318          1.0000000000
       953       318  TIP3  H1           -1.8244694106        9.1466689629       -5.2339734755  CLST         318          1.0000000000
       954       318  TIP3  H2           -1.4843992811       10.4515815489       -4.8286909348  CLST         318          1.0000000000
       955       319  TIP3  OH2           6.3880648297       -8.1021730896       -2.0365844553  CLST         319          1.0000000000
       956       319  TIP3  H1            6.8630998527       -8.5856890029       -2.7240579721  CLST         319          1.0000000000
       957       319  TIP3  H2            6.5826089129       -8.7708673950       -1.4243609822  CLST         319          1.0000000000
       958       320  TIP3  OH2           5.8937570290       12.6896188414      -12.4029642801  CLST         320          1.0000000000
       959       320  TIP3  H1            6.2570711658       12.2300417241      -13.1889033909  CLST         320          1.0000000000
       960       320  TIP3  H2            6.5316427029       12.0411669020      -12.0748247810  CLST         320          1.0000000000
       961       321  TIP3  OH2           1.4014369720      -11.3998638350        9.2690564270  CLST         321          1.0000000000
       962       321  TIP3  H1            1.7966823193      -11.9138764735        9.9744645636  CLST         321          1.0000000000
       963       321  TIP3  H2            1.5021275785      -10.7174502869        9.9750363363  CLST         321          1.0000000000
       964       322  TIP3  OH2           0.9315523548        5.8563456962        9.9986352519  CLST         322          1.0000000000
       965       322  TIP3  H1            0.6105052020        6.4258973325        9.3078793336  CLST         322          1.0000000000
       966       322  TIP3  H2            0.0953141114        5.4273993656       10.1816677325  CLST         322          1.0000000000
       967       323  TIP3  OH2           8.0348753358        3.2023435197       12.9119292602  CLST         323          1.0000000000
       968       323  TIP3  H1            7.2787270405        2.6176048205       12.7500480404  CLST         323          1.0000000000
       969       323  TIP3  H2            7.8047477070        3.3999450239       11.9797694721  CLST         323          1.0000000000
       970       324  TIP3  OH2           6.4824694330        3.2089177888       -1.2056226340  CLST         324          1.0000000000
       971       324  TIP3  H1            5.9612953752        3.9942678326       -1.0508183939  CLST         324          1.0000000000
       972       324  TIP3  H2            6.0143890803        3.1638253585       -1.9989064920  CLST         324          1.0000000000
       973       325  TIP3  OH2         -12.4155860387       -8.6611200662       12.0185959927  CLST         325          1.0000000000
       974       325  TIP3  H1          -12.9102647454       -8.2454576166       11.3235916452  CLST         325          1.0000000000
       975       325  TIP3  H2          -11.7467947085       -8.0395586039       11.6832306937  CLST         325          1.0000000000
       976       326  TIP3  OH2         -12.2889786818        9.3954733071       -5.1956949732  CLST         326          1.0000000000
       977       326  TIP3  H1          -12.3495489904       10.4162975923       -5.1078535300  CLST         326          1.0000000000
       978       326  TIP3  H2          -11.9631338645        9.1983630970       -6.0155565842  CLST         326          1.0000000000
       979       327  TIP3  OH2          12.2487648517       -5.3144378861        9.9731478208  CLST         327          1.0000000000
       980       327  TIP3  H1           12.9006151757       -5.5136919441        9.0589097522  CLST         327          1.0000000000
       981       327  TIP3  H2           12.3546683500       -4.6835004688        9.2471516193  CLST         327          1.0000000000
       982       328  TIP3  OH2         -12.2430221456       -7.7951308288      -13.2342234631  CLST         328          1.0000000000
       983       328  TIP3  H1          -11.4291581090       -7.9380833052      -12.6967770694  CLST         328          1.0000000000
       984       328  TIP3  H2          -12.0300590639       -8.7704198659      -13.3969729177  CLST         328          1.0000000000
       985       329  TIP3  OH2           6.7982661269       -4.6595693842       -1.8490649121  CLST         329          1.0000000000
       986       329  TIP3  H1            6.3746776798       -3.8724095860       -1.1139842120  CLST         329          1.0000000000
       987       329  TIP3  H2            6.0057636379       -4.0164720432       -1.9713713358  CLST         329          1.0000000000
       988       330  TIP3  OH2          12.9674070408        6.1370320584      -13.9388388780  CLST         330          1.0000000000
       989       330  TIP3  H1           13.7119993782        5.9339829060      -14.4686712711  CLST         330          1.0000000000
       990       330  TIP3  H2           13.4749436431        5.9999617906      -13.1343329943  CLST         330          1.0000000000
       991       331  TIP3  OH2          -4.7077882940       -0.0228191166        6.2826992665  CLST         331          1.0000000000
       992       331  TIP3  H1           -4.2439063826        0.5638935663        5.7278744510  CLST         331          1.0000000000
       993       331  TIP3  H2           -5.6123502297        0.2201215507        6.0790972434  CLST         331          1.0000000000
       994       332  TIP3  OH2          -8.7693642391        9.1944446038       -2.1877415376  CLST         332          1.0000000000
       995       332  TIP3  H1           -9.3336401878       10.0152335966       -1.8546307341  CLST         332          1.0000000000
       996       332  TIP3  H2           -8.2263474439        9.4796165653       -1.3733515008  CLST         332          1.0000000000
       997       333  TIP3  OH2          -6.9104623880       -8.7292270164       -7.0073300233  CLST         333          1.0000000000
       998       333  TIP3  H1           -7.4957828491       -8.9031359172       -7.7683479930  CLST         333          1.0000000000
       999       333  TIP3  H2           -7.4404739058       -7.8686966235       -6.9171653672  CLST         333          1.0000000000
      1000       334  TIP3  OH2         -10.8606792049        8.1723207576       -9.6422264791  CLST         334          1.0000000000
      1001       334  TIP3  H1          -10.0659694215        8.6563541492       -9.9344734004  CLST         334          1.0000000000
      1002       334  TIP3  H2          -10.4985672181        8.2973141073       -8.7726302798  CLST         334          1.0000000000
      1003       335  TIP3  OH2           1.5407430106       -0.1515921591       -1.0325861193  CLST         335          1.0000000000
      1004       335  TIP3  H1            1.1780118772       -0.9592756260       -0.5465594913  CLST         335          1.0000000000
      1005       335  TIP3  H2            0.7929616073       -0.1990205205       -1.6339719864  CLST         335          1.0000000000
      1006       336  TIP3  OH2          11.5255811341        5.4181066095        1.6330249969  CLST         336          1.0000000000
      1007       336  TIP3  H1           10.8540240798        4.7331226492        1.4503592428  CLST         336          1.0000000000
      1008       336  TIP3  H2           10.7510195401        5.9698560785        1.3924728030  CLST         336          1.0000000000
      1009       337  TIP3  OH2           1.7032571881      -14.6242294367        5.4234486468  CLST         337          1.0000000000
      1010       337  TIP3  H1            1.9928651952      -13.5491078241        5.7573171915  CLST         337          1.0000000000
      1011       337  TIP3  H2            1.2209399196      -14.0577002668        4.9288699368  CLST         337          1.0000000000
      1012       338  TIP3  OH2          -4.2961811640        2.2702065627      -11.7204730640  CLST         338          1.0000000000
      1013       338  TIP3  H1           -4.9303812756        2.5312455697      -12.4031789705  CLST         338          1.0000000000
      1014       338  TIP3  H2           -4.4497832298        1.3555473903      -12.0658910418  CLST         338          1.0000000000
      1015       339  TIP3  OH2           4.9818150767        2.1162120157       -7.9811385805  CLST         339          1.0000000000
      1016       339  TIP3  H1            4.0982630010        1.8908894458       -8.3472011116  CLST         339          1.0000000000
      1017       339  TIP3  H2            4.9048403353        2.8605931346       -8.6091152314  CLST         339          1.0000000000
      1018       340  TIP3  OH2         -10.7006686866       11.7979777012       -8.8134215726  CLST         340          1.0000000000
      1019       340  TIP3  H1          -11.6925250710       11.6374400543       -8.8381456125  CLST         340          1.0000000000
      1020       340  TIP3  H2          -10.8595083467       12.5667051610       -8.2127677963  CLST         340          1.0000000000
      1021       341  TIP3  OH2          -1.5576382505       13.7585617606       -0.4778660316  CLST         341          1.0000000000
      1022       341  TIP3  H1           -1.1989667071       13.3809140563       -1.2998173618  CLST         341          1.0000000000
      1023       341  TIP3  H2           -2.2395698008       13.0813374345       -0.7025121394  CLST         341          1.0000000000
      1024       342  TIP3  OH2         -11.8254812080        3.7285967868        9.7599184515  CLST         342          1.0000000000
      1025       342  TIP3  H1          -12.5429779776        3.1685737514       10.1855753868  CLST         342          1.0000000000
      1026       342  TIP3  H2          -11.6909330093        3.7826212846       10.7586114431  CLST         342          1.0000000000
      1027       343  TIP3  OH2          -0.6680285783       -1.5644036802      -14.0097259149  CLST         343          1.0000000000
      1028       343  TIP3  H1           -1.2012017290       -0.7591549314      -13.7768444646  CLST         343          1.0000000000
      1029       343  TIP3  H2           -1.1373820177       -1.4025719776      -14.8575175191  CLST         343          1.0000000000
      1030       344  TIP3  OH2           8.9219191700        3.9916323610        4.1877188236  CLST         344          1.0000000000
      1031       344  TIP3  H1            8.1343100347        4.7681859422        4.2835013266  CLST         344          1.0000000000
      1032       344  TIP3  H2            8.2929344991        3.8375526443        4.7205625962  CLST         344          1.0000000000
      1033       345  TIP3  OH2           0.1423089862        9.7663740560       -0.2568177370  CLST         345          1.0000000000
      1034       345  TIP3  H1            0.7939430109        9.1302140293        0.1217530054  CLST         345          1.0000000000
      1035       345  TIP3  H2           -0.5280920564        9.1821049587        0.1030977060  CLST         345          1.0000000000
      1036       346  TIP3  OH2          -4.5573193626      -14.7361148099        6.4345549063  CLST         346          1.0000000000
      1037       346  TIP3  H1           -4.8950189078      -13.6088705844        6.4939214237  CLST         346          1.0000000000
      1038       346  TIP3  H2           -4.2196737531      -14.0765100947        7.1058509744  CLST         346          1.0000000000
      1039       347  TIP3  OH2         -13.7762524485      -11.5779460263       -2.1088800922  CLST         347          1.0000000000
      1040       347  TIP3  H1          -13.7208066998      -10.9456216411       -2.8464369441  CLST         347          1.0000000000
      1041       347  TIP3  H2          -13.9765629619      -10.8189648058       -1.5375615262  CLST         347          1.0000000000
      1042       348  TIP3  OH2           4.1711603670        7.5897467937       -7.5566323197  CLST         348          1.0000000000
      1043       348  TIP3  H1            5.2753267122        7.5298557522       -7.2430130720  CLST         348          1.0000000000
      1044       348  TIP3  H2            4.4553941990        7.6369738853       -6.4768602398  CLST         348          1.0000000000
      1045       349  TIP3  OH2           8.3557075995        9.8624603033        2.5905858224  CLST         349          1.0000000000
      1046       349  TIP3  H1            8.7066293637        9.9476795414        1.7081881721  CLST         349          1.0000000000
      1047       349  TIP3  H2            7.5188623212        9.6784536203        2.0351777720  CLST         349          1.0000000000
      1048       350  TIP3  OH2          -8.5163371891        1.0063595301      -14.5889266159  CLST         350          1.0000000000
      1049       350  TIP3  H1           -9.3493607471        0.1715503337      -14.4387076735  CLST         350          1.0000000000
      1050       350  TIP3  H2           -9.3541567355        1.2096721860      -14.7327539445  CLST         350          1.0000000000
      1051       351  TIP3  OH2          10.2666945146        3.4846060339        6.0966730660  CLST         351          1.0000000000
      1052       351  TIP3  H1           10.5136862774        4.2868377807        5.6071601681  CLST         351          1.0000000000
      1053       351  TIP3  H2           10.2891727685        3.1975480667        5.1138167240  CLST         351          1.0000000000
      1054       352  TIP3  OH2           5.2996250967       -0.4726148636       -8.4574476768  CLST         352          1.0000000000
      1055       352  TIP3  H1            5.9208824075       -0.8473062927       -7.7296753707  CLST         352          1.0000000000
      1056       352  TIP3  H2            5.4917480244        0.3532389298       -7.9927347154  CLST         352          1.0000000000
      1057       353  TIP3  OH2          -1.3782053041        9.6840167396      -12.5460526708  CLST         353          1.0000000000
      1058       353  TIP3  H1           -0.6870687497        9.6517713375      -13.2622400233  CLST         353          1.0000000000
      1059       353  TIP3  H2           -1.3448726636        8.7079162646      -12.6752952247  CLST         353          1.0000000000
      1060       354  TIP3  OH2         -12.0300055344      -10.6630566798      -14.0238331354  CLST         354          1.0000000000
      1061       354  TIP3  H1          -12.5259502130      -10.4356170026      -14.8459289590  CLST         354          1.0000000000
      1062       354  TIP3  H2          -11.4831802795      -10.9903842000      -14.8344139854  CLST         354          1.0000000000
      1063       355  TIP3  OH2           1.7470752652      -13.6666006207       -9.6364008701  CLST         355          1.0000000000
      1064       355  TIP3  H1            1.7260146933      -13.1911658124       -8.7688878322  CLST         355          1.0000000000
      1065       355  TIP3  H2            1.2548404128      -12.9129785853       -9.9031746921  CLST         355          1.0000000000
      1066       356  TIP3  OH2         -12.6983869020       -4.8781771415       -3.0538645561  CLST         356          1.0000000000
      1067       356  TIP3  H1          -12.6090324738       -5.7911338334       -3.3634660996  CLST         356          1.0000000000
      1068       356  TIP3  H2          -13.2112745999       -4.8585712131       -3.8113492011  CLST         356          1.0000000000
      1069       357  TIP3  OH2          -6.6771096624       -9.4046780032        5.2278147485  CLST         357          1.0000000000
      1070       357  TIP3  H1           -5.7999371615       -9.6009550117        4.8607567253  CLST         357          1.0000000000
      1071       357  TIP3  H2           -6.6891742302       -8.8491181976        4.4201034249  CLST         357          1.0000000000
      1072       358  TIP3  OH2          -2.2938542757       -7.5101823618        3.9144675200  CLST         358          1.0000000000
      1073       358  TIP3  H1           -1.3121614376       -7.6529974718        4.0140989350  CLST         358          1.0000000000
      1074       358  TIP3  H2           -2.2652249778       -7.2905911049        4.8640136000  CLST         358          1.0000000000
      1075       359  TIP3  OH2          10.2396404317        9.9894988352       -1.7514971795  CLST         359          1.0000000000
      1076       359  TIP3  H1           10.3064156697       10.2729402994       -0.9473165117  CLST         359          1.0000000000
      1077       359  TIP3  H2           10.8330619798       10.8916320995       -1.4892805235  CLST         359          1.0000000000
      1078       360  TIP3  OH2           7.6009086559       12.9162262115       12.9044023889  CLST         360          1.0000000000
      1079       360  TIP3  H1            8.3470350552       13.3730929369       12.5707989092  CLST         360          1.0000000000
      1080       360  TIP3  H2            7.2093008140       12.7587046869       12.0009079473  CLST         360          1.0000000000
      1081       361  TIP3  OH2          -6.1053692573      -10.6399846838       10.1810711159  CLST         361          1.0000000000
      1082       361  TIP3  H1           -5.9255667336      -11.1217687379        9.3922892712  CLST         361          1.0000000000
      1083       361  TIP3  H2           -6.2193562730      -11.5580736877       10.4881488860  CLST         361          1.0000000000
      1084       362  TIP3  OH2           4.7313446490       -3.3049532981       10.5320484024  CLST         362          1.0000000000
      1085       362  TIP3  H1            5.1528098745       -2.9852640135        9.7218175206  CLST         362          1.0000000000
      1086       362  TIP3  H2            5.5044552606       -3.8471524106       10.6579910540  CLST         362          1.0000000000
      1087       363  TIP3  OH2           4.9864644428       -4.3301290761       13.9387116571  CLST         363          1.0000000000
      1088       363  TIP3  H1            5.2698905428       -4.7130376545       14.7762888689  CLST         363          1.0000000000
      1089       363  TIP3  H2            5.8584138388       -3.9798914302       13.9205250606  CLST         363          1.0000000000
      1090       364  TIP3  OH2          -1.0289222763        4.7987423773       13.2856337701  CLST         364          1.0000000000
      1091       364  TIP3  H1           -0.1565213834        4.6171985208       13.7023737311  CLST         364          1.0000000000
      1092       364  TIP3  H2           -0.8582528895        5.7324548825       13.2090085593  CLST         364          1.0000000000
      1093       365  TIP3  OH2          -7.6804839436        5.2585681681      -11.7249560689  CLST         365          1.0000000000
      1094       365  TIP3  H1           -8.0154178478        5.6807969443      -10.9233961671  CLST         365          1.0000000000
      1095       365  TIP3  H2           -6.8592183649        5.1992635474      -11.2407850730  CLST         365          1.0000000000
      1096       366  TIP3  OH2         -10.2315200530       -2.4819558409        0.3480625167  CLST         366          1.0000000000
      1097       366  TIP3  H1          -10.9861734290       -2.4501302975        0.9674022849  CLST         366          1.0000000000
      1098       366  TIP3  H2          -10.7069809478       -2.5731757225       -0.5066340678  CLST         366          1.0000000000
      1099       367  TIP3  OH2          13.6929716767       10.4751711452       11.6844679063  CLST         367          1.0000000000
      1100       367  TIP3  H1           13.5032374075       11.3465228769       11.4206592439  CLST         367          1.0000000000
      1101       367  TIP3  H2           12.9204216835       10.5879489594       12.3073433868  CLST         367          1.0000000000
      1102       368  TIP3  OH2          -9.9644791701       -1.1189770304       12.8638061565  CLST         368          1.0000000000
      1103       368  TIP3  H1          -10.7834030217       -1.0062898048       12.4729952099  CLST         368          1.0000000000
      1104       368  TIP3  H2           -9.8613263483       -2.0778948480       12.9294098861  CLST         368          1.0000000000
      1105       369  TIP3  OH2           7.6385357180        9.4569348176       -2.5284960220  CLST         369          1.0000000000
      1106       369  TIP3  H1            8.6186823089        9.5256519805       -2.4233454445  CLST         369          1.0000000000
      1107       369  TIP3  H2            7.6565223826        8.5201702085       -2.4139940205  CLST         369          1.0000000000
      1108       370  TIP3  OH2          -6.7710418336      -12.8468888364       -1.1838092068  CLST         370          1.0000000000
      1109       370  TIP3  H1           -5.9672590371      -13.1817164870       -0.7402856755  CLST         370          1.0000000000
      1110       370  TIP3  H2           -7.1078120990      -13.1117383709       -0.2790371627  CLST         370          1.0000000000
      1111       371  TIP3  OH2           8.7547519047       12.0549780157        9.5939729171  CLST         371          1.0000000000
      1112       371  TIP3  H1            8.7434761076       11.4341110862        8.8085723661  CLST         371          1.0000000000
      1113       371  TIP3  H2            7.8037176779       12.0331030239        9.4646859929  CLST         371          1.0000000000
      1114       372  TIP3  OH2          -1.2093588166       11.6102593243       -1.7121272466  CLST         372          1.0000000000
      1115       372  TIP3  H1           -1.9659101104       11.0101667339       -1.8679645286  CLST         372          1.0000000000
      1116       372  TIP3  H2           -0.8735625665       10.8101779657       -1.2449976030  CLST         372          1.0000000000
      1117       373  TIP3  OH2           8.9514471919       -5.5369932180        8.4906306562  CLST         373          1.0000000000
      1118       373  TIP3  H1            8.9713506948       -6.4505191099        8.8240067039  CLST         373          1.0000000000
      1119       373  TIP3  H2            9.8056955488       -5.8531827987        8.0781575087  CLST         373          1.0000000000
      1120       374  TIP3  OH2          11.0420117899      -10.0164950464       -4.6189516840  CLST         374          1.0000000000
      1121       374  TIP3  H1           10.5710547035      -10.3589536074       -3.8432282098  CLST         374          1.0000000000
      1122       374  TIP3  H2           11.4981483907      -10.8500142634       -4.7004351917  CLST         374          1.0000000000
      1123       375  TIP3  OH2           1.7057026324       13.6653296417       -2.8938356302  CLST         375          1.0000000000
      1124       375  TIP3  H1            1.4176750578       14.2391557130       -2.2200100811  CLST         375          1.0000000000
      1125       375  TIP3  H2            1.0049605465       14.0349906859       -3.4213311561  CLST         375          1.0000000000
      1126       376  TIP3  OH2          10.6282244447        4.4011917108       -8.5668593527  CLST         376          1.0000000000
      1127       376  TIP3  H1            9.6778791175        4.5225897552       -8.5391311076  CLST         376          1.0000000000
      1128       376  TIP3  H2           10.9492639034        4.9442045664       -9.2911572866  CLST         376          1.0000000000
      1129       377  TIP3  OH2           8.1233821395       11.2830506395      -11.8398515788  CLST         377          1.0000000000
      1130       377  TIP3  H1            8.5727547665       11.2803441591      -12.5737026361  CLST         377          1.0000000000
      1131       377  TIP3  H2            9.0960590520       10.7697120533      -11.9234658286  CLST         377          1.0000000000
      1132       378  TIP3  OH2           6.6601542413        9.5649119558        7.4852954744  CLST         378          1.0000000000
      1133       378  TIP3  H1            7.0907829932        8.6855876995        7.6318887644  CLST         378          1.0000000000
      1134       378  TIP3  H2            5.9385133033        9.5823464296        8.1501180064  CLST         378          1.0000000000
      1135       379  TIP3  OH2          -6.7188209254      -10.5781969585       -2.0094799429  CLST         379          1.0000000000
      1136       379  TIP3  H1           -6.2548170671      -11.1995692282       -2.9035750086  CLST         379          1.0000000000
      1137       379  TIP3  H2           -6.9715288032      -11.3714507273       -2.1152881832  CLST         379          1.0000000000
      1138       380  TIP3  OH2           7.4966336624       11.3192860594        4.7093439353  CLST         380          1.0000000000
      1139       380  TIP3  H1            6.6104875342       11.5060695749        4.4738348823  CLST         380          1.0000000000
      1140       380  TIP3  H2            7.5642950444       10.8728489438        3.8568334424  CLST         380          1.0000000000
      1141       381  TIP3  OH2          -7.3505719016       -6.8374273813      -10.1007378078  CLST         381          1.0000000000
      1142       381  TIP3  H1           -7.7815836274       -7.2763952125      -10.8046501894  CLST         381          1.0000000000
      1143       381  TIP3  H2           -6.5665558382       -6.5447116146      -10.5038429138  CLST         381          1.0000000000
      1144       382  TIP3  OH2          -3.3691715839        2.1803141101       -2.1145428406  CLST         382          1.0000000000
      1145       382  TIP3  H1           -3.9225209543        2.6116173754       -2.7718126581  CLST         382          1.0000000000
      1146       382  TIP3  H2           -3.8187476710        1.3303816973       -2.1883357657  CLST         382          1.0000000000
      1147       383  TIP3  OH2          -7.3938129811       -9.2923040748        8.5397787047  CLST         383          1.0000000000
      1148       383  TIP3  H1           -6.3970269534       -9.4381759359        8.7583335493  CLST         383          1.0000000000
      1149       383  TIP3  H2           -7.1514825113      -10.0912587493        7.9901662052  CLST         383          1.0000000000
      1150       384  TIP3  OH2         -11.6886087234       -5.4294816287       13.1107864135  CLST         384          1.0000000000
      1151       384  TIP3  H1          -11.6130648755       -6.2408820617       13.6030005777  CLST         384          1.0000000000
      1152       384  TIP3  H2          -12.3811216001       -5.6021399139       12.4919280486  CLST         384          1.0000000000
      1153       385  TIP3  OH2           7.8594668727        0.4138911806        9.1476446943  CLST         385          1.0000000000
      1154       385  TIP3  H1            8.0461560536        1.2665810669        9.5391208549  CLST         385          1.0000000000
      1155       385  TIP3  H2            8.5395700978        0.7156848574       10.1155305085  CLST         385          1.0000000000
      1156       386  TIP3  OH2         -12.1783345188       -8.6575595930        8.3206845439  CLST         386          1.0000000000
      1157       386  TIP3  H1          -12.3383492113       -7.7370614378        8.2171101655  CLST         386          1.0000000000
      1158       386  TIP3  H2          -11.3600515519       -8.4332936733        8.7952513718  CLST         386          1.0000000000
      1159       387  TIP3  OH2          -1.0013466923      -12.7640629194       -1.3267510880  CLST         387          1.0000000000
      1160       387  TIP3  H1           -1.6897116823      -13.1835830525       -0.5885514080  CLST         387          1.0000000000
      1161       387  TIP3  H2           -1.4089568803      -12.2220026497       -0.4138024090  CLST         387          1.0000000000
      1162       388  TIP3  OH2           3.5044419295        7.1835779316        6.9675392929  CLST         388          1.0000000000
      1163       388  TIP3  H1            3.0974757770        6.5723233096        6.2432866818  CLST         388          1.0000000000
      1164       388  TIP3  H2            4.1228028075        7.3730344064        6.2199988881  CLST         388          1.0000000000
      1165       389  TIP3  OH2          -3.5471908759      -10.9484169135       -0.2769865903  CLST         389          1.0000000000
      1166       389  TIP3  H1           -4.3649716131      -10.6827296037       -0.7347223610  CLST         389          1.0000000000
      1167       389  TIP3  H2           -3.2270901727      -10.7129131754       -1.1974039579  CLST         389          1.0000000000
      1168       390  TIP3  OH2          -1.1276404469        4.7984642809        4.6162261406  CLST         390          1.0000000000
      1169       390  TIP3  H1           -0.4127908557        4.3467486682        5.0561720234  CLST         390          1.0000000000
      1170       390  TIP3  H2           -0.9450247825        4.1541772642        3.9624914509  CLST         390          1.0000000000
      1171       391  TIP3  OH2          -6.0933662763       -5.0320184213        1.6130484455  CLST         391          1.0000000000
      1172       391  TIP3  H1           -6.2731203673       -4.2214476034        1.1733353105  CLST         391          1.0000000000
      1173       391  TIP3  H2           -7.0501887355       -5.0988905128        1.7592409295  CLST         391          1.0000000000
      1174       392  TIP3  OH2           5.0242913591        9.1396977670       -5.3111522116  CLST         392          1.0000000000
      1175       392  TIP3  H1            5.8198636204        8.6550837785       -5.1113614374  CLST         392          1.0000000000
      1176       392  TIP3  H2            4.8945490334        9.1282589056       -4.3907547840  CLST         392          1.0000000000
      1177       393  TIP3  OH2          13.2447666436       11.0994200092       -7.7938787422  CLST         393          1.0000000000
      1178       393  TIP3  H1           13.1631887132       10.1693811171       -8.1889465363  CLST         393          1.0000000000
      1179       393  TIP3  H2           12.6919787844       10.7447552306       -7.0430708774  CLST         393          1.0000000000
      1180       394  TIP3  OH2           1.5651712010        6.6412098070        5.4459435413  CLST         394          1.0000000000
      1181       394  TIP3  H1            0.8901722088        6.9336256561        4.7143594353  CLST         394          1.0000000000
      1182       394  TIP3  H2            1.6131365821        5.8340008363        4.8472518252  CLST         394          1.0000000000
      1183       395  TIP3  OH2          -6.0582530270        7.2610435642        0.2357994206  CLST         395          1.0000000000
      1184       395  TIP3  H1           -5.0802496499        6.8423117956        0.7129858431  CLST         395          1.0000000000
      1185       395  TIP3  H2           -5.3063520404        7.7750102185        0.1607360634  CLST         395          1.0000000000
      1186       396  TIP3  OH2          -3.2243717545        9.3455049888       -2.2845912515  CLST         396          1.0000000000
      1187       396  TIP3  H1           -3.0137096671        8.7048808597       -3.0190946384  CLST         396          1.0000000000
      1188       396  TIP3  H2           -4.1350208227        9.1674555596       -2.6473687725  CLST         396          1.0000000000
      1189       397  TIP3  OH2           2.7242683479      -12.5432807515      -13.6172965413  CLST         397          1.0000000000
      1190       397  TIP3  H1            2.0521509786      -11.8786091361      -13.3850403274  CLST         397          1.0000000000
      1191       397  TIP3  H2            3.2098950592      -12.0394988818      -12.9463496286  CLST         397          1.0000000000
      1192       398  TIP3  OH2           8.7181385428       -4.5817039552        0.7419377153  CLST         398          1.0000000000
      1193       398  TIP3  H1            9.0007805226       -5.5100136940        0.6517952170  CLST         398          1.0000000000
      1194       398  TIP3  H2            8.3675076639       -4.8105247579       -0.0899388274  CLST         398          1.0000000000
      1195       399  TIP3  OH2         -14.4478454054       -3.0948216965       13.1828972265  CLST         399          1.0000000000
      1196       399  TIP3  H1          -14.8208074618       -3.9630482601       13.2426358119  CLST         399          1.0000000000
      1197       399  TIP3  H2          -14.3765130297       -2.9991216198       14.0782501650  CLST         399          1.0000000000
      1198       400  TIP3  OH2         -12.8484575186        8.7229461924        4.5898404286  CLST         400          1.0000000000
      1199       400  TIP3  H1          -13.2298558633        9.0249414684        5.4577929160  CLST         400          1.0000000000
      1200       400  TIP3  H2          -12.8950424714        7.8525173991        5.0070846034  CLST         400          1.0000000000
      1201       401  TIP3  OH2           1.6197907465        5.5860686222      -13.3739928386  CLST         401          1.0000000000
      1202       401  TIP3  H1            1.8013603812        5.7052213865      -14.3303920533  CLST         401          1.0000000000
      1203       401  TIP3  H2            0.8516547640        6.1564495220      -13.4028757310  CLST         401          1.0000000000
      1204       402  TIP3  OH2          14.3168227906       -5.2689738387       14.1098291887  CLST         402          1.0000000000
      1205       402  TIP3  H1           14.0353408556       -6.2929562607       14.1182885236  CLST         402          1.0000000000
      1206       402  TIP3  H2           14.8427982044       -5.5462432076       14.8666647993  CLST         402          1.0000000000
      1207       403  TIP3  OH2         -13.0300818777       12.1951440425       -2.7590051536  CLST         403          1.0000000000
      1208       403  TIP3  H1          -13.9583934360       11.8493337296       -3.1509715879  CLST         403          1.0000000000
      1209       403  TIP3  H2          -12.6312991688       12.4195415147       -3.6173272005  CLST         403          1.0000000000
      1210       404  TIP3  OH2           5.3329511680       -3.1845852935        0.3718759852  CLST         404          1.0000000000
      1211       404  TIP3  H1            4.5560543834       -2.6595713288        0.7411131419  CLST         404          1.0000000000
      1212       404  TIP3  H2            5.3455772876       -3.4016972602        1.3338844637  CLST         404          1.0000000000
      1213       405  TIP3  OH2           2.3755225962        8.3586787597       -3.2401706927  CLST         405          1.0000000000
      1214       405  TIP3  H1            1.9282784033        9.2295694677       -3.2881109340  CLST         405          1.0000000000
      1215       405  TIP3  H2            1.5229153919        7.9440863144       -2.9983719671  CLST         405          1.0000000000
      1216       406  TIP3  OH2          -9.0907049693       -2.5095791368       -7.4430828880  CLST         406          1.0000000000
      1217       406  TIP3  H1           -8.6206811863       -1.6175257196       -7.3300583072  CLST         406          1.0000000000
      1218       406  TIP3  H2           -9.8064163101       -1.9981594816       -7.0416603255  CLST         406          1.0000000000
      1219       407  TIP3  OH2           5.5519632078        5.7524691818        4.6134285718  CLST         407          1.0000000000
      1220       407  TIP3  H1            6.2358721599        5.5132176661        5.2511634187  CLST         407          1.0000000000
      1221       407  TIP3  H2            6.2279040595        6.1128945179        4.0025259717  CLST         407          1.0000000000
      1222       408  TIP3  OH2         -14.0746363263       -4.4365271655       -5.3173256080  CLST         408          1.0000000000
      1223       408  TIP3  H1          -14.0003768714       -3.4605699137       -5.4132555019  CLST         408          1.0000000000
      1224       408  TIP3  H2          -14.1829893609       -4.5534286292       -6.3079340636  CLST         408          1.0000000000
      1225       409  TIP3  OH2          -2.3219122385      -12.8451893076        1.0488807548  CLST         409          1.0000000000
      1226       409  TIP3  H1           -2.7613424729      -13.3615192362        1.7612306558  CLST         409          1.0000000000
      1227       409  TIP3  H2           -1.9123944968      -12.4468263405        1.8656450346  CLST         409          1.0000000000
      1228       410  TIP3  OH2          11.9832805230       -2.1211139743       10.5277829206  CLST         410          1.0000000000
      1229       410  TIP3  H1           12.1833866039       -1.3108199328        9.9128699052  CLST         410          1.0000000000
      1230       410  TIP3  H2           12.3535951495       -2.5132882162        9.7076133330  CLST         410          1.0000000000
      1231       411  TIP3  OH2           8.8054284736      -13.6244246902       -2.5806620543  CLST         411          1.0000000000
      1232       411  TIP3  H1            8.5505880679      -13.9585249613       -1.7079647321  CLST         411          1.0000000000
      1233       411  TIP3  H2            7.9403072187      -13.4820490332       -2.9428767988  CLST         411          1.0000000000
      1234       412  TIP3  OH2          13.1822423929       -4.6249331485       -7.5281429286  CLST         412          1.0000000000
      1235       412  TIP3  H1           12.5545078608       -4.2754527827       -8.1927361753  CLST         412          1.0000000000
      1236       412  TIP3  H2           12.6576644772       -3.9949261894       -6.9530362008  CLST         412          1.0000000000
      1237       413  TIP3  OH2           7.5359005854        8.3451858711       -5.3733186854  CLST         413          1.0000000000
      1238       413  TIP3  H1            7.7184559826        7.7500805854       -4.6437447358  CLST         413          1.0000000000
      1239       413  TIP3  H2            8.4549377989        8.6809623218       -5.4218054427  CLST         413          1.0000000000
      1240       414  TIP3  OH2          -9.0241253381       -5.2341355873      -11.8229168879  CLST         414          1.0000000000
      1241       414  TIP3  H1           -8.3503662368       -4.5119574958      -12.1091383332  CLST         414          1.0000000000
      1242       414  TIP3  H2           -9.4032760447       -4.5717927664      -11.2409310640  CLST         414          1.0000000000
      1243       415  TIP3  OH2         -14.0980855661        0.9192225236        5.2611391639  CLST         415          1.0000000000
      1244       415  TIP3  H1          -13.9074189717        1.7034434991        5.7597635609  CLST         415          1.0000000000
      1245       415  TIP3  H2          -13.6111385510        0.3462474160        5.8644269641  CLST         415          1.0000000000
      1246       416  TIP3  OH2          11.6308240802       12.4050820882       -2.0583295558  CLST         416          1.0000000000
      1247       416  TIP3  H1           12.2774011769       12.8888131787       -2.8010523264  CLST         416          1.0000000000
      1248       416  TIP3  H2           11.2880193852       12.8226514868       -2.6914158045  CLST         416          1.0000000000
      1249       417  TIP3  OH2          10.6655201879      -12.3634156080       -5.1737464990  CLST         417          1.0000000000
      1250       417  TIP3  H1           10.2963736069      -13.0774954419       -4.6576986854  CLST         417          1.0000000000
      1251       417  TIP3  H2            9.9510561701      -12.3319581472       -5.7359500105  CLST         417          1.0000000000
      1252       418  TIP3  OH2          -1.9141713824        5.3015626904        1.5071018973  CLST         418          1.0000000000
      1253       418  TIP3  H1           -2.4852632046        5.2041014383        0.6532815883  CLST         418          1.0000000000
      1254       418  TIP3  H2           -2.6355688208        5.3606674335        2.1007958352  CLST         418          1.0000000000
      1255       419  TIP3  OH2          -8.2680573440        9.2724476591        8.1081416680  CLST         419          1.0000000000
      1256       419  TIP3  H1           -7.5361051226        9.8780438313        8.0938543050  CLST         419          1.0000000000
      1257       419  TIP3  H2           -8.7128702163       10.0937773598        7.7915585209  CLST         419          1.0000000000
      1258       420  TIP3  OH2           3.2954410609        9.2636171714      -14.2356014089  CLST         420          1.0000000000
      1259       420  TIP3  H1            3.7965189583        9.0642704379      -13.3870121132  CLST         420          1.0000000000
      1260       420  TIP3  H2            3.7695489285        8.3759160729      -14.4546774796  CLST         420          1.0000000000
      1261       421  TIP3  OH2          -3.9611364679        7.1568214229       -3.7085198985  CLST         421          1.0000000000
      1262       421  TIP3  H1           -4.7093344962        6.6939698910       -4.0364770869  CLST         421          1.0000000000
      1263       421  TIP3  H2           -3.9008777470        6.3439686622       -3.1793241369  CLST         421          1.0000000000
      1264       422  TIP3  OH2           3.1661200262      -10.4365627097       -2.5798170599  CLST         422          1.0000000000
      1265       422  TIP3  H1            2.5892187365      -11.0575324317       -2.1029984613  CLST         422          1.0000000000
      1266       422  TIP3  H2            3.1499314632       -9.9637849297       -1.7339542315  CLST         422          1.0000000000
      1267       423  TIP3  OH2          -5.5048382125        5.2845593275        1.6331321634  CLST         423          1.0000000000
      1268       423  TIP3  H1           -4.7291888827        4.4208406197        1.8479079035  CLST         423          1.0000000000
      1269       423  TIP3  H2           -4.9306173977        5.3654662986        2.3951643009  CLST         423          1.0000000000
      1270       424  TIP3  OH2          -9.7620426057        8.4852233996        4.3905685064  CLST         424          1.0000000000
      1271       424  TIP3  H1           -9.4504781346        7.7761679990        3.7382616022  CLST         424          1.0000000000
      1272       424  TIP3  H2          -10.6103588819        7.9549775851        4.2617832434  CLST         424          1.0000000000
      1273       425  TIP3  OH2          -9.7216347062        2.6694355928       -9.0522293597  CLST         425          1.0000000000
      1274       425  TIP3  H1          -10.1627720812        2.1006320463       -8.4368044204  CLST         425          1.0000000000
      1275       425  TIP3  H2          -10.5328015577        3.1661814704       -8.9067862188  CLST         425          1.0000000000
      1276       426  TIP3  OH2          -1.0149487162       -9.0546318400       -4.1591295644  CLST         426          1.0000000000
      1277       426  TIP3  H1           -0.1092930508       -9.3335854643       -4.2095641198  CLST         426          1.0000000000
      1278       426  TIP3  H2           -0.9841363562       -9.1113795248       -5.1404563401  CLST         426          1.0000000000
      1279       427  TIP3  OH2          -9.8797633124        2.0776512726        5.2676771482  CLST         427          1.0000000000
      1280       427  TIP3  H1           -9.9230936109        3.0647427811        5.3359399205  CLST         427          1.0000000000
      1281       427  TIP3  H2          -10.7178824685        1.8924437579        5.6842496652  CLST         427          1.0000000000
      1282       428  TIP3  OH2          -6.3323896734       13.7595944244        6.8360614222  CLST         428          1.0000000000
      1283       428  TIP3  H1           -5.8223964393       14.3920285722        6.4079833507  CLST         428          1.0000000000
      1284       428  TIP3  H2           -6.1884772140       13.0801760246        6.1416387062  CLST         428          1.0000000000
      1285       429  TIP3  OH2           0.0365265460      -11.8455880406      -10.6499705382  CLST         429          1.0000000000
      1286       429  TIP3  H1           -0.6216164074      -12.0919122708      -11.3160094788  CLST         429          1.0000000000
      1287       429  TIP3  H2           -0.8501247676      -12.3235422184      -10.0509194495  CLST         429          1.0000000000
      1288       430  TIP3  OH2           0.7068885846        9.9494341074       10.1275114814  CLST         430          1.0000000000
      1289       430  TIP3  H1            0.0734062571       10.4872838209       10.7606046451  CLST         430          1.0000000000
      1290       430  TIP3  H2            0.9951785881        9.6973718085       10.9975629356  CLST         430          1.0000000000
      1291       431  TIP3  OH2          -6.0754340799       -3.6640097884       -3.9248384994  CLST         431          1.0000000000
      1292       431  TIP3  H1           -5.7397047713       -3.5183223034       -4.8320705817  CLST         431          1.0000000000
      1293       431  TIP3  H2           -6.8236519114       -4.1528536001       -4.3028503063  CLST         431          1.0000000000
      1294       432  TIP3  OH2          -5.3490661470        3.3259111837       -3.6607866912  CLST         432          1.0000000000
      1295       432  TIP3  H1           -6.4046572761        3.6419384078       -3.6270261369  CLST         432          1.0000000000
      1296       432  TIP3  H2           -5.8211389303        4.1947602463       -3.0420949041  CLST         432          1.0000000000
      1297       433  TIP3  OH2          -9.0318131980        2.8806054296       10.4584597050  CLST         433          1.0000000000
      1298       433  TIP3  H1           -8.2018928939        3.3174051232       10.6421425443  CLST         433          1.0000000000
      1299       433  TIP3  H2           -9.4790326908        3.4534314308       11.0612362530  CLST         433          1.0000000000
      1300       434  TIP3  OH2           1.1008678336       -4.1539134394        9.4579015638  CLST         434          1.0000000000
      1301       434  TIP3  H1            0.2263549957       -3.8454159169        9.7705858122  CLST         434          1.0000000000
      1302       434  TIP3  H2            1.5582932710       -3.3037460799        9.6997244473  CLST         434          1.0000000000
      1303       435  TIP3  OH2           7.3444166088       -8.1776431666        6.1349806515  CLST         435          1.0000000000
      1304       435  TIP3  H1            8.0087993026       -7.9938998203        5.4432129617  CLST         435          1.0000000000
      1305       435  TIP3  H2            6.6839816884       -7.9092992717        5.4871132306  CLST         435          1.0000000000
      1306       436  TIP3  OH2          -6.6442259193       14.0273492449       -1.9742091908  CLST         436          1.0000000000
      1307       436  TIP3  H1           -6.1990934136       14.8632885313       -1.8620132474  CLST         436          1.0000000000
      1308       436  TIP3  H2           -7.0455716491       14.1503612669       -1.1487081794  CLST         436          1.0000000000
      1309       437  TIP3  OH2          -0.9759241819      -13.1686637711        5.6129146712  CLST         437          1.0000000000
      1310       437  TIP3  H1           -1.7183647067      -12.7690528673        6.1283307099  CLST         437          1.0000000000
      1311       437  TIP3  H2           -0.4224233622      -12.5151768205        6.0199620737  CLST         437          1.0000000000
      1312       438  TIP3  OH2         -12.1993064389       -0.8157163941       -3.1086338916  CLST         438          1.0000000000
      1313       438  TIP3  H1          -11.7591026038       -1.4906502455       -2.6441225038  CLST         438          1.0000000000
      1314       438  TIP3  H2          -12.2776003677       -0.1327476234       -2.4655922754  CLST         438          1.0000000000
      1315       439  TIP3  OH2          -4.0525038513       -3.7588511318        3.4187107808  CLST         439          1.0000000000
      1316       439  TIP3  H1           -4.8423843507       -3.6981298192        4.0106661414  CLST         439          1.0000000000
      1317       439  TIP3  H2           -4.8761602401       -4.1051584398        2.8674135899  CLST         439          1.0000000000
      1318       440  TIP3  OH2         -10.2485762535      -11.6387706240       12.1968246474  CLST         440          1.0000000000
      1319       440  TIP3  H1           -9.9646927335      -10.8009602479       11.6665754236  CLST         440          1.0000000000
      1320       440  TIP3  H2          -10.2960795421      -11.9636384646       11.2652466527  CLST         440          1.0000000000
      1321       441  TIP3  OH2         -14.1879120699        3.8971567184        7.0486619971  CLST         441          1.0000000000
      1322       441  TIP3  H1          -14.6674790909        4.7345623832        7.4065603166  CLST         441          1.0000000000
      1323       441  TIP3  H2          -14.8240219616        4.0820227759        6.3762774007  CLST         441          1.0000000000
      1324       442  TIP3  OH2           9.2645218706        0.4865746757      -12.2824707572  CLST         442          1.0000000000
      1325       442  TIP3  H1            9.7499974811       -0.4075999157      -12.2765086540  CLST         442          1.0000000000
      1326       442  TIP3  H2           10.1521890948        0.7656466777      -12.5456153607  CLST         442          1.0000000000
      1327       443  TIP3  OH2           7.9032424980       -8.2404551543        3.7239522524  CLST         443          1.0000000000
      1328       443  TIP3  H1            8.6941982054       -8.1377549495        3.2353821748  CLST         443          1.0000000000
      1329       443  TIP3  H2            7.4836553947       -7.6708124834        3.0999120588  CLST         443          1.0000000000
      1330       444  TIP3  OH2          12.8329461052        8.2071487799       -0.2985566301  CLST         444          1.0000000000
      1331       444  TIP3  H1           13.0972292897        9.0604916113       -0.0440134872  CLST         444          1.0000000000
      1332       444  TIP3  H2           13.5877966192        7.7924403352        0.0738029457  CLST         444          1.0000000000
      1333       445  TIP3  OH2          -8.8321090374       -9.5921679056       13.6976894194  CLST         445          1.0000000000
      1334       445  TIP3  H1           -8.0452039739       -9.7373791190       13.1642103853  CLST         445          1.0000000000
      1335       445  TIP3  H2           -8.8762441821       -8.7149222918       13.3355041717  CLST         445          1.0000000000
      1336       446  TIP3  OH2          12.7295531342       10.7905024629       -0.0587545447  CLST         446          1.0000000000
      1337       446  TIP3  H1           12.2158999937       11.2823410273        0.6391972916  CLST         446          1.0000000000
      1338       446  TIP3  H2           12.4154037850       11.5618717432       -0.5611883641  CLST         446          1.0000000000
      1339       447  TIP3  OH2          -3.5433397900       13.5151349711        5.2199741568  CLST         447          1.0000000000
      1340       447  TIP3  H1           -3.9322830327       14.3779563726        5.3227292855  CLST         447          1.0000000000
      1341       447  TIP3  H2           -4.3668093328       12.9348036677        4.9915097887  CLST         447          1.0000000000
      1342       448  TIP3  OH2         -10.5888364431        9.4747423690      -13.1937133918  CLST         448          1.0000000000
      1343       448  TIP3  H1          -10.1275771467        9.6415100524      -12.3943592959  CLST         448          1.0000000000
      1344       448  TIP3  H2           -9.9748232147        8.7938754482      -13.4330384507  CLST         448          1.0000000000
      1345       449  TIP3  OH2           4.9675763590       -7.8181232652       -5.7538744248  CLST         449          1.0000000000
      1346       449  TIP3  H1            4.9937841943       -8.5117625838       -5.0097998209  CLST         449          1.0000000000
      1347       449  TIP3  H2            4.7406249196       -7.2988478350       -4.9265963144  CLST         449          1.0000000000
      1348       450  TIP3  OH2           4.6377274635       10.2489213276       11.6230272029  CLST         450          1.0000000000
      1349       450  TIP3  H1            5.4222548778        9.6679598622       11.7409341240  CLST         450          1.0000000000
      1350       450  TIP3  H2            4.5063412976        9.8551319195       10.6927274672  CLST         450          1.0000000000
      1351       451  TIP3  OH2         -12.6370629809       11.1058374662      -12.6505852668  CLST         451          1.0000000000
      1352       451  TIP3  H1          -12.5232210060       11.4552564605      -13.5416462812  CLST         451          1.0000000000
      1353       451  TIP3  H2          -11.7985898357       10.6457412611      -12.8637489327  CLST         451          1.0000000000
      1354       452  TIP3  OH2          -9.8203299450       14.2944732954        1.5232432862  CLST         452          1.0000000000
      1355       452  TIP3  H1          -10.2693181593       13.5420894735        1.9540177303  CLST         452          1.0000000000
      1356       452  TIP3  H2          -10.7760151302       14.4043588442        1.3356347213  CLST         452          1.0000000000
      1357       453  TIP3  OH2          -3.1174192382       -8.5860008420      -13.7121610425  CLST         453          1.0000000000
      1358       453  TIP3  H1           -4.0619980331       -8.8709696833      -13.5965448965  CLST         453          1.0000000000
      1359       453  TIP3  H2           -3.1359729939       -9.2442001492      -14.4501422331  CLST         453          1.0000000000
      1360       454  TIP3  OH2          13.3076709991      -13.2676570234       11.2727576505  CLST         454          1.0000000000
      1361       454  TIP3  H1           14.0488057703      -13.4488460672       11.9109509291  CLST         454          1.0000000000
      1362       454  TIP3  H2           13.5214706603      -12.3884258796       11.6159875552  CLST         454          1.0000000000
      1363       455  TIP3  OH2         -13.4030976788       -9.9413455548       -4.4453081610  CLST         455          1.0000000000
      1364       455  TIP3  H1          -13.4226373567       -9.0097370574       -4.3015646718  CLST         455          1.0000000000
      1365       455  TIP3  H2          -12.5393343045       -9.8903492352       -4.1320822440  CLST         455          1.0000000000
      1366       456  TIP3  OH2          -7.9235171275        7.2256638914        6.3055390187  CLST         456          1.0000000000
      1367       456  TIP3  H1           -8.2376143162        7.9243337790        6.9611803498  CLST         456          1.0000000000
      1368       456  TIP3  H2           -8.1669747171        7.8728129225        5.6324409495  CLST         456          1.0000000000
      1369       457  TIP3  OH2          -4.0050793557      -12.8695543431        8.4853970507  CLST         457          1.0000000000
      1370       457  TIP3  H1           -3.7052693178      -13.2634973464        9.3082899759  CLST         457          1.0000000000
      1371       457  TIP3  H2           -3.0417226501      -12.9176043739        8.3201646805  CLST         457          1.0000000000
      1372       458  TIP3  OH2          -2.4146099443       11.9056627812      -11.5960717281  CLST         458          1.0000000000
      1373       458  TIP3  H1           -3.3384776815       12.1197699644      -11.7521166500  CLST         458          1.0000000000
      1374       458  TIP3  H2           -2.4681706472       11.0879204639      -12.1170105806  CLST         458          1.0000000000
      1375       459  TIP3  OH2         -13.5994707617        7.4426624649       -4.0453133539  CLST         459          1.0000000000
      1376       459  TIP3  H1          -13.5562109039        7.8795933377       -3.1957814661  CLST         459          1.0000000000
      1377       459  TIP3  H2          -13.3691159187        8.0626940914       -4.7213680557  CLST         459          1.0000000000
      1378       460  TIP3  OH2           7.1370459071        9.7034837815      -14.0571980479  CLST         460          1.0000000000
      1379       460  TIP3  H1            6.6663736539        9.6956002884      -13.2014243035  CLST         460          1.0000000000
      1380       460  TIP3  H2            6.4790657486       10.2618740139      -14.3313393145  CLST         460          1.0000000000
      1381       461  TIP3  OH2           0.2831666667        7.7185252927      -12.7557355186  CLST         461          1.0000000000
      1382       461  TIP3  H1           -0.3232782686        7.1835019144      -12.1906203962  CLST         461          1.0000000000
      1383       461  TIP3  H2            0.5753084831        8.1506353730      -11.9042102910  CLST         461          1.0000000000
      1384       462  TIP3  OH2           4.5283344523        7.8505748445      -10.2328423342  CLST         462          1.0000000000
      1385       462  TIP3  H1            3.8470049980        6.9356913493      -10.1808533581  CLST         462          1.0000000000
      1386       462  TIP3  H2            4.2150209546        7.5919935397       -9.3242912537  CLST         462          1.0000000000
      1387       463  TIP3  OH2          -1.2157565381      -11.5903120955       -8.2497261662  CLST         463          1.0000000000
      1388       463  TIP3  H1           -2.1441057016      -11.7262939200       -8.4397597636  CLST         463          1.0000000000
      1389       463  TIP3  H2           -1.3747980685      -11.8590311025       -7.3708013984  CLST         463          1.0000000000
      1390       464  TIP3  OH2          -2.0384569468        2.5477151468       14.3974145517  CLST         464          1.0000000000
      1391       464  TIP3  H1           -2.6764322851        2.3996390364       13.6764973170  CLST         464          1.0000000000
      1392       464  TIP3  H2           -2.0518693930        3.4615399103       13.9959717462  CLST         464          1.0000000000
      1393       465  TIP3  OH2         -13.9912495493        6.2871368683        8.1923927859  CLST         465          1.0000000000
      1394       465  TIP3  H1          -13.9262914746        5.9745320645        9.1163995977  CLST         465          1.0000000000
      1395       465  TIP3  H2          -14.5509064693        7.0286693889        8.4396513585  CLST         465          1.0000000000
      1396       466  TIP3  OH2          -4.0743068438      -13.6147027800        2.9184830895  CLST         466          1.0000000000
      1397       466  TIP3  H1           -4.4131987416      -14.1698085135        3.5802246094  CLST         466          1.0000000000
      1398       466  TIP3  H2           -4.9854717730      -13.3938589555        2.6961964228  CLST         466          1.0000000000
      1399       467  TIP3  OH2           4.5343762733       14.7489523307        8.1046866293  CLST         467          1.0000000000
      1400       467  TIP3  H1            5.3041886617       14.2988583350        8.4863638967  CLST         467          1.0000000000
      1401       467  TIP3  H2            4.1432513857       14.8666647993        8.9962455854  CLST         467          1.0000000000
      1402       468  TIP3  OH2          -8.5134250847       -0.9909735633        1.7863265763  CLST         468          1.0000000000
      1403       468  TIP3  H1           -8.5903274686       -1.1749102566        2.7242885159  CLST         468          1.0000000000
      1404       468  TIP3  H2           -9.1250580705       -1.7049657289        1.5830918677  CLST         468          1.0000000000
      1405       469  TIP3  OH2           6.7009673343        0.5487951981       14.5116689113  CLST         469          1.0000000000
      1406       469  TIP3  H1            5.7423717203        0.7648173313       14.4313743753  CLST         469          1.0000000000
      1407       469  TIP3  H2            6.6765007932        1.3154229122       13.9401144520  CLST         469          1.0000000000
      1408       470  TIP3  OH2           1.2519871144       11.6159987321       -8.7481962252  CLST         470          1.0000000000
      1409       470  TIP3  H1            1.4787852458       12.5484716147       -8.6610718289  CLST         470          1.0000000000
      1410       470  TIP3  H2            2.0813333652       11.3707671150       -8.3326899546  CLST         470          1.0000000000
      1411       471  TIP3  OH2           5.4637432287        5.5361472513       -2.0093038213  CLST         471          1.0000000000
      1412       471  TIP3  H1            4.7067792531        5.7119104700       -2.6704406722  CLST         471          1.0000000000
      1413       471  TIP3  H2            4.8215075193        6.0268851221       -1.4175674360  CLST         471          1.0000000000
      1414       472  TIP3  OH2           4.8992875533      -12.0637498522       -7.1047446544  CLST         472          1.0000000000
      1415       472  TIP3  H1            4.6217831192      -12.9229014218       -7.4679446389  CLST         472          1.0000000000
      1416       472  TIP3  H2            5.2110294253      -12.5949691867       -6.3866383267  CLST         472          1.0000000000
      1417       473  TIP3  OH2          -4.0350169983        2.8167944050        1.2405718018  CLST         473          1.0000000000
      1418       473  TIP3  H1           -3.2237252426        2.3804083352        1.0353248374  CLST         473          1.0000000000
      1419       473  TIP3  H2           -4.4586231416        2.1049823604        0.7346980807  CLST         473          1.0000000000
      1420       474  TIP3  OH2           8.2879052234        4.5401760973        7.9477794336  CLST         474          1.0000000000
      1421       474  TIP3  H1            8.5080777928        4.0503518567        6.8788899362  CLST         474          1.0000000000
      1422       474  TIP3  H2            9.2024919352        4.1331008354        7.5411667220  CLST         474          1.0000000000
      1423       475  TIP3  OH2           6.3308158628       -4.2474968847       -7.7347503516  CLST         475          1.0000000000
      1424       475  TIP3  H1            6.4885103563       -3.4439709913       -8.2040568680  CLST         475          1.0000000000
      1425       475  TIP3  H2            7.2157012300       -4.4716078709       -8.0185303323  CLST         475          1.0000000000
      1426       476  TIP3  OH2           3.3214176512       10.1189884728       -8.1604014318  CLST         476          1.0000000000
      1427       476  TIP3  H1            3.6706249523        9.2722476600       -7.8638747853  CLST         476          1.0000000000
      1428       476  TIP3  H2            3.2279224288       10.3059454447       -7.2087030499  CLST         476          1.0000000000
      1429       477  TIP3  OH2          -7.5089656478       -3.5366956875       -9.8330142798  CLST         477          1.0000000000
      1430       477  TIP3  H1           -6.8517349166       -3.7416284647      -10.5217757993  CLST         477          1.0000000000
      1431       477  TIP3  H2           -7.3354012083       -4.2563685215       -9.2820527019  CLST         477          1.0000000000
      1432       478  TIP3  OH2           0.7106884177       -5.0875602092      -12.4661584347  CLST         478          1.0000000000
      1433       478  TIP3  H1            0.8545245151       -6.2017733982      -12.5040657282  CLST         478          1.0000000000
      1434       478  TIP3  H2            1.4295563586       -5.5567350927      -11.7690426378  CLST         478          1.0000000000
      1435       479  TIP3  OH2           0.0496573102       -1.4733413471       -7.5022788794  CLST         479          1.0000000000
      1436       479  TIP3  H1            0.4054084736       -1.4269019750       -6.5372729859  CLST         479          1.0000000000
      1437       479  TIP3  H2            0.9849984911       -1.5839402435       -7.7187271251  CLST         479          1.0000000000
      1438       480  TIP3  OH2           5.7186324090       -1.0632739097        9.2950722092  CLST         480          1.0000000000
      1439       480  TIP3  H1            6.2446439164       -1.7869121647        8.8936155261  CLST         480          1.0000000000
      1440       480  TIP3  H2            6.4369428446       -0.5598333836        9.0560240802  CLST         480          1.0000000000
      1441       481  TIP3  OH2          -6.9098397909        2.2769937186       -5.8672491562  CLST         481          1.0000000000
      1442       481  TIP3  H1           -7.3660053544        3.1365904650       -5.7553216389  CLST         481          1.0000000000
      1443       481  TIP3  H2           -6.1666124785        2.8046142050       -5.5027640288  CLST         481          1.0000000000
      1444       482  TIP3  OH2           3.7255765851       -8.0503976564        4.3089699719  CLST         482          1.0000000000
      1445       482  TIP3  H1            4.3439322698       -7.6050922942        4.8847238071  CLST         482          1.0000000000
      1446       482  TIP3  H2            3.3312959592       -7.1632123656        4.3057298305  CLST         482          1.0000000000
      1447       483  TIP3  OH2         -14.8666647993        0.0296035236       -8.2050313056  CLST         483          1.0000000000
      1448       483  TIP3  H1          -14.6085283230       -0.7278572458       -8.7453605705  CLST         483          1.0000000000
      1449       483  TIP3  H2          -14.0115671459        0.1061300737       -7.8537011720  CLST         483          1.0000000000
      1450       484  TIP3  OH2          14.8262519207       -2.3868839125       -8.9248030994  CLST         484          1.0000000000
      1451       484  TIP3  H1           14.2669049272       -2.9814635407       -8.4650457695  CLST         484          1.0000000000
      1452       484  TIP3  H2           14.1442589841       -1.7707281438       -9.2534376155  CLST         484          1.0000000000
      1453       485  TIP3  OH2          -3.6101269305        5.3530959242        3.5827211199  CLST         485          1.0000000000
      1454       485  TIP3  H1           -2.9170184358        5.1681016845        4.2912258606  CLST         485          1.0000000000
      1455       485  TIP3  H2           -4.0709593006        5.7672690294        4.3588857962  CLST         485          1.0000000000
      1456       486  TIP3  OH2          11.2347648550       12.7082667546       -8.7899705493  CLST         486          1.0000000000
      1457       486  TIP3  H1           11.8364411106       12.1643544171       -8.2555410812  CLST         486          1.0000000000
      1458       486  TIP3  H2           11.6800879682       12.3318405614       -9.5847495162  CLST         486          1.0000000000
      1459       487  TIP3  OH2           2.3940131709       -5.7651442988        3.6343638113  CLST         487          1.0000000000
      1460       487  TIP3  H1            2.7439212886       -4.8757130022        3.9267970426  CLST         487          1.0000000000
      1461       487  TIP3  H2            1.8337429247       -5.1918751376        3.0670988883  CLST         487          1.0000000000
      1462       488  TIP3  OH2         -11.7424356733       -0.6667914178       10.9393501660  CLST         488          1.0000000000
      1463       488  TIP3  H1          -12.1548829658        0.1924555141       10.7806222993  CLST         488          1.0000000000
      1464       488  TIP3  H2          -11.0293217066       -0.0566178335       10.5295123486  CLST         488          1.0000000000
      1465       489  TIP3  OH2          -8.4026302779        7.8850002249       -4.6866528364  CLST         489          1.0000000000
      1466       489  TIP3  H1           -8.3492163237        8.3966119416       -3.8940938023  CLST         489          1.0000000000
      1467       489  TIP3  H2           -7.6026360821        7.4675839736       -4.4366633733  CLST         489          1.0000000000
      1468       490  TIP3  OH2         -10.9964095564       10.9716984455        4.9599349101  CLST         490          1.0000000000
      1469       490  TIP3  H1          -11.3715094875       10.3589127547        4.5785910357  CLST         490          1.0000000000
      1470       490  TIP3  H2          -10.3131240995       10.1638117521        4.5609574529  CLST         490          1.0000000000
      1471       491  TIP3  OH2          -1.1826216148       -9.8955496506       11.1481013008  CLST         491          1.0000000000
      1472       491  TIP3  H1           -0.2816356425       -9.8838027514       10.7527517513  CLST         491          1.0000000000
      1473       491  TIP3  H2           -0.7965087039       -9.2142971863       11.6991438542  CLST         491          1.0000000000
      1474       492  TIP3  OH2          -1.9570152437       10.2671811188        2.6888585728  CLST         492          1.0000000000
      1475       492  TIP3  H1           -1.4084519769       10.9655839984        2.7246459098  CLST         492          1.0000000000
      1476       492  TIP3  H2           -2.4317309632       10.6597178546        1.9680439092  CLST         492          1.0000000000
      1477       493  TIP3  OH2          -6.0705062004       10.4531949453       -3.0685479978  CLST         493          1.0000000000
      1478       493  TIP3  H1           -5.9854177328       10.9468738334       -3.9177956784  CLST         493          1.0000000000
      1479       493  TIP3  H2           -6.9503903712       10.8235153871       -3.0370613311  CLST         493          1.0000000000
      1480       494  TIP3  OH2         -13.9480801124       10.9363968770       12.1204494830  CLST         494          1.0000000000
      1481       494  TIP3  H1          -14.8666647993       10.9480891736       11.9231212402  CLST         494          1.0000000000
      1482       494  TIP3  H2          -13.3914044385       11.3835641677       11.5368785115  CLST         494          1.0000000000
      1483       495  TIP3  OH2           3.5733355167      -13.0152003274       13.6956848275  CLST         495          1.0000000000
      1484       495  TIP3  H1            3.0437996408      -13.0596964784       14.4889271973  CLST         495          1.0000000000
      1485       495  TIP3  H2            3.6649117276      -12.0357515716       13.7977215480  CLST         495          1.0000000000
      1486       496  TIP3  OH2         -14.8666647993        6.3682709736        0.4742351453  CLST         496          1.0000000000
      1487       496  TIP3  H1          -14.7109562768        5.7568914894        1.4772435845  CLST         496          1.0000000000
      1488       496  TIP3  H2          -13.8628044911        6.0431429802        1.1204536467  CLST         496          1.0000000000
      1489       497  TIP3  OH2         -13.3286294485       -8.7301491124        3.0798760150  CLST         497          1.0000000000
      1490       497  TIP3  H1          -14.0039666984       -8.2981561790        3.6236144316  CLST         497          1.0000000000
      1491       497  TIP3  H2          -13.5412799455       -9.5624036779        3.5356787994  CLST         497          1.0000000000
      1492       498  TIP3  OH2           4.2419459660       14.1113672139      -10.7025499383  CLST         498          1.0000000000
      1493       498  TIP3  H1            4.4325395383       13.8638346624      -11.7633894843  CLST         498          1.0000000000
      1494       498  TIP3  H2            4.6988879555       13.1832190023      -11.1139302081  CLST         498          1.0000000000
      1495       499  TIP3  OH2           1.4739651604       11.0732032269       -2.8777828473  CLST         499          1.0000000000
      1496       499  TIP3  H1            0.6312679322       11.3559402530       -2.4816533644  CLST         499          1.0000000000
      1497       499  TIP3  H2            1.7149334687       11.9590176538       -2.5378894043  CLST         499          1.0000000000
      1498       500  TIP3  OH2          -6.0149548970       -2.4305209701        4.3372096788  CLST         500          1.0000000000
      1499       500  TIP3  H1           -6.7819428502       -2.2148379886        3.7918130995  CLST         500          1.0000000000
      1500       500  TIP3  H2           -5.5438506191       -1.8711812281        3.6651487117  CLST         500          1.0000000000
      1501       501  TIP3  OH2         -12.2839273060      -13.4918746051       -6.0190039148  CLST         501          1.0000000000
      1502       501  TIP3  H1          -12.9486681699      -12.8624482160       -6.1787364910  CLST         501          1.0000000000
      1503       501  TIP3  H2          -11.5669325954      -13.0753516093       -6.4925792236  CLST         501          1.0000000000
      1504       502  TIP3  OH2          -1.4603741220       -3.8282810725      -11.5386029303  CLST         502          1.0000000000
      1505       502  TIP3  H1           -0.9475742469       -3.0510895497      -11.8112497715  CLST         502          1.0000000000
      1506       502  TIP3  H2           -0.8281720856       -4.2062043371      -12.1366947345  CLST         502          1.0000000000
      1507       503  TIP3  OH2          -0.2106847302       -4.7072837267        1.1300075567  CLST         503          1.0000000000
      1508       503  TIP3  H1            0.3901666491       -5.0718705637        0.4317479247  CLST         503          1.0000000000
      1509       503  TIP3  H2           -0.8320713081       -5.4253500657        0.9122667435  CLST         503          1.0000000000
      1510       504  TIP3  OH2          -4.3351025865       -3.6137715097       12.7368066291  CLST         504          1.0000000000
      1511       504  TIP3  H1           -4.4629198065       -4.5571402954       13.1042959633  CLST         504          1.0000000000
      1512       504  TIP3  H2           -4.3475211881       -3.2648118218       13.6633352285  CLST         504          1.0000000000
      1513       505  TIP3  OH2           5.7707857827       11.9018181945       -9.1671357207  CLST         505          1.0000000000
      1514       505  TIP3  H1            6.0112738769       11.6756954859       -8.2943045323  CLST         505          1.0000000000
      1515       505  TIP3  H2            6.7048261708       12.2802718926       -9.2046536213  CLST         505          1.0000000000
      1516       506  TIP3  OH2          -4.1140231383        3.5934590128       10.5350253099  CLST         506          1.0000000000
      1517       506  TIP3  H1           -4.8224441583        3.4142814817        9.8800400131  CLST         506          1.0000000000
      1518       506  TIP3  H2           -4.0313983120        2.6948792064       10.8710788781  CLST         506          1.0000000000
      1519       507  TIP3  OH2          -2.1367462025        7.1187814969      -12.4019801746  CLST         507          1.0000000000
      1520       507  TIP3  H1           -2.5758691420        6.2751035124      -12.2303353973  CLST         507          1.0000000000
      1521       507  TIP3  H2           -2.9878856375        7.3462508011      -12.7255945953  CLST         507          1.0000000000
      1522       508  TIP3  OH2         -11.3315597404        5.1808515386      -11.5706717347  CLST         508          1.0000000000
      1523       508  TIP3  H1          -12.3350740147        4.7830863427      -11.1676844987  CLST         508          1.0000000000
      1524       508  TIP3  H2          -11.6488637777        4.3067920247      -11.7732827191  CLST         508          1.0000000000
      1525       509  TIP3  OH2           4.7399729626        0.6614057397      -10.9428445553  CLST         509          1.0000000000
      1526       509  TIP3  H1            5.1770600094        0.5142220892      -10.1251467050  CLST         509          1.0000000000
      1527       509  TIP3  H2            5.5170334118        0.4400429964      -11.5902876048  CLST         509          1.0000000000
      1528       510  TIP3  OH2          -4.2638644937        0.3655503035       -3.5651180270  CLST         510          1.0000000000
      1529       510  TIP3  H1           -4.4735066326       -0.2237066521       -4.3216459738  CLST         510          1.0000000000
      1530       510  TIP3  H2           -3.6489528731        0.2654614897       -4.5695639498  CLST         510          1.0000000000
      1531       511  TIP3  OH2         -10.6008849222        1.6781941192       -1.1112622519  CLST         511          1.0000000000
      1532       511  TIP3  H1          -11.2317889680        2.2014919420       -0.5040905354  CLST         511          1.0000000000
      1533       511  TIP3  H2          -11.2350428610        0.9656861031       -0.8448245219  CLST         511          1.0000000000
      1534       512  TIP3  OH2          -3.4962163067       -8.0524816085       -8.7905034038  CLST         512          1.0000000000
      1535       512  TIP3  H1           -2.8016651925       -8.6366345510       -9.1880851632  CLST         512          1.0000000000
      1536       512  TIP3  H2           -3.3384301879       -7.5570011113       -9.6444236189  CLST         512          1.0000000000
      1537       513  TIP3  OH2           9.6371322280       13.8827139918       11.4544424900  CLST         513          1.0000000000
      1538       513  TIP3  H1            9.2885605134       14.6536166419       10.8769556630  CLST         513          1.0000000000
      1539       513  TIP3  H2            9.3330910417       13.3392870001       10.6795770762  CLST         513          1.0000000000
      1540       514  TIP3  OH2          -4.6502029931        7.8077066472      -12.9829649497  CLST         514          1.0000000000
      1541       514  TIP3  H1           -5.4715948744        7.6576967562      -13.4435654222  CLST         514          1.0000000000
      1542       514  TIP3  H2           -5.3655475575        8.1407593289      -12.3574149416  CLST         514          1.0000000000
      1543       515  TIP3  OH2           5.7067121298        6.1674077536       -6.1446621117  CLST         515          1.0000000000
      1544       515  TIP3  H1            5.4468281560        6.2041634056       -5.2403401493  CLST         515          1.0000000000
      1545       515  TIP3  H2            6.4909260543        6.5693397757       -5.7149179680  CLST         515          1.0000000000
      1546       516  TIP3  OH2           9.5305894603        0.1284283612       -7.9749277446  CLST         516          1.0000000000
      1547       516  TIP3  H1           10.4537225277        0.1445693182       -7.6655826770  CLST         516          1.0000000000
      1548       516  TIP3  H2            9.5384783072        1.0657002063       -7.9404462022  CLST         516          1.0000000000
      1549       517  TIP3  OH2          13.8732589126       -7.0060527149       -8.9450759802  CLST         517          1.0000000000
      1550       517  TIP3  H1           14.1595948964       -6.5826646846       -8.1125835246  CLST         517          1.0000000000
      1551       517  TIP3  H2           14.8419000494       -7.1074280335       -9.0545100675  CLST         517          1.0000000000
      1552       518  TIP3  OH2          -0.7563030040       11.7753946672       -5.9047722604  CLST         518          1.0000000000
      1553       518  TIP3  H1            0.1520523516       11.7989423874       -6.1783617623  CLST         518          1.0000000000
      1554       518  TIP3  H2           -0.8245223129       12.5903550074       -5.3451151762  CLST         518          1.0000000000
      1555       519  TIP3  OH2           0.7565433202        4.8188557242        1.0451073636  CLST         519          1.0000000000
      1556       519  TIP3  H1            0.1687794357        4.0628636607        0.7483284488  CLST         519          1.0000000000
      1557       519  TIP3  H2           -0.2071894341        5.1558148045        1.1836530638  CLST         519          1.0000000000
      1558       520  TIP3  OH2           6.9227673960        6.6345631933      -10.7181303344  CLST         520          1.0000000000
      1559       520  TIP3  H1            6.1262693898        7.1673664575      -10.5016425439  CLST         520          1.0000000000
      1560       520  TIP3  H2            6.8824553643        7.3219768797       -9.7711602657  CLST         520          1.0000000000
      1561       521  TIP3  OH2          -5.6672087829       10.0713130850        9.4085897780  CLST         521          1.0000000000
      1562       521  TIP3  H1           -4.7702845477       10.0925614084        9.8020874879  CLST         521          1.0000000000
      1563       521  TIP3  H2           -5.1951191723       10.2562113804        8.5710972037  CLST         521          1.0000000000
      1564       522  TIP3  OH2           3.2603662903        4.1409676188        2.2388665227  CLST         522          1.0000000000
      1565       522  TIP3  H1            2.3319362518        4.1785168460        1.7817938063  CLST         522          1.0000000000
      1566       522  TIP3  H2            3.1236929081        3.7883089142        1.1864836574  CLST         522          1.0000000000
      1567       523  TIP3  OH2           8.3778426316        0.5977485593       -3.6034176241  CLST         523          1.0000000000
      1568       523  TIP3  H1            7.3983398379        0.4830659504       -3.6227408330  CLST         523          1.0000000000
      1569       523  TIP3  H2            8.4728557701       -0.0633537302       -4.3109320338  CLST         523          1.0000000000
      1570       524  TIP3  OH2          -5.2374259850        5.5524875280      -10.4672101394  CLST         524          1.0000000000
      1571       524  TIP3  H1           -4.8585489052        6.3855141146      -10.8092197132  CLST         524          1.0000000000
      1572       524  TIP3  H2           -4.3541666093        5.0899858192      -10.6417834879  CLST         524          1.0000000000
      1573       525  TIP3  OH2          -6.0446593969        5.9950184934       -7.9631590429  CLST         525          1.0000000000
      1574       525  TIP3  H1           -5.3229100837        6.6501324684       -8.2067520910  CLST         525          1.0000000000
      1575       525  TIP3  H2           -5.8960917837        5.6309621955       -8.8373696800  CLST         525          1.0000000000
      1576       526  TIP3  OH2           9.4234610954      -11.1035121043      -12.7197027664  CLST         526          1.0000000000
      1577       526  TIP3  H1            9.4103603488      -10.1758024382      -13.1071288362  CLST         526          1.0000000000
      1578       526  TIP3  H2            8.6937543087      -11.0868808574      -13.4280274012  CLST         526          1.0000000000
      1579       527  TIP3  OH2         -11.3993496100       -3.1489916221       -1.7580399034  CLST         527          1.0000000000
      1580       527  TIP3  H1          -12.2236088372       -3.4752747115       -2.0321656716  CLST         527          1.0000000000
      1581       527  TIP3  H2          -10.9443678475       -3.8089825616       -2.2759677438  CLST         527          1.0000000000
      1582       528  TIP3  OH2           4.5906710808      -12.0903226774      -11.3479153328  CLST         528          1.0000000000
      1583       528  TIP3  H1            4.3956515233      -11.1186758941      -11.1736209109  CLST         528          1.0000000000
      1584       528  TIP3  H2            5.4099926283      -11.8089220113      -10.8985419232  CLST         528          1.0000000000
      1585       529  TIP3  OH2          -5.9472140193       -7.0308512282       -4.7272445766  CLST         529          1.0000000000
      1586       529  TIP3  H1           -5.3001558358       -7.6456407548       -5.1229690614  CLST         529          1.0000000000
      1587       529  TIP3  H2           -5.9161519056       -6.4166640556       -5.4332155767  CLST         529          1.0000000000
      1588       530  TIP3  OH2           3.0432585793       -5.6938605999        6.6099057492  CLST         530          1.0000000000
      1589       530  TIP3  H1            2.7412165037       -6.2069021524        7.4073069872  CLST         530          1.0000000000
      1590       530  TIP3  H2            2.0903004884       -5.7197609327        6.2843269414  CLST         530          1.0000000000
      1591       531  TIP3  OH2          -3.2456728602       -3.3440693195      -14.8643060273  CLST         531          1.0000000000
      1592       531  TIP3  H1           -3.8095301892       -2.5721458721      -14.7920923650  CLST         531          1.0000000000
      1593       531  TIP3  H2           -3.0734669693       -3.3791235706      -13.9472890819  CLST         531          1.0000000000
      1594       532  TIP3  OH2          -1.4031771912       -3.9930783136       -1.9070834499  CLST         532          1.0000000000
      1595       532  TIP3  H1           -2.1051666660       -3.3355504870       -2.2089739519  CLST         532          1.0000000000
      1596       532  TIP3  H2           -1.5762702024       -3.6020962806       -1.0001786261  CLST         532          1.0000000000
      1597       533  TIP3  OH2          -3.2168909326       12.9324971233        7.9001712928  CLST         533          1.0000000000
      1598       533  TIP3  H1           -3.7249708519       13.3874475434        7.2003929835  CLST         533          1.0000000000
      1599       533  TIP3  H2           -4.0828791501       12.5960672821        8.0946797433  CLST         533          1.0000000000
      1600       534  TIP3  OH2           7.0266052358       -4.4232680314       -5.2390719488  CLST         534          1.0000000000
      1601       534  TIP3  H1            6.2956637518       -4.0876781478       -4.6850210456  CLST         534          1.0000000000
      1602       534  TIP3  H2            6.2592643694       -4.6193619063       -5.8680331353  CLST         534          1.0000000000
      1603       535  TIP3  OH2           6.9672946877       -4.0145617847      -11.5806541873  CLST         535          1.0000000000
      1604       535  TIP3  H1            6.1970201114       -3.6302677986      -11.0579763102  CLST         535          1.0000000000
      1605       535  TIP3  H2            6.9838940414       -4.5216967633      -10.7436259648  CLST         535          1.0000000000
      1606       536  TIP3  OH2          14.4198796845        7.9466059609       10.6374210891  CLST         536          1.0000000000
      1607       536  TIP3  H1           14.2492394787        8.8496191042       11.0177672808  CLST         536          1.0000000000
      1608       536  TIP3  H2           14.8017597798        8.5451289871        9.9234974985  CLST         536          1.0000000000
      1609       537  TIP3  OH2           4.7960221749       -4.5699731846       -3.4151912410  CLST         537          1.0000000000
      1610       537  TIP3  H1            3.9822946476       -5.0475079461       -3.2995557021  CLST         537          1.0000000000
      1611       537  TIP3  H2            5.0762178879       -5.3866091845       -3.5120244737  CLST         537          1.0000000000
      1612       538  TIP3  OH2          -0.2761665915        7.4071902260       12.9538346483  CLST         538          1.0000000000
      1613       538  TIP3  H1           -1.0035457710        7.4317771743       12.3559700492  CLST         538          1.0000000000
      1614       538  TIP3  H2           -0.2998426796        8.3568838075       12.8632981587  CLST         538          1.0000000000
      1615       539  TIP3  OH2           6.2101205443        8.9523817035        1.1425476939  CLST         539          1.0000000000
      1616       539  TIP3  H1            6.5859777546        8.2808261711        0.5554758669  CLST         539          1.0000000000
      1617       539  TIP3  H2            5.6367990306        8.1818922587        1.4637016314  CLST         539          1.0000000000
      1618       540  TIP3  OH2          12.0729346375       -1.4351396100       -3.9286559655  CLST         540          1.0000000000
      1619       540  TIP3  H1           12.9396369904       -1.0583496473       -3.6644656769  CLST         540          1.0000000000
      1620       540  TIP3  H2           11.9788295240       -1.2994554075       -2.9545786769  CLST         540          1.0000000000
      1621       541  TIP3  OH2          10.3817006991        7.7179750194        8.6649412976  CLST         541          1.0000000000
      1622       541  TIP3  H1           10.5201626874        7.8686465597        9.4369389002  CLST         541          1.0000000000
      1623       541  TIP3  H2           10.9914723585        6.8961834430        9.2629396549  CLST         541          1.0000000000
      1624       542  TIP3  OH2          13.4451165550        0.9130854183       -5.2158794705  CLST         542          1.0000000000
      1625       542  TIP3  H1           12.7126281827        0.5878067102       -5.7560971177  CLST         542          1.0000000000
      1626       542  TIP3  H2           13.9009569516        0.7928268636       -6.0671668715  CLST         542          1.0000000000
      1627       543  TIP3  OH2           9.9496660002       -6.4868082781        5.6715691642  CLST         543          1.0000000000
      1628       543  TIP3  H1           10.2358785444       -6.6924549110        4.7600872754  CLST         543          1.0000000000
      1629       543  TIP3  H2            9.2866973117       -5.8653233932        5.2396410169  CLST         543          1.0000000000
      1630       544  TIP3  OH2           7.0395571220        4.4594483928      -12.2256308963  CLST         544          1.0000000000
      1631       544  TIP3  H1            7.4236405314        4.0654202927      -11.4588713617  CLST         544          1.0000000000
      1632       544  TIP3  H2            6.8109512790        5.1857670384      -11.6743836121  CLST         544          1.0000000000
      1633       545  TIP3  OH2         -11.8816591071        2.2230220462        7.5097341908  CLST         545          1.0000000000
      1634       545  TIP3  H1          -12.5198956192        2.9460138784        7.4651088423  CLST         545          1.0000000000
      1635       545  TIP3  H2          -11.6946399990        2.6998779630        8.3137112294  CLST         545          1.0000000000
      1636       546  TIP3  OH2          -0.9715115436       11.9290799609       10.8119628490  CLST         546          1.0000000000
      1637       546  TIP3  H1           -0.9363120734       12.6418434120       10.2469783385  CLST         546          1.0000000000
      1638       546  TIP3  H2           -0.5264401927       12.3276243429       11.5507050859  CLST         546          1.0000000000
      1639       547  TIP3  OH2          -2.0011397744        7.0357894898        5.7085292757  CLST         547          1.0000000000
      1640       547  TIP3  H1           -1.9223956338        6.4092205339        6.4892827008  CLST         547          1.0000000000
      1641       547  TIP3  H2           -1.3571165872        6.4436928031        5.2550966792  CLST         547          1.0000000000
      1642       548  TIP3  OH2           2.6337414876       -7.9747655904       12.7148271518  CLST         548          1.0000000000
      1643       548  TIP3  H1            2.4174615020       -6.9872594904       12.7808685894  CLST         548          1.0000000000
      1644       548  TIP3  H2            3.4578979032       -7.6702830767       12.2294195039  CLST         548          1.0000000000
      1645       549  TIP3  OH2          -7.0402023677       14.5602078503        2.9013131861  CLST         549          1.0000000000
      1646       549  TIP3  H1           -8.1081349232       14.5259069573        3.2448633404  CLST         549          1.0000000000
      1647       549  TIP3  H2           -7.3802097039       13.9874786769        3.5712311116  CLST         549          1.0000000000
      1648       550  TIP3  OH2          -7.8344122968        4.5295925675       -4.2597182518  CLST         550          1.0000000000
      1649       550  TIP3  H1           -8.8110467687        3.9327937359       -4.3531973653  CLST         550          1.0000000000
      1650       550  TIP3  H2           -8.6237446737        5.0035436893       -4.5334545448  CLST         550          1.0000000000
      1651       551  TIP3  OH2          -1.9964579340      -13.3162704119       -3.6323784482  CLST         551          1.0000000000
      1652       551  TIP3  H1           -1.5107955017      -12.9371724130       -2.9568784318  CLST         551          1.0000000000
      1653       551  TIP3  H2           -2.6467549258      -13.3653387081       -2.9220115089  CLST         551          1.0000000000
      1654       552  TIP3  OH2          -2.2751743099       -7.8423200918       13.5051158217  CLST         552          1.0000000000
      1655       552  TIP3  H1           -2.5112882122       -8.7006009297       13.9155529963  CLST         552          1.0000000000
      1656       552  TIP3  H2           -1.5445676677       -8.0113341864       12.9603438074  CLST         552          1.0000000000
      1657       553  TIP3  OH2           8.0667172392      -13.8679301623        0.2045365220  CLST         553          1.0000000000
      1658       553  TIP3  H1            8.7973248547      -13.3225108458        0.4556191632  CLST         553          1.0000000000
      1659       553  TIP3  H2            7.9676639760      -14.4369236732        0.9791634055  CLST         553          1.0000000000
      1660       554  TIP3  OH2          -9.1176920997      -12.2469197969       -3.6010830331  CLST         554          1.0000000000
      1661       554  TIP3  H1           -9.5387620640      -11.5247692041       -3.0593632009  CLST         554          1.0000000000
      1662       554  TIP3  H2          -10.0421821530      -12.7252906346       -3.5614528258  CLST         554          1.0000000000
      1663       555  TIP3  OH2         -11.2607775584       -5.3020384838       -7.2809658707  CLST         555          1.0000000000
      1664       555  TIP3  H1          -10.9866151287       -4.3620275419       -7.2816410899  CLST         555          1.0000000000
      1665       555  TIP3  H2          -11.3614605590       -5.1400884564       -6.2938265133  CLST         555          1.0000000000
      1666       556  TIP3  OH2         -10.3066810957       11.4156865761       13.5368467529  CLST         556          1.0000000000
      1667       556  TIP3  H1          -11.0389496121       10.7155638271       13.6268835324  CLST         556          1.0000000000
      1668       556  TIP3  H2           -9.6593976073       10.6482642672       13.3228503203  CLST         556          1.0000000000
      1669       557  TIP3  OH2          -2.5080067790       -6.5952659288        1.4111856178  CLST         557          1.0000000000
      1670       557  TIP3  H1           -2.4145893391       -6.5759869435        2.4056851652  CLST         557          1.0000000000
      1671       557  TIP3  H2           -2.6037045194       -7.5243943029        1.4490369319  CLST         557          1.0000000000
      1672       558  TIP3  OH2         -10.5907294836        6.3998460926        2.8808801408  CLST         558          1.0000000000
      1673       558  TIP3  H1          -10.2605550076        5.7178198953        3.5854717426  CLST         558          1.0000000000
      1674       558  TIP3  H2           -9.9585719268        6.0104794746        2.2666745588  CLST         558          1.0000000000
      1675       559  TIP3  OH2           0.9713675016        2.2941914988       -0.0860403854  CLST         559          1.0000000000
      1676       559  TIP3  H1            1.1967140081        2.3982174445       -0.9649309166  CLST         559          1.0000000000
      1677       559  TIP3  H2            1.3667759298        1.4389024978       -0.1580894600  CLST         559          1.0000000000
      1678       560  TIP3  OH2          12.5860198042      -11.8925778500        0.8151702420  CLST         560          1.0000000000
      1679       560  TIP3  H1           12.9884114351      -12.5765711918        0.1770942813  CLST         560          1.0000000000
      1680       560  TIP3  H2           11.8599539320      -12.0726965789        0.2019728386  CLST         560          1.0000000000
      1681       561  TIP3  OH2         -12.9712101304        8.5987242509      -10.8889060420  CLST         561          1.0000000000
      1682       561  TIP3  H1          -12.1494548906        8.0055440617      -11.0559377754  CLST         561          1.0000000000
      1683       561  TIP3  H2          -12.4103434984        8.7365886302      -10.1717865948  CLST         561          1.0000000000
      1684       562  TIP3  OH2           9.8776224568        7.2053248643       13.4354947105  CLST         562          1.0000000000
      1685       562  TIP3  H1           10.4641110804        7.0386734392       14.2732411500  CLST         562          1.0000000000
      1686       562  TIP3  H2            9.9311081135        6.0534321310       13.6328747189  CLST         562          1.0000000000
      1687       563  TIP3  OH2           3.2201112410      -10.3116920628       -6.6189894270  CLST         563          1.0000000000
      1688       563  TIP3  H1            4.1650556446      -10.5552224585       -6.6421913044  CLST         563          1.0000000000
      1689       563  TIP3  H2            3.1133291826      -11.2151708511       -6.8851768319  CLST         563          1.0000000000
      1690       564  TIP3  OH2           4.6012046441      -13.1705139307       -3.0717946890  CLST         564          1.0000000000
      1691       564  TIP3  H1            4.9574046276      -13.5619058229       -3.8967809996  CLST         564          1.0000000000
      1692       564  TIP3  H2            3.6655856380      -13.2461778082       -3.3145361075  CLST         564          1.0000000000
      1693       565  TIP3  OH2           1.5332805507       12.2987374491        0.5002195578  CLST         565          1.0000000000
      1694       565  TIP3  H1            1.2397762591       11.4712401942        0.1581702890  CLST         565          1.0000000000
      1695       565  TIP3  H2            2.4278282102       12.2663403150        0.0809968840  CLST         565          1.0000000000
      1696       566  TIP3  OH2          -8.8286019240        5.6698105018        0.9057970821  CLST         566          1.0000000000
      1697       566  TIP3  H1           -8.7479231254        5.0725252666        0.3385686926  CLST         566          1.0000000000
      1698       566  TIP3  H2           -8.9697913890        5.9170072559       -0.1414683750  CLST         566          1.0000000000
      1699       567  TIP3  OH2          12.1327439246        0.0133515508       -8.1713830417  CLST         567          1.0000000000
      1700       567  TIP3  H1           13.0775306592        0.1042096145       -8.1899421323  CLST         567          1.0000000000
      1701       567  TIP3  H2           12.2236138376       -0.4105419211       -9.0728037488  CLST         567          1.0000000000
      1702       568  TIP3  OH2           8.7867611514       -7.2081439763       11.4546207288  CLST         568          1.0000000000
      1703       568  TIP3  H1            9.5251436691       -7.0173852491       12.0717851672  CLST         568          1.0000000000
      1704       568  TIP3  H2            8.9570651643       -6.3380723618       11.1432453527  CLST         568          1.0000000000
      1705       569  TIP3  OH2          -8.5516423688       -6.2148627997        3.6345663732  CLST         569          1.0000000000
      1706       569  TIP3  H1           -8.8494029930       -5.8301773710        2.7695736034  CLST         569          1.0000000000
      1707       569  TIP3  H2           -9.4014519024       -6.6192513272        3.5154211960  CLST         569          1.0000000000
      1708       570  TIP3  OH2           6.1662586792       11.5684040844       14.8666647993  CLST         570          1.0000000000
      1709       570  TIP3  H1            5.3618657801       11.7355850950       14.3232221808  CLST         570          1.0000000000
      1710       570  TIP3  H2            6.5480710255       12.1664848463       14.4146354811  CLST         570          1.0000000000
      1711       571  TIP3  OH2           9.5999232851        0.9537070784        4.5714928818  CLST         571          1.0000000000
      1712       571  TIP3  H1            8.9872918772        1.7005862216        4.3612513449  CLST         571          1.0000000000
      1713       571  TIP3  H2            9.0224010005        0.4165112342        3.8956607397  CLST         571          1.0000000000
      1714       572  TIP3  OH2           5.4172002081        0.3936555968        2.5224667417  CLST         572          1.0000000000
      1715       572  TIP3  H1            5.1539005991       -0.4661698032        2.3508886977  CLST         572          1.0000000000
      1716       572  TIP3  H2            6.2875366669        0.3394119441        2.1464955056  CLST         572          1.0000000000
      1717       573  TIP3  OH2          -2.0311643995       -6.6616667677       -6.6215217513  CLST         573          1.0000000000
      1718       573  TIP3  H1           -1.9554205725       -7.6558386578       -6.6643385735  CLST         573          1.0000000000
      1719       573  TIP3  H2           -1.4357326000       -6.4139266191       -7.3750211157  CLST         573          1.0000000000
      1720       574  TIP3  OH2          -9.7296546425        0.6349063643        9.5860501576  CLST         574          1.0000000000
      1721       574  TIP3  H1           -9.4929261147        1.5331693068        9.4927736036  CLST         574          1.0000000000
      1722       574  TIP3  H2           -9.1879317529        0.5291493117        8.7886452670  CLST         574          1.0000000000
      1723       575  TIP3  OH2          -3.8872051998       10.7442359962        0.9044846651  CLST         575          1.0000000000
      1724       575  TIP3  H1           -3.9708074948       11.4864993461        0.2138341116  CLST         575          1.0000000000
      1725       575  TIP3  H2           -4.7874616013       11.0727320238        1.0664447270  CLST         575          1.0000000000
      1726       576  TIP3  OH2          -3.5703747491       -2.5213102195        6.1641829271  CLST         576          1.0000000000
      1727       576  TIP3  H1           -4.0242614338       -1.6793797898        5.8572401620  CLST         576          1.0000000000
      1728       576  TIP3  H2           -3.3513298903       -2.5211306436        5.1433025900  CLST         576          1.0000000000
      1729       577  TIP3  OH2         -12.0381017807       11.2726436033        8.5934902083  CLST         577          1.0000000000
      1730       577  TIP3  H1          -11.5984106907       12.0226002823        8.9152297790  CLST         577          1.0000000000
      1731       577  TIP3  H2          -11.5977549933       11.1816497208        7.7869508452  CLST         577          1.0000000000
      1732       578  TIP3  OH2          -1.7125834485        0.8980735481        5.1333755690  CLST         578          1.0000000000
      1733       578  TIP3  H1           -2.6493638507        1.2799178841        5.1536325516  CLST         578          1.0000000000
      1734       578  TIP3  H2           -1.8200742503        0.9368928388        6.1191644893  CLST         578          1.0000000000
      1735       579  TIP3  OH2          -6.4119350378       11.6100074697        1.6334317034  CLST         579          1.0000000000
      1736       579  TIP3  H1           -6.8126915840       12.4246770520        1.3480748171  CLST         579          1.0000000000
      1737       579  TIP3  H2           -7.1277250531       11.1349048907        1.1781735889  CLST         579          1.0000000000
      1738       580  TIP3  OH2          10.9580368627        3.6528247786       -3.4263144272  CLST         580          1.0000000000
      1739       580  TIP3  H1           10.6913124578        2.7438502938       -3.3159969516  CLST         580          1.0000000000
      1740       580  TIP3  H2           11.6048948526        3.3953546409       -2.7686663700  CLST         580          1.0000000000
      1741       581  TIP3  OH2          13.3048825649      -11.4527485460        3.5262168936  CLST         581          1.0000000000
      1742       581  TIP3  H1           13.6217469833      -11.6384721857        2.6144378367  CLST         581          1.0000000000
      1743       581  TIP3  H2           14.1959439565      -11.8241521915        3.7793405317  CLST         581          1.0000000000
      1744       582  TIP3  OH2           6.2840344559       10.7866362475       -6.8588510522  CLST         582          1.0000000000
      1745       582  TIP3  H1            5.5126242852       10.3751473310       -6.4097597432  CLST         582          1.0000000000
      1746       582  TIP3  H2            6.5349123374       11.0576578875       -5.9262927360  CLST         582          1.0000000000
      1747       583  TIP3  OH2          -2.6835628518        4.5944429895      -11.1394026240  CLST         583          1.0000000000
      1748       583  TIP3  H1           -2.8806845621        3.5717484360      -11.4336334961  CLST         583          1.0000000000
      1749       583  TIP3  H2           -1.8676393727        3.9120979571      -11.6191837951  CLST         583          1.0000000000
      1750       584  TIP3  OH2           2.2529924487       -4.0703407678       -9.9321553827  CLST         584          1.0000000000
      1751       584  TIP3  H1            3.0127564115       -4.3973836640      -10.4248710154  CLST         584          1.0000000000
      1752       584  TIP3  H2            2.8877866340       -3.3233372746       -9.8383529793  CLST         584          1.0000000000
      1753       585  TIP3  OH2         -13.6550388603        1.0387289821       -2.1475692636  CLST         585          1.0000000000
      1754       585  TIP3  H1          -13.5747557417        1.7975570052       -2.7679718516  CLST         585          1.0000000000
      1755       585  TIP3  H2          -14.2313455638        0.5178637919       -2.7197377377  CLST         585          1.0000000000
      1756       586  TIP3  OH2          -7.4788189184        8.3736862357       10.3599640564  CLST         586          1.0000000000
      1757       586  TIP3  H1           -7.1472500017        8.7583403511        9.5594069567  CLST         586          1.0000000000
      1758       586  TIP3  H2           -7.0584247764        7.6202406626        9.9962352171  CLST         586          1.0000000000
      1759       587  TIP3  OH2           4.4115219442        4.3460041355       -9.8121896578  CLST         587          1.0000000000
      1760       587  TIP3  H1            3.4018026395        4.4053271672       -9.7252307157  CLST         587          1.0000000000
      1761       587  TIP3  H2            4.1004786831        4.4541640744      -10.7562217213  CLST         587          1.0000000000
      1762       588  TIP3  OH2           5.2144580893       -9.7775351137      -14.0923494193  CLST         588          1.0000000000
      1763       588  TIP3  H1            4.6654226409       -9.9485028471      -14.8666647993  CLST         588          1.0000000000
      1764       588  TIP3  H2            4.6092375447       -9.5662383114      -13.4128705165  CLST         588          1.0000000000
      1765       589  TIP3  OH2           0.1714561717      -14.1196174156        3.1729652931  CLST         589          1.0000000000
      1766       589  TIP3  H1           -0.4282708454      -14.8566271383        3.1653603757  CLST         589          1.0000000000
      1767       589  TIP3  H2           -0.4645149318      -13.8458222352        3.8738468826  CLST         589          1.0000000000
      1768       590  TIP3  OH2           2.3732392181        1.9829473142       -8.3132905147  CLST         590          1.0000000000
      1769       590  TIP3  H1            1.6760762505        2.7044057672       -7.9189279853  CLST         590          1.0000000000
      1770       590  TIP3  H2            1.9829485065        2.8213920620       -8.9812642760  CLST         590          1.0000000000
      1771       591  TIP3  OH2         -12.9015847817        1.0509082652       -6.6046401118  CLST         591          1.0000000000
      1772       591  TIP3  H1          -11.9458272288        1.1305545892       -6.3293423910  CLST         591          1.0000000000
      1773       591  TIP3  H2          -13.1258242492        1.8951549211       -6.3243510333  CLST         591          1.0000000000
      1774       592  TIP3  OH2          -4.1489240270       -3.6552087849       -6.1944449326  CLST         592          1.0000000000
      1775       592  TIP3  H1           -3.3850125487       -3.8787617139       -6.7619600123  CLST         592          1.0000000000
      1776       592  TIP3  H2           -4.6959439054       -4.2446996437       -6.7890805027  CLST         592          1.0000000000
      1777       593  TIP3  OH2          -1.5238626937        5.4181721311       -4.9135515022  CLST         593          1.0000000000
      1778       593  TIP3  H1           -0.7417613873        5.9652407849       -4.6089405159  CLST         593          1.0000000000
      1779       593  TIP3  H2           -0.9570274081        5.3257904521       -5.6922986926  CLST         593          1.0000000000
      1780       594  TIP3  OH2          11.3426830703       10.2605578507       13.5419594309  CLST         594          1.0000000000
      1781       594  TIP3  H1           11.4475090146        9.6896984745       14.2946378239  CLST         594          1.0000000000
      1782       594  TIP3  H2           10.3518388440       10.2956856092       13.4070862389  CLST         594          1.0000000000
      1783       595  TIP3  OH2          -9.0630046389       13.4735184553        4.3288669575  CLST         595          1.0000000000
      1784       595  TIP3  H1           -9.8378316126       13.8785116374        3.9736155154  CLST         595          1.0000000000
      1785       595  TIP3  H2           -9.2646830583       12.6707568965        3.8808901451  CLST         595          1.0000000000
      1786       596  TIP3  OH2         -14.0338944345       -0.8358746286        8.9910949856  CLST         596          1.0000000000
      1787       596  TIP3  H1          -13.8511204849       -1.6645611553        9.4404127732  CLST         596          1.0000000000
      1788       596  TIP3  H2          -13.4249882206       -0.9838542710        8.2531768385  CLST         596          1.0000000000
      1789       597  TIP3  OH2          -3.0000859258       -5.2482050479       -4.3324708061  CLST         597          1.0000000000
      1790       597  TIP3  H1           -2.6173527051       -5.6100604331       -5.1356004722  CLST         597          1.0000000000
      1791       597  TIP3  H2           -3.2504992768       -4.5134132151       -4.8990622939  CLST         597          1.0000000000
      1792       598  TIP3  OH2          -8.2497236918       -9.6508097431       -9.1967086931  CLST         598          1.0000000000
      1793       598  TIP3  H1           -8.9844330384      -10.2194693717       -8.8316153816  CLST         598          1.0000000000
      1794       598  TIP3  H2           -8.8588427821       -9.4686793646       -9.9749766611  CLST         598          1.0000000000
      1795       599  TIP3  OH2          11.7829704137        0.1494310117      -13.0078263265  CLST         599          1.0000000000
      1796       599  TIP3  H1           12.1345588952        1.0625962899      -13.1384443473  CLST         599          1.0000000000
      1797       599  TIP3  H2           11.5493640031       -0.1171842261      -13.8437893398  CLST         599          1.0000000000
      1798       600  TIP3  OH2          14.1316319555       -9.4294499558        1.7746188703  CLST         600          1.0000000000
      1799       600  TIP3  H1           14.8195894041       -9.9912697828        1.6428182540  CLST         600          1.0000000000
      1800       600  TIP3  H2           13.6316468278      -10.0771649679        1.2593142869  CLST         600          1.0000000000
      1801       601  TIP3  OH2          -2.1586386926       13.3689816570       -8.3078782257  CLST         601          1.0000000000
      1802       601  TIP3  H1           -1.3802158431       13.7525356826       -7.8682756913  CLST         601          1.0000000000
      1803       601  TIP3  H2           -1.7890363061       13.9233011130       -9.0241829538  CLST         601          1.0000000000
      1804       602  TIP3  OH2          13.5952758589       -3.3920983697        8.6581654934  CLST         602          1.0000000000
      1805       602  TIP3  H1           13.1553605768       -2.9052938674        7.9479251825  CLST         602          1.0000000000
      1806       602  TIP3  H2           14.2634674694       -3.5435440604        7.9653202547  CLST         602          1.0000000000
      1807       603  TIP3  OH2          -8.2081375822       -9.4570836526      -12.1374976990  CLST         603          1.0000000000
      1808       603  TIP3  H1           -8.9952880240       -8.9509872038      -12.0378963748  CLST         603          1.0000000000
      1809       603  TIP3  H2           -8.6958439203      -10.2857186558      -11.9556325483  CLST         603          1.0000000000
      1810       604  TIP3  OH2           0.0420096079       -7.7881806451       12.2487238948  CLST         604          1.0000000000
      1811       604  TIP3  H1            0.5202084303       -6.9318158939       11.9337370043  CLST         604          1.0000000000
      1812       604  TIP3  H2            0.7773935991       -7.8587620786       12.8631778428  CLST         604          1.0000000000
      1813       605  TIP3  OH2          10.0760426447        8.2056515814        3.8359643557  CLST         605          1.0000000000
      1814       605  TIP3  H1            9.2368972631        8.5150206180        3.3266343429  CLST         605          1.0000000000
      1815       605  TIP3  H2           10.3188362150        9.0416996138        3.4756764023  CLST         605          1.0000000000
      1816       606  TIP3  OH2           0.9645587172        8.7385041407       -6.3475928732  CLST         606          1.0000000000
      1817       606  TIP3  H1            1.5025914242        9.4892170418       -6.1098303757  CLST         606          1.0000000000
      1818       606  TIP3  H2            0.2815136089        9.1408426923       -5.8717347805  CLST         606          1.0000000000
      1819       607  TIP3  OH2          -4.8508259650        1.4119582571      -13.9057051637  CLST         607          1.0000000000
      1820       607  TIP3  H1           -5.9504860616        1.0137226025      -13.9405349056  CLST         607          1.0000000000
      1821       607  TIP3  H2           -5.2578107162        1.1737281958      -14.7245210577  CLST         607          1.0000000000
      1822       608  TIP3  OH2          -2.5944494685       -0.4269057535      -11.4297495574  CLST         608          1.0000000000
      1823       608  TIP3  H1           -1.8024641722        0.0433984516      -11.1797674086  CLST         608          1.0000000000
      1824       608  TIP3  H2           -2.5249402209       -0.0285315994      -12.2520757964  CLST         608          1.0000000000
      1825       609  TIP3  OH2           4.0155413695        8.3934744362        2.9230737900  CLST         609          1.0000000000
      1826       609  TIP3  H1            4.4320406895        8.6063053801        3.7917871988  CLST         609          1.0000000000
      1827       609  TIP3  H2            4.3755540533        7.5257748523        3.1605592662  CLST         609          1.0000000000
      1828       610  TIP3  OH2          -7.8246069197       -8.8755906151       11.4067041384  CLST         610          1.0000000000
      1829       610  TIP3  H1           -7.0612492169       -9.3410483841       11.0000435859  CLST         610          1.0000000000
      1830       610  TIP3  H2           -7.3863241342       -8.0970208897       10.9854464527  CLST         610          1.0000000000
      1831       611  TIP3  OH2          13.7769746008       -4.3066974112        6.3535462918  CLST         611          1.0000000000
      1832       611  TIP3  H1           14.2951637576       -5.0070090743        5.9177900927  CLST         611          1.0000000000
      1833       611  TIP3  H2           13.8140830263       -3.9142269598        5.4494213661  CLST         611          1.0000000000
      1834       612  TIP3  OH2          -8.9705222391      -10.8008075771        6.2763624312  CLST         612          1.0000000000
      1835       612  TIP3  H1           -8.1722631366      -10.3257753998        5.9065890560  CLST         612          1.0000000000
      1836       612  TIP3  H2           -9.3665918938       -9.9878750041        5.8467945332  CLST         612          1.0000000000
      1837       613  TIP3  OH2           2.5110768044       -2.2427861943       14.2324397471  CLST         613          1.0000000000
      1838       613  TIP3  H1            2.4582381866       -3.0320996432       13.6624098642  CLST         613          1.0000000000
      1839       613  TIP3  H2            1.6045398560       -1.9965361163       13.9323357261  CLST         613          1.0000000000
      1840       614  TIP3  OH2           1.5131021657        4.5366424787       -9.1750421130  CLST         614          1.0000000000
      1841       614  TIP3  H1            1.4474280884        5.0188971523       -8.3101776708  CLST         614          1.0000000000
      1842       614  TIP3  H2            1.3532016671        5.4300513768       -9.4837831975  CLST         614          1.0000000000
      1843       615  TIP3  OH2           1.4289926836        4.4676479854        7.3071367943  CLST         615          1.0000000000
      1844       615  TIP3  H1            1.7454796699        5.1545148284        7.9100174761  CLST         615          1.0000000000
      1845       615  TIP3  H2            1.9713502189        4.8343545702        6.6335311444  CLST         615          1.0000000000
      1846       616  TIP3  OH2          -7.8369031610        4.1933988945       -7.2628122435  CLST         616          1.0000000000
      1847       616  TIP3  H1           -8.0441519372        3.6852371198       -8.0662007965  CLST         616          1.0000000000
      1848       616  TIP3  H2           -7.2767733423        4.6115201325       -7.9427262844  CLST         616          1.0000000000
      1849       617  TIP3  OH2          14.8666647993        2.2210381156       11.8014273681  CLST         617          1.0000000000
      1850       617  TIP3  H1           14.7122486844        1.3543199101       12.5583381461  CLST         617          1.0000000000
      1851       617  TIP3  H2           13.9152201147        2.2358104725       12.2122215175  CLST         617          1.0000000000
      1852       618  TIP3  OH2          -7.0839994892        3.2995684594        2.5749926370  CLST         618          1.0000000000
      1853       618  TIP3  H1           -6.8124332328        4.1508330751        2.2092051803  CLST         618          1.0000000000
      1854       618  TIP3  H2           -6.6194025591        3.4691268081        3.3970982240  CLST         618          1.0000000000
      1855       619  TIP3  OH2           1.2243728769        5.1604965876       -2.3820797780  CLST         619          1.0000000000
      1856       619  TIP3  H1            0.4337812263        4.6616166662       -2.5792179750  CLST         619          1.0000000000
      1857       619  TIP3  H2            0.7177281864        5.9993892971       -2.5012737896  CLST         619          1.0000000000
      1858       620  TIP3  OH2          -3.2884064963        8.5051092403       -5.8891001669  CLST         620          1.0000000000
      1859       620  TIP3  H1           -3.3704697650        7.8169980891       -5.2415817328  CLST         620          1.0000000000
      1860       620  TIP3  H2           -3.4072832847        8.0210026716       -6.6840439245  CLST         620          1.0000000000
      1861       621  TIP3  OH2           0.9461522945        7.1662500101       -8.7087245108  CLST         621          1.0000000000
      1862       621  TIP3  H1            1.1183029591        7.8384684214       -7.9962911022  CLST         621          1.0000000000
      1863       621  TIP3  H2            0.9298362945        7.9168322591       -9.3750891501  CLST         621          1.0000000000
      1864       622  TIP3  OH2           1.7838644385       10.6316896972        3.6001652277  CLST         622          1.0000000000
      1865       622  TIP3  H1            2.3757097805       10.3018219875        4.3295447387  CLST         622          1.0000000000
      1866       622  TIP3  H2            1.1315930050       10.1245278835        4.2263993337  CLST         622          1.0000000000
      1867       623  TIP3  OH2          -0.2001632133       12.1560754229        2.6953041510  CLST         623          1.0000000000
      1868       623  TIP3  H1            0.8572615984       12.0723301735        2.2661790085  CLST         623          1.0000000000
      1869       623  TIP3  H2            0.6039769339       11.9598992091        3.2759213523  CLST         623          1.0000000000
      1870       624  TIP3  OH2          -8.6681654958       -1.7400402027       -3.8319357140  CLST         624          1.0000000000
      1871       624  TIP3  H1           -8.4223813151       -1.3237998296       -4.6881502367  CLST         624          1.0000000000
      1872       624  TIP3  H2           -9.1212067854       -0.8885756695       -3.8046612391  CLST         624          1.0000000000
      1873       625  TIP3  OH2          -9.4236572767      -12.7037775738       -9.0431649801  CLST         625          1.0000000000
      1874       625  TIP3  H1           -9.9629660419      -12.3743972068       -8.3108605543  CLST         625          1.0000000000
      1875       625  TIP3  H2           -9.1720485554      -13.3165038037       -8.3415365399  CLST         625          1.0000000000
      1876       626  TIP3  OH2          12.9937321331       -5.4974337415       -2.7045638917  CLST         626          1.0000000000
      1877       626  TIP3  H1           12.4108564702       -6.0540872502       -3.1807414872  CLST         626          1.0000000000
      1878       626  TIP3  H2           13.3990687445       -5.3798800581       -3.5784615732  CLST         626          1.0000000000
      1879       627  TIP3  OH2          -0.9858796491      -11.4277855154        7.8881711321  CLST         627          1.0000000000
      1880       627  TIP3  H1           -0.0681363191      -11.3087310925        8.1442052285  CLST         627          1.0000000000
      1881       627  TIP3  H2           -0.7230141339      -12.3318118062        7.9944729208  CLST         627          1.0000000000
      1882       628  TIP3  OH2           6.9928667524        8.9955330359       -9.1417064106  CLST         628          1.0000000000
      1883       628  TIP3  H1            6.3843481976        9.7341223137       -9.2987825980  CLST         628          1.0000000000
      1884       628  TIP3  H2            7.0379699961        9.3766165444       -8.2929607732  CLST         628          1.0000000000
      1885       629  TIP3  OH2          -9.9067755922       -0.2722053492       -9.7139845808  CLST         629          1.0000000000
      1886       629  TIP3  H1           -9.3086126533        0.4902579082      -10.2614332216  CLST         629          1.0000000000
      1887       629  TIP3  H2           -9.0664105245       -0.4612285365       -9.8342390045  CLST         629          1.0000000000
      1888       630  TIP3  OH2          11.7933270688       12.0123531192       11.6118858568  CLST         630          1.0000000000
      1889       630  TIP3  H1           11.1401974472       12.7588963126       11.6704089341  CLST         630          1.0000000000
      1890       630  TIP3  H2           10.9817677616       11.5139333175       11.8303122561  CLST         630          1.0000000000
      1891       631  TIP3  OH2         -12.0332594867      -11.4504186277      -11.4096011981  CLST         631          1.0000000000
      1892       631  TIP3  H1          -13.0981429966      -10.9804765410      -11.5398422868  CLST         631          1.0000000000
      1893       631  TIP3  H2          -12.4270019743      -11.1943653886      -12.4345641092  CLST         631          1.0000000000
      1894       632  TIP3  OH2          10.9597471232        2.2809860335        9.3817361338  CLST         632          1.0000000000
      1895       632  TIP3  H1           11.4693106795        1.4220144516        9.7400981560  CLST         632          1.0000000000
      1896       632  TIP3  H2           11.4117252311        1.3698420834        8.7534878298  CLST         632          1.0000000000
      1897       633  TIP3  OH2          -4.4328267135        6.3777575424       10.5728969308  CLST         633          1.0000000000
      1898       633  TIP3  H1           -4.2680900109        5.3911982674       10.7726712328  CLST         633          1.0000000000
      1899       633  TIP3  H2           -5.0851045735        6.0196304080        9.9231098021  CLST         633          1.0000000000
      1900       634  TIP3  OH2          -2.5679782217       -7.1099305799        6.6310321051  CLST         634          1.0000000000
      1901       634  TIP3  H1           -2.4504773365       -7.9423262590        7.1911214438  CLST         634          1.0000000000
      1902       634  TIP3  H2           -2.1508970542       -6.6463057920        7.3833945878  CLST         634          1.0000000000
      1903       635  TIP3  OH2           2.5804366409        2.5682549356       -2.0633138622  CLST         635          1.0000000000
      1904       635  TIP3  H1            2.3150525079        3.4162778440       -2.5965674646  CLST         635          1.0000000000
      1905       635  TIP3  H2            2.3742763802        2.2687119632       -2.9603830214  CLST         635          1.0000000000
      1906       636  TIP3  OH2           5.0926128817       -2.5596390509      -10.1170439302  CLST         636          1.0000000000
      1907       636  TIP3  H1            4.7798641653       -2.0203629176      -10.8854276594  CLST         636          1.0000000000
      1908       636  TIP3  H2            5.0619792402       -1.6768851300       -9.7095169123  CLST         636          1.0000000000
      1909       637  TIP3  OH2           3.7212178820       11.0236719826      -10.6869389467  CLST         637          1.0000000000
      1910       637  TIP3  H1            4.2341540630       11.4840002961      -10.0251870309  CLST         637          1.0000000000
      1911       637  TIP3  H2            3.5249605949       10.4318105016       -9.9028764160  CLST         637          1.0000000000
      1912       638  TIP3  OH2           9.0780886541      -11.9307531925       -7.1647658912  CLST         638          1.0000000000
      1913       638  TIP3  H1            8.8848091447      -12.3680868343       -8.0205735415  CLST         638          1.0000000000
      1914       638  TIP3  H2            9.5666350468      -11.7624481767       -7.8440397244  CLST         638          1.0000000000
      1915       639  TIP3  OH2           7.4652919658      -13.3393282246       -9.0360275283  CLST         639          1.0000000000
      1916       639  TIP3  H1            6.5112967158      -13.4261129472       -9.0872226012  CLST         639          1.0000000000
      1917       639  TIP3  H2            7.3928906529      -14.3266416211       -8.9530648717  CLST         639          1.0000000000
      1918       640  TIP3  OH2          -9.9645734972       -2.9356236611      -10.1806377650  CLST         640          1.0000000000
      1919       640  TIP3  H1           -9.1390071937       -2.7605734569       -9.4201202905  CLST         640          1.0000000000
      1920       640  TIP3  H2          -10.1573777607       -2.5491764517       -9.1583122518  CLST         640          1.0000000000
      1921       641  TIP3  OH2         -13.7034300137       -2.6687077854      -12.9693629540  CLST         641          1.0000000000
      1922       641  TIP3  H1          -13.1919194162       -3.5600916726      -12.8853222124  CLST         641          1.0000000000
      1923       641  TIP3  H2          -12.7633278991       -2.5166673500      -12.9139879841  CLST         641          1.0000000000
      1924       642  TIP3  OH2          -2.0688617869        1.5562971320       11.0535515001  CLST         642          1.0000000000
      1925       642  TIP3  H1           -1.2429560728        1.5526406737       11.6174298952  CLST         642          1.0000000000
      1926       642  TIP3  H2           -2.5720444693        1.3991861559       11.8642005841  CLST         642          1.0000000000
      1927       643  TIP3  OH2         -14.0889878792       -2.7882146601        3.3062980034  CLST         643          1.0000000000
      1928       643  TIP3  H1          -14.2467546203       -1.7445577899        3.7467010352  CLST         643          1.0000000000
      1929       643  TIP3  H2          -14.8121961187       -2.4316381004        3.5455839484  CLST         643          1.0000000000
      1930       644  TIP3  OH2          12.7635336125       -2.6327720865        0.9933359826  CLST         644          1.0000000000
      1931       644  TIP3  H1           13.2684823082       -1.8375339437        1.0588718012  CLST         644          1.0000000000
      1932       644  TIP3  H2           13.3947753505       -3.1630266905        0.4744360622  CLST         644          1.0000000000
      1933       645  TIP3  OH2          -6.6380375821        6.2038598277        8.9735672015  CLST         645          1.0000000000
      1934       645  TIP3  H1           -7.0558279359        6.2317457447        8.1241939293  CLST         645          1.0000000000
      1935       645  TIP3  H2           -6.5530009833        5.2388647930        8.8604604271  CLST         645          1.0000000000
      1936       646  TIP3  OH2           7.0773879628      -11.1178852697       12.0637236773  CLST         646          1.0000000000
      1937       646  TIP3  H1            6.1960929137      -11.5028828036       12.1122755011  CLST         646          1.0000000000
      1938       646  TIP3  H2            7.3998654800      -11.9225374060       11.6100319395  CLST         646          1.0000000000
      1939       647  TIP3  OH2         -12.9556945891       -9.2493356848       -7.3828535300  CLST         647          1.0000000000
      1940       647  TIP3  H1          -13.5760003334       -9.2080753799       -6.5590911266  CLST         647          1.0000000000
      1941       647  TIP3  H2          -12.3098092975       -9.4551919266       -6.6645880289  CLST         647          1.0000000000
      1942       648  TIP3  OH2         -13.9567001167        3.4603572552       -6.4052241775  CLST         648          1.0000000000
      1943       648  TIP3  H1          -14.7969402308        3.8611788392       -6.2414562526  CLST         648          1.0000000000
      1944       648  TIP3  H2          -13.8797029575        3.4255275036       -5.4027715317  CLST         648          1.0000000000
      1945       649  TIP3  OH2          -1.8290810805       -3.4411283869       -7.4527282957  CLST         649          1.0000000000
      1946       649  TIP3  H1           -1.0504655325       -2.9735715168       -7.7552743495  CLST         649          1.0000000000
      1947       649  TIP3  H2           -1.1994034001       -4.1815978686       -7.5854481360  CLST         649          1.0000000000
      1948       650  TIP3  OH2          -4.5864684010       -3.3353375117      -11.6771698259  CLST         650          1.0000000000
      1949       650  TIP3  H1           -3.7198533027       -2.9383054614      -11.4283160197  CLST         650          1.0000000000
      1950       650  TIP3  H2           -4.7784097573       -2.4976026885      -11.1455377096  CLST         650          1.0000000000
      1951       651  TIP3  OH2           0.8590491905       -4.0227651755       13.8580932342  CLST         651          1.0000000000
      1952       651  TIP3  H1           -0.0572486748       -4.4404494112       13.9076809866  CLST         651          1.0000000000
      1953       651  TIP3  H2            0.8819585367       -4.0562353550       14.8666647993  CLST         651          1.0000000000
      1954       652  TIP3  OH2           1.8543677774       -8.9330134054       10.0751662302  CLST         652          1.0000000000
      1955       652  TIP3  H1            1.6724300246       -8.3221080540       10.8020756340  CLST         652          1.0000000000
      1956       652  TIP3  H2            1.9636134881       -8.1516866840        9.4792603455  CLST         652          1.0000000000
      1957       653  TIP3  OH2          13.4443549059        1.2032571521       -2.5956690936  CLST         653          1.0000000000
      1958       653  TIP3  H1           12.4798429104        0.9101771281       -2.8204159319  CLST         653          1.0000000000
      1959       653  TIP3  H2           13.3791021796        1.3696205608       -3.5348934630  CLST         653          1.0000000000
      1960       654  TIP3  OH2          -5.8837256847        9.0576532361       12.9956815724  CLST         654          1.0000000000
      1961       654  TIP3  H1           -5.0095999601        9.4117371246       13.0880737551  CLST         654          1.0000000000
      1962       654  TIP3  H2           -5.7434397963        8.3957048202       12.3011310941  CLST         654          1.0000000000
      1963       655  TIP3  OH2          -4.1447804132        1.2896639529       12.7408828191  CLST         655          1.0000000000
      1964       655  TIP3  H1           -4.3744935662        0.4207370878       12.3641214559  CLST         655          1.0000000000
      1965       655  TIP3  H2           -4.8106804303        1.0519208903       13.3451564731  CLST         655          1.0000000000
      1966       656  TIP3  OH2         -14.0019951414       -4.3087630452      -10.5540892993  CLST         656          1.0000000000
      1967       656  TIP3  H1          -14.8460864706       -3.7788681893      -11.2207577326  CLST         656          1.0000000000
      1968       656  TIP3  H2          -14.4404028699       -4.7167379024      -11.4591714410  CLST         656          1.0000000000
      1969       657  TIP3  OH2           4.5320070283       -1.1197991945        5.0829042214  CLST         657          1.0000000000
      1970       657  TIP3  H1            5.1635853730       -0.4050519748        5.3424534797  CLST         657          1.0000000000
      1971       657  TIP3  H2            3.9428757864       -0.3648435401        5.2322765247  CLST         657          1.0000000000
      1972       658  TIP3  OH2         -13.9313221005       -7.2476666339       -4.7528217001  CLST         658          1.0000000000
      1973       658  TIP3  H1          -13.6930954741       -6.4917764690       -5.2668372281  CLST         658          1.0000000000
      1974       658  TIP3  H2          -14.8666647993       -7.0477900353       -5.0313507920  CLST         658          1.0000000000
      1975       659  TIP3  OH2           9.4526060568      -13.0677529119        9.7485541188  CLST         659          1.0000000000
      1976       659  TIP3  H1            9.0893969654      -12.5635765361        9.0269575010  CLST         659          1.0000000000
      1977       659  TIP3  H2            8.6057732809      -13.6303470635        9.9075493768  CLST         659          1.0000000000
      1978       660  TIP3  OH2         -14.3233100248       -9.1024001302        6.5407090412  CLST         660          1.0000000000
      1979       660  TIP3  H1          -14.8666647993       -9.8027773796        7.0015551307  CLST         660          1.0000000000
      1980       660  TIP3  H2          -13.6175543881       -9.1471508159        7.2325025205  CLST         660          1.0000000000
      1981       661  TIP3  OH2           2.9574905459        1.1637429639       -4.5077493989  CLST         661          1.0000000000
      1982       661  TIP3  H1            2.5318959573        1.8899713931       -5.0222883147  CLST         661          1.0000000000
      1983       661  TIP3  H2            2.3716625580        0.4235078033       -4.5565793991  CLST         661          1.0000000000
      1984       662  TIP3  OH2          -8.7295675514       -5.0465956837        1.1037983742  CLST         662          1.0000000000
      1985       662  TIP3  H1           -9.3593031209       -5.4920221866        0.5074699839  CLST         662          1.0000000000
      1986       662  TIP3  H2           -9.3898553436       -4.2336622402        0.9506233096  CLST         662          1.0000000000
      1987       663  TIP3  OH2           6.0296667205       -2.1138755328        3.2056366274  CLST         663          1.0000000000
      1988       663  TIP3  H1            5.4659208830       -1.7981312440        3.8639722840  CLST         663          1.0000000000
      1989       663  TIP3  H2            5.7805886447       -3.0337196833        3.2757221481  CLST         663          1.0000000000
      1990       664  TIP3  OH2          10.5684640827      -14.0848148508        2.5788746519  CLST         664          1.0000000000
      1991       664  TIP3  H1           10.0113001887      -13.4346403777        2.9714249882  CLST         664          1.0000000000
      1992       664  TIP3  H2           10.2263854260      -14.8666647993        2.9575187068  CLST         664          1.0000000000
      1993       665  TIP3  OH2           9.3934357320       10.5530683460      -13.8158527894  CLST         665          1.0000000000
      1994       665  TIP3  H1            8.8581867118        9.8360381441      -13.9438712580  CLST         665          1.0000000000
      1995       665  TIP3  H2            8.9361417825       10.3748553135      -14.8666647993  CLST         665          1.0000000000
      1996       666  TIP3  OH2         -11.4565561062       -7.8751801720       -8.9501386344  CLST         666          1.0000000000
      1997       666  TIP3  H1          -11.4683459094       -7.1561116091       -8.3052515801  CLST         666          1.0000000000
      1998       666  TIP3  H2          -12.2670349272       -8.1497712186       -8.4868867265  CLST         666          1.0000000000
      1999       667  TIP3  OH2         -11.0042750447        5.3581779816        7.9252314750  CLST         667          1.0000000000
      2000       667  TIP3  H1          -11.2664539365        4.6709525637        8.4303273557  CLST         667          1.0000000000
      2001       667  TIP3  H2          -10.7135859505        5.9468045089        8.6207625100  CLST         667          1.0000000000
      2002       668  TIP3  OH2         -12.4174817751       -0.1201909076       -0.0547291058  CLST         668          1.0000000000
      2003       668  TIP3  H1          -12.7194027953        0.5785099312        0.6345536259  CLST         668          1.0000000000
      2004       668  TIP3  H2          -13.1390762536        0.0841963583       -0.5489540708  CLST         668          1.0000000000
      2005       669  TIP3  OH2          -3.5660995500      -11.6695919737        5.2526678089  CLST         669          1.0000000000
      2006       669  TIP3  H1           -3.9598875620      -11.8629347835        4.3749749936  CLST         669          1.0000000000
      2007       669  TIP3  H2           -3.6751354493      -10.7703106525        4.8182049860  CLST         669          1.0000000000
      2008       670  TIP3  OH2          -6.3356974113       -2.4604919900        1.4196735481  CLST         670          1.0000000000
      2009       670  TIP3  H1           -7.2475129973       -2.1345872316        1.3502853970  CLST         670          1.0000000000
      2010       670  TIP3  H2           -6.2709030037       -2.1842341525        0.4778496846  CLST         670          1.0000000000
      2011       671  TIP3  OH2           4.1662622808       -9.3070004298      -11.0489366858  CLST         671          1.0000000000
      2012       671  TIP3  H1            3.6988889920       -9.2074996120      -10.2303666402  CLST         671          1.0000000000
      2013       671  TIP3  H2            5.0146886456       -8.8450039280      -11.1454143613  CLST         671          1.0000000000
      2014       672  TIP3  OH2          11.9963756373      -12.8002967008        9.0052389442  CLST         672          1.0000000000
      2015       672  TIP3  H1           11.2608080593      -12.9217940625        9.6487920868  CLST         672          1.0000000000
      2016       672  TIP3  H2           12.4795798589      -13.1466165240        9.7664802696  CLST         672          1.0000000000
      2017       673  TIP3  OH2           6.9247121264       -4.4246548320        7.0496522951  CLST         673          1.0000000000
      2018       673  TIP3  H1            7.4135316633       -3.5933917655        6.9727232369  CLST         673          1.0000000000
      2019       673  TIP3  H2            7.5955429341       -4.7378338149        7.6879098974  CLST         673          1.0000000000
      2020       674  TIP3  OH2          -4.1462964787       -0.8802111594        3.0022038552  CLST         674          1.0000000000
      2021       674  TIP3  H1           -3.6439001617       -1.8002723316        3.0382447374  CLST         674          1.0000000000
      2022       674  TIP3  H2           -3.9562270303       -1.2785803818        2.3192171037  CLST         674          1.0000000000
      2023       675  TIP3  OH2          -9.4634363679        2.4641839203       -3.5905300284  CLST         675          1.0000000000
      2024       675  TIP3  H1           -8.8058447857        1.9268662917       -3.1271935771  CLST         675          1.0000000000
      2025       675  TIP3  H2           -9.9548015226        2.2287266658       -2.7242222037  CLST         675          1.0000000000
      2026       676  TIP3  OH2         -13.7537185945       -0.0602017898      -13.2925636674  CLST         676          1.0000000000
      2027       676  TIP3  H1          -14.2026083698       -0.9767392204      -13.1180849083  CLST         676          1.0000000000
      2028       676  TIP3  H2          -13.2664335941       -0.4419267798      -12.5103903786  CLST         676          1.0000000000
      2029       677  TIP3  OH2           2.0165797247      -11.7794284912        2.2822532475  CLST         677          1.0000000000
      2030       677  TIP3  H1            2.0463663250      -11.7576207963        1.3012707046  CLST         677          1.0000000000
      2031       677  TIP3  H2            1.7390423591      -12.6711214011        2.2293783740  CLST         677          1.0000000000
      2032       678  TIP3  OH2          11.2181407908       -7.1348981423       -8.4164941832  CLST         678          1.0000000000
      2033       678  TIP3  H1           12.1053455977       -7.3885824223       -8.8449120883  CLST         678          1.0000000000
      2034       678  TIP3  H2           11.8942254553       -6.2257971347       -8.6432985179  CLST         678          1.0000000000
      2035       679  TIP3  OH2           7.3774232436       -9.9667351821      -14.1058862206  CLST         679          1.0000000000
      2036       679  TIP3  H1            6.8670805917       -9.2772510835      -14.5694731636  CLST         679          1.0000000000
      2037       679  TIP3  H2            6.7124386941      -10.6030874549      -14.2406610977  CLST         679          1.0000000000
      2038       680  TIP3  OH2           9.8308187682       -7.9567639840       -1.7071104995  CLST         680          1.0000000000
      2039       680  TIP3  H1           10.0342815561       -8.9121562096       -1.8099356787  CLST         680          1.0000000000
      2040       680  TIP3  H2            9.4837543109       -7.9816971244       -2.6090799033  CLST         680          1.0000000000
      2041       681  TIP3  OH2           7.5360226793        9.2141946942       11.0261839693  CLST         681          1.0000000000
      2042       681  TIP3  H1            7.8643543544        8.6899078978       10.2544845770  CLST         681          1.0000000000
      2043       681  TIP3  H2            8.4594561318        9.1766868306       11.2462952683  CLST         681          1.0000000000
      2044       682  TIP3  OH2           7.4792719945       14.2758832196        1.6974270183  CLST         682          1.0000000000
      2045       682  TIP3  H1            6.7756108596       14.1943739576        1.0484863820  CLST         682          1.0000000000
      2046       682  TIP3  H2            6.9928787407       14.7132434114        2.3239593114  CLST         682          1.0000000000
      2047       683  TIP3  OH2           3.3715613021       11.8495893867      -14.8666647993  CLST         683          1.0000000000
      2048       683  TIP3  H1            3.2350692653       11.9818244533      -13.8831932117  CLST         683          1.0000000000
      2049       683  TIP3  H2            3.3741754343       10.9215293809      -14.5588420590  CLST         683          1.0000000000
      2050       684  TIP3  OH2          12.4702699354        2.8862578565      -12.7395866546  CLST         684          1.0000000000
      2051       684  TIP3  H1           11.9215661522        2.8284003691      -11.9561817899  CLST         684          1.0000000000
      2052       684  TIP3  H2           13.1712548065        2.9280143513      -12.0537782447  CLST         684          1.0000000000
      2053       685  TIP3  OH2           4.2539212551       13.5197945875        2.2623096884  CLST         685          1.0000000000
      2054       685  TIP3  H1            4.2648216082       12.5285680216        2.0852382090  CLST         685          1.0000000000
      2055       685  TIP3  H2            3.6511753353       13.5604151362        1.5422326882  CLST         685          1.0000000000
      2056       686  TIP3  OH2          -1.6782279613      -11.8891050926       -5.6382707116  CLST         686          1.0000000000
      2057       686  TIP3  H1           -1.9316475799      -11.8700192505       -4.7155632902  CLST         686          1.0000000000
      2058       686  TIP3  H2           -2.3138642737      -12.6304300345       -5.7375976448  CLST         686          1.0000000000
      2059       687  TIP3  OH2           2.5449544263       10.8102879245       -5.5904406927  CLST         687          1.0000000000
      2060       687  TIP3  H1            2.3102251455       11.1563789090       -4.6972298012  CLST         687          1.0000000000
      2061       687  TIP3  H2            3.3337352106       11.2757330074       -5.3163316788  CLST         687          1.0000000000
      2062       688  TIP3  OH2          -4.8552717562       -0.9375740170      -10.3402503987  CLST         688          1.0000000000
      2063       688  TIP3  H1           -4.5094771334       -0.4023607914       -9.3967273536  CLST         688          1.0000000000
      2064       688  TIP3  H2           -4.0700049573       -0.6132044648      -10.3131773220  CLST         688          1.0000000000
      2065       689  TIP3  OH2         -11.4673735731       -2.4681815428       -7.5866190966  CLST         689          1.0000000000
      2066       689  TIP3  H1          -12.1403594650       -2.1779228756       -6.9306597910  CLST         689          1.0000000000
      2067       689  TIP3  H2          -12.0083222454       -1.9737060937       -8.2563421500  CLST         689          1.0000000000
      2068       690  TIP3  OH2           8.9786188816      -12.4951921575        4.0871861616  CLST         690          1.0000000000
      2069       690  TIP3  H1            9.6183072871      -12.6552420123        4.8730834140  CLST         690          1.0000000000
      2070       690  TIP3  H2            9.6347415183      -11.7637260023        3.9011498212  CLST         690          1.0000000000
      2071       691  TIP3  OH2          -0.5006185981       10.1624256475       13.6339332673  CLST         691          1.0000000000
      2072       691  TIP3  H1           -0.3498852393       11.0792308691       13.4437800580  CLST         691          1.0000000000
      2073       691  TIP3  H2           -0.1681504209       10.2875049011       14.5045939480  CLST         691          1.0000000000
      2074       692  TIP3  OH2           1.3621648496       -6.5993767163        8.6708033216  CLST         692          1.0000000000
      2075       692  TIP3  H1            0.4088850564       -6.3253858876        8.7577483164  CLST         692          1.0000000000
      2076       692  TIP3  H2            1.5113592692       -5.6296404391        8.5833217115  CLST         692          1.0000000000
      2077       693  TIP3  OH2          -9.3235481641       -4.3414637276       -3.0880465487  CLST         693          1.0000000000
      2078       693  TIP3  H1           -8.5219463689       -4.2435996827       -2.5177025638  CLST         693          1.0000000000
      2079       693  TIP3  H2           -9.1414860527       -3.5049443695       -3.5125294559  CLST         693          1.0000000000
      2080       694  TIP3  OH2          -1.7393293264       11.6237364351        5.9951355452  CLST         694          1.0000000000
      2081       694  TIP3  H1           -2.4938010687       12.2355500029        5.6415979737  CLST         694          1.0000000000
      2082       694  TIP3  H2           -1.2447223110       12.3521302016        5.6106995619  CLST         694          1.0000000000
      2083       695  TIP3  OH2           1.5953984455       10.3609404605        8.0006218277  CLST         695          1.0000000000
      2084       695  TIP3  H1            1.2239180919       10.4490281301        7.1170198570  CLST         695          1.0000000000
      2085       695  TIP3  H2            0.8951487647        9.8591189795        8.3206195719  CLST         695          1.0000000000
      2086       696  TIP3  OH2          -4.3703335473        3.2735732627       -6.0658903311  CLST         696          1.0000000000
      2087       696  TIP3  H1           -3.9043795930        3.9783558101       -6.4143738978  CLST         696          1.0000000000
      2088       696  TIP3  H2           -4.4278165937        3.5389566540       -5.1816418910  CLST         696          1.0000000000
      2089       697  TIP3  OH2           2.8841554252        5.7104571331       11.8669320307  CLST         697          1.0000000000
      2090       697  TIP3  H1            2.2567046343        5.9227504422       11.2224544368  CLST         697          1.0000000000
      2091       697  TIP3  H2            3.6282282443        5.5974234575       11.3371084145  CLST         697          1.0000000000
      2092       698  TIP3  OH2          -3.3406639451        5.2010029377       -0.9535835519  CLST         698          1.0000000000
      2093       698  TIP3  H1           -3.4618845101        4.4000255483       -1.3307260885  CLST         698          1.0000000000
      2094       698  TIP3  H2           -4.4542372040        4.9532892787       -1.1342549108  CLST         698          1.0000000000
      2095       699  TIP3  OH2          -1.4200896573       -4.6094941072        3.7244737736  CLST         699          1.0000000000
      2096       699  TIP3  H1           -2.1713542824       -4.0532675410        3.8018076570  CLST         699          1.0000000000
      2097       699  TIP3  H2           -1.1236793194       -4.0477718028        2.9955380093  CLST         699          1.0000000000
      2098       700  TIP3  OH2          -5.1329798906       -8.2251504767        8.8178855044  CLST         700          1.0000000000
      2099       700  TIP3  H1           -5.3965217933       -7.7340941154        8.0249357470  CLST         700          1.0000000000
      2100       700  TIP3  H2           -4.4500766672       -8.7253498204        8.3657128550  CLST         700          1.0000000000
      2101       701  TIP3  OH2         -13.9758968460       10.3418552918        0.2018816015  CLST         701          1.0000000000
      2102       701  TIP3  H1          -13.7203414403        9.4664342118       -0.2452687494  CLST         701          1.0000000000
      2103       701  TIP3  H2          -14.8141128035       10.3596304703       -0.1993691817  CLST         701          1.0000000000
      2104       702  TIP3  OH2          -5.5438224280       -9.5435109923      -12.8296451779  CLST         702          1.0000000000
      2105       702  TIP3  H1           -5.4622135266       -9.8640643618      -11.8723217015  CLST         702          1.0000000000
      2106       702  TIP3  H2           -6.5128890634       -9.5688438991      -12.7548137263  CLST         702          1.0000000000
      2107       703  TIP3  OH2           4.0352868891        6.4138309906       -4.1723495250  CLST         703          1.0000000000
      2108       703  TIP3  H1            2.9739390494        6.4170284818       -3.7442558288  CLST         703          1.0000000000
      2109       703  TIP3  H2            3.3611520982        7.2854893761       -3.9109060861  CLST         703          1.0000000000
      2110       704  TIP3  OH2          -9.8285350410        5.0808631273       11.5747838109  CLST         704          1.0000000000
      2111       704  TIP3  H1          -10.2644616496        5.7926122324       11.9959136436  CLST         704          1.0000000000
      2112       704  TIP3  H2           -9.8344642365        5.6354971797       10.8217411210  CLST         704          1.0000000000
      2113       705  TIP3  OH2          -0.8985943037       -9.1096855246       -7.3998333514  CLST         705          1.0000000000
      2114       705  TIP3  H1           -0.8731167649       -9.8896632521       -7.9905685207  CLST         705          1.0000000000
      2115       705  TIP3  H2           -0.2675723076       -8.7827830040       -8.0792053601  CLST         705          1.0000000000
      2116       706  TIP3  OH2          -2.1240288852       -1.5178247052        4.2348401991  CLST         706          1.0000000000
      2117       706  TIP3  H1           -2.0531903926       -0.6803731351        4.6109728566  CLST         706          1.0000000000
      2118       706  TIP3  H2           -1.2850776470       -1.7003521387        4.6691299456  CLST         706          1.0000000000
      2119       707  TIP3  OH2           8.9014390943       10.9326963289        7.0696418384  CLST         707          1.0000000000
      2120       707  TIP3  H1            8.4275159130       11.3098143186        6.1895696002  CLST         707          1.0000000000
      2121       707  TIP3  H2            7.9026982174       10.6827085424        6.7227414779  CLST         707          1.0000000000
      2122       708  TIP3  OH2          -0.8089392960       -7.5362537320      -12.5344239008  CLST         708          1.0000000000
      2123       708  TIP3  H1           -1.6754889064       -7.8771620315      -12.8507945437  CLST         708          1.0000000000
      2124       708  TIP3  H2           -1.0363935081       -6.9435393232      -13.2699172566  CLST         708          1.0000000000
      2125       709  TIP3  OH2          -6.2864972329       14.0571318222        0.4078810409  CLST         709          1.0000000000
      2126       709  TIP3  H1           -5.3797884189       14.1564237138        0.8039433447  CLST         709          1.0000000000
      2127       709  TIP3  H2           -6.5148191794       14.4017539198        1.2312640035  CLST         709          1.0000000000
      2128       710  TIP3  OH2          -1.0481652121       13.9059188861      -10.6558865983  CLST         710          1.0000000000
      2129       710  TIP3  H1           -0.7313941228       13.3498505536      -11.3552748539  CLST         710          1.0000000000
      2130       710  TIP3  H2           -1.7992129739       13.2887948482      -10.7299388972  CLST         710          1.0000000000
      2131       711  TIP3  OH2          11.5373161018      -10.7402969586      -10.9762095451  CLST         711          1.0000000000
      2132       711  TIP3  H1           11.5515387012      -10.7116096011      -11.7762525193  CLST         711          1.0000000000
      2133       711  TIP3  H2           11.2711676792      -11.5507651678      -11.3512548529  CLST         711          1.0000000000
      2134       712  TIP3  OH2          -3.6676370364      -10.8567360273       11.2822568455  CLST         712          1.0000000000
      2135       712  TIP3  H1           -4.2112870771      -10.1753010629       10.8425238164  CLST         712          1.0000000000
      2136       712  TIP3  H2           -2.8893937489      -10.5403330894       10.8485000298  CLST         712          1.0000000000
      2137       713  TIP3  OH2           7.2450418728        0.4662895900        6.5212981523  CLST         713          1.0000000000
      2138       713  TIP3  H1            7.7439526092        0.3339943816        7.3871473596  CLST         713          1.0000000000
      2139       713  TIP3  H2            7.7961007895       -0.3486375427        6.3601885377  CLST         713          1.0000000000
      2140       714  TIP3  OH2           4.9190510252       12.3663966659        4.6226146197  CLST         714          1.0000000000
      2141       714  TIP3  H1            4.4994621553       13.0236558753        3.9719458690  CLST         714          1.0000000000
      2142       714  TIP3  H2            4.2968369665       12.8953627792        5.1561927658  CLST         714          1.0000000000
      2143       715  TIP3  OH2          -9.1912933496       -9.6176561113        1.5950173370  CLST         715          1.0000000000
      2144       715  TIP3  H1           -9.7032775880       -8.8632784986        1.8835706672  CLST         715          1.0000000000
      2145       715  TIP3  H2           -9.7969789400      -10.1451518224        2.2097767202  CLST         715          1.0000000000
      2146       716  TIP3  OH2         -13.5827936599      -13.1916417638       -0.0458351348  CLST         716          1.0000000000
      2147       716  TIP3  H1          -13.6038607000      -13.6316872255       -0.9090444997  CLST         716          1.0000000000
      2148       716  TIP3  H2          -13.4193732094      -12.3575181866       -0.5663964725  CLST         716          1.0000000000
      2149       717  TIP3  OH2          -6.4056055946      -12.2923862189        2.6762595196  CLST         717          1.0000000000
      2150       717  TIP3  H1           -6.5868302912      -11.4724282935        2.2187281482  CLST         717          1.0000000000
      2151       717  TIP3  H2           -6.9814543113      -12.6778688445        2.0246170200  CLST         717          1.0000000000
      2152       718  TIP3  OH2         -11.1172076208        7.2767157829       13.3174493861  CLST         718          1.0000000000
      2153       718  TIP3  H1          -11.5494630863        8.1103184646       13.7321400237  CLST         718          1.0000000000
      2154       718  TIP3  H2          -10.2876998818        7.8098739552       13.2132160102  CLST         718          1.0000000000
      2155       719  TIP3  OH2          10.3576682399       -7.4517625415        2.9269400028  CLST         719          1.0000000000
      2156       719  TIP3  H1           11.3288070629       -7.3893922873        3.1693168706  CLST         719          1.0000000000
      2157       719  TIP3  H2           10.6954776819       -7.2869027435        2.0253146380  CLST         719          1.0000000000
      2158       720  TIP3  OH2          -4.8369869456       13.1798832417       -8.6175912234  CLST         720          1.0000000000
      2159       720  TIP3  H1           -3.9075822269       13.1977782398       -8.4047314368  CLST         720          1.0000000000
      2160       720  TIP3  H2           -4.9615225847       13.6498358897       -7.7786953588  CLST         720          1.0000000000
      2161       721  TIP3  OH2           4.1891757520       -5.7185779980       -9.9453357920  CLST         721          1.0000000000
      2162       721  TIP3  H1            4.2665078380       -5.0940813988       -9.2208818513  CLST         721          1.0000000000
      2163       721  TIP3  H2            4.5733791464       -6.3263907329       -9.2748467521  CLST         721          1.0000000000
      2164       722  TIP3  OH2          10.3002048140       -2.8817257025        2.0257025614  CLST         722          1.0000000000
      2165       722  TIP3  H1           10.0459585112       -3.3979080432        1.2096745440  CLST         722          1.0000000000
      2166       722  TIP3  H2           11.1713939454       -2.6976765092        1.7124690796  CLST         722          1.0000000000
      2167       723  TIP3  OH2           0.2767036023       13.3198170189        5.9959235423  CLST         723          1.0000000000
      2168       723  TIP3  H1            1.1373575523       14.0446828324        5.6698700301  CLST         723          1.0000000000
      2169       723  TIP3  H2            1.1696767943       13.0667661827        5.9531082118  CLST         723          1.0000000000
      2170       724  TIP3  OH2           8.2766578811       -8.2489750332       -3.9470206964  CLST         724          1.0000000000
      2171       724  TIP3  H1            8.2412860540       -8.8192678999       -4.6983579755  CLST         724          1.0000000000
      2172       724  TIP3  H2            8.3801559661       -8.0173075374       -5.1413872365  CLST         724          1.0000000000
      2173       725  TIP3  OH2          -0.6518061034       -0.1316154625        2.2217254760  CLST         725          1.0000000000
      2174       725  TIP3  H1           -1.5545310081       -0.4261907940        2.5273430594  CLST         725          1.0000000000
      2175       725  TIP3  H2           -1.2625048286        0.4863475578        1.6744583684  CLST         725          1.0000000000
      2176       726  TIP3  OH2         -14.0795915500       10.4275011928        6.1872461556  CLST         726          1.0000000000
      2177       726  TIP3  H1          -14.8113517525       10.4711013957        5.6159832720  CLST         726          1.0000000000
      2178       726  TIP3  H2          -13.8719271717       11.4443359335        6.0046309704  CLST         726          1.0000000000
      2179       727  TIP3  OH2          -4.3132230012      -13.3331533860       -0.3667222048  CLST         727          1.0000000000
      2180       727  TIP3  H1           -3.4850768479      -13.7083431723       -0.0248226482  CLST         727          1.0000000000
      2181       727  TIP3  H2           -3.8967180352      -12.5373964820        0.3871831937  CLST         727          1.0000000000
      2182       728  TIP3  OH2          -8.4085170177        3.2051975457       -0.7610366530  CLST         728          1.0000000000
      2183       728  TIP3  H1           -7.7966131249        2.4515193691       -0.6553461369  CLST         728          1.0000000000
      2184       728  TIP3  H2           -9.1179315551        2.5713898957       -0.7583853000  CLST         728          1.0000000000
      2185       729  TIP3  OH2          10.3455178810      -10.5353220243        2.8146944907  CLST         729          1.0000000000
      2186       729  TIP3  H1           10.8452861301       -9.6851229877        2.7595996616  CLST         729          1.0000000000
      2187       729  TIP3  H2           11.2562848977      -10.9033411632        2.7794372778  CLST         729          1.0000000000
      2188       730  TIP3  OH2          -4.3119472800       10.8912157900       -5.4976799041  CLST         730          1.0000000000
      2189       730  TIP3  H1           -4.1870723845       10.0243662909       -5.8560807979  CLST         730          1.0000000000
      2190       730  TIP3  H2           -5.1620096869       10.8517317319       -5.9426410636  CLST         730          1.0000000000
      2191       731  TIP3  OH2          12.8593696689       12.8207728815       -4.5332914346  CLST         731          1.0000000000
      2192       731  TIP3  H1           13.2254229801       13.2046141271       -5.3613227933  CLST         731          1.0000000000
      2193       731  TIP3  H2           12.3227729471       12.1369294928       -5.1306916113  CLST         731          1.0000000000
      2194       732  TIP3  OH2          -2.7982846038       -1.4367759077       -2.1411825585  CLST         732          1.0000000000
      2195       732  TIP3  H1           -3.4123380246       -1.1507860865       -1.3664128363  CLST         732          1.0000000000
      2196       732  TIP3  H2           -3.8321111563       -0.8964221893       -2.3977638689  CLST         732          1.0000000000
      2197       733  TIP3  OH2           5.4905623439        2.2967279190       12.8831450674  CLST         733          1.0000000000
      2198       733  TIP3  H1            5.1997807322        1.5016771735       12.3026411101  CLST         733          1.0000000000
      2199       733  TIP3  H2            4.5671944663        2.0976705262       13.1439957607  CLST         733          1.0000000000
      2200       734  TIP3  OH2           8.5457902546       -2.2882166095        6.0952031691  CLST         734          1.0000000000
      2201       734  TIP3  H1            8.3433668791       -2.9689851147        5.3794442813  CLST         734          1.0000000000
      2202       734  TIP3  H2            9.5127366206       -2.3214801533        5.7683032682  CLST         734          1.0000000000
      2203       735  TIP3  OH2         -10.9274857940      -12.8888166355        1.0286277034  CLST         735          1.0000000000
      2204       735  TIP3  H1          -11.0161073762      -12.1883647402        1.6909342946  CLST         735          1.0000000000
      2205       735  TIP3  H2          -11.8257021840      -13.1466453356        0.9695418747  CLST         735          1.0000000000
      2206       736  TIP3  OH2          13.3046036888        2.5480439401        2.6835583015  CLST         736          1.0000000000
      2207       736  TIP3  H1           13.5651567080        2.2554626647        1.8176909381  CLST         736          1.0000000000
      2208       736  TIP3  H2           12.4193614825        2.4388545794        2.3045797483  CLST         736          1.0000000000
      2209       737  TIP3  OH2          11.4008779115       -1.9091587764        7.7764481877  CLST         737          1.0000000000
      2210       737  TIP3  H1           11.0998575285       -2.1772426997        6.9259659472  CLST         737          1.0000000000
      2211       737  TIP3  H2           11.5904611123       -0.9409374430        7.6772948140  CLST         737          1.0000000000
      2212       738  TIP3  OH2          10.3903493499        1.0299319770       14.2578335732  CLST         738          1.0000000000
      2213       738  TIP3  H1            9.5160411009        0.9065715057       13.9136518563  CLST         738          1.0000000000
      2214       738  TIP3  H2           10.2815133042        0.0860001839       14.3896144006  CLST         738          1.0000000000
      2215       739  TIP3  OH2         -13.1995103189        1.5186845163       10.2180611206  CLST         739          1.0000000000
      2216       739  TIP3  H1          -14.0273807300        1.6483154368       10.8179301103  CLST         739          1.0000000000
      2217       739  TIP3  H2          -13.7053057206        0.8364374413        9.8365282025  CLST         739          1.0000000000
      2218       740  TIP3  OH2           6.1340782898      -13.8823270300       -5.2075810629  CLST         740          1.0000000000
      2219       740  TIP3  H1            5.7145684517      -14.7957852450       -5.7974537168  CLST         740          1.0000000000
      2220       740  TIP3  H2            6.5817557188      -14.4423878138       -5.7395789443  CLST         740          1.0000000000
      2221       741  TIP3  OH2          11.5433736361        5.0467797026        9.4203125725  CLST         741          1.0000000000
      2222       741  TIP3  H1           12.2292863239        4.5881023183        9.5708155741  CLST         741          1.0000000000
      2223       741  TIP3  H2           11.5129158672        3.9225378359        9.1197595484  CLST         741          1.0000000000
      2224       742  TIP3  OH2           8.4769332911       -9.3787703099       -6.3417585267  CLST         742          1.0000000000
      2225       742  TIP3  H1            8.8502612347      -10.2641361329       -6.3512939465  CLST         742          1.0000000000
      2226       742  TIP3  H2            7.8635743828       -9.7894801357       -6.9135740479  CLST         742          1.0000000000
      2227       743  TIP3  OH2          -7.4320064229       -0.0628597671      -10.8623330985  CLST         743          1.0000000000
      2228       743  TIP3  H1           -6.8534545674        0.5461251013      -10.3379695054  CLST         743          1.0000000000
      2229       743  TIP3  H2           -6.5491842696       -0.5826985104      -10.8374252153  CLST         743          1.0000000000
      2230       744  TIP3  OH2          -6.0499912309        3.6344204186        5.0897487579  CLST         744          1.0000000000
      2231       744  TIP3  H1           -5.2793824353        3.3412899491        5.6005119332  CLST         744          1.0000000000
      2232       744  TIP3  H2           -6.0953490266        4.4598830849        5.6077632170  CLST         744          1.0000000000
      2233       745  TIP3  OH2           0.5730325519       -8.1993472237        6.8377119478  CLST         745          1.0000000000
      2234       745  TIP3  H1            1.1460684006       -8.9422908901        6.8776867674  CLST         745          1.0000000000
      2235       745  TIP3  H2            0.9945791805       -8.0430399817        7.6590798266  CLST         745          1.0000000000
      2236       746  TIP3  OH2          -7.6956358165       -4.3042219541       -5.8745456311  CLST         746          1.0000000000
      2237       746  TIP3  H1           -7.7172012356       -4.9887511263       -6.5970267953  CLST         746          1.0000000000
      2238       746  TIP3  H2           -8.4288629393       -3.8255214245       -6.2898719190  CLST         746          1.0000000000
      2239       747  TIP3  OH2          11.2481241070       11.7120423248        2.0165594124  CLST         747          1.0000000000
      2240       747  TIP3  H1           10.6617490774       12.0741900325        2.8050980123  CLST         747          1.0000000000
      2241       747  TIP3  H2           11.4234293778       11.1359224691        2.8101416369  CLST         747          1.0000000000
      2242       748  TIP3  OH2           3.5977446030        4.8237172731        8.2820251988  CLST         748          1.0000000000
      2243       748  TIP3  H1            3.8204698015        5.0157846789        9.1994983878  CLST         748          1.0000000000
      2244       748  TIP3  H2            3.9289566837        5.7157258747        8.0425365815  CLST         748          1.0000000000
      2245       749  TIP3  OH2          11.1299438098        9.4539997467        6.4625708621  CLST         749          1.0000000000
      2246       749  TIP3  H1           10.8151014454        9.1294403670        7.1475686115  CLST         749          1.0000000000
      2247       749  TIP3  H2           10.3805400781       10.0493881466        7.1329308126  CLST         749          1.0000000000
      2248       750  TIP3  OH2         -14.0280145495       12.4803264850       -7.7731768824  CLST         750          1.0000000000
      2249       750  TIP3  H1          -14.8666647993       12.0584918109       -7.6023423334  CLST         750          1.0000000000
      2250       750  TIP3  H2          -14.0171559894       12.0998531277       -8.6717370167  CLST         750          1.0000000000
      2251       751  TIP3  OH2           8.6162386052        4.5689408104       -4.7672642721  CLST         751          1.0000000000
      2252       751  TIP3  H1            7.9088008710        3.9994955765       -4.9468324746  CLST         751          1.0000000000
      2253       751  TIP3  H2            9.1156085251        4.0863557200       -4.1042956540  CLST         751          1.0000000000
      2254       752  TIP3  OH2         -12.1875527171       13.3308846932        2.1688546330  CLST         752          1.0000000000
      2255       752  TIP3  H1          -12.7793061831       13.6197834590        1.4490432525  CLST         752          1.0000000000
      2256       752  TIP3  H2          -12.3621209538       12.4555157538        1.8227122561  CLST         752          1.0000000000
      2257       753  TIP3  OH2           8.8630251808        2.4999415109       -6.9331371982  CLST         753          1.0000000000
      2258       753  TIP3  H1            8.5113590332        3.2037496623       -7.5484270633  CLST         753          1.0000000000
      2259       753  TIP3  H2            8.0353795903        2.6018844916       -6.4587428469  CLST         753          1.0000000000
      2260       754  TIP3  OH2          11.3574443488        2.1453651318       -6.2886107085  CLST         754          1.0000000000
      2261       754  TIP3  H1           11.0095777203        1.8139036923       -5.4852434474  CLST         754          1.0000000000
      2262       754  TIP3  H2           10.4723417178        2.6572846736       -6.2975400371  CLST         754          1.0000000000
      2263       755  TIP3  OH2           7.4275603398       -1.9384983381       -0.3409735269  CLST         755          1.0000000000
      2264       755  TIP3  H1            6.6338708639       -1.9162166988        0.1709762333  CLST         755          1.0000000000
      2265       755  TIP3  H2            7.3781268993       -0.9648763392       -0.3184956084  CLST         755          1.0000000000
      2266       756  TIP3  OH2         -12.5739823026        6.3292771422        5.8384292376  CLST         756          1.0000000000
      2267       756  TIP3  H1          -13.1455676028        5.5693665676        6.5307912150  CLST         756          1.0000000000
      2268       756  TIP3  H2          -12.5604725357        6.3442248690        7.0105142176  CLST         756          1.0000000000
      2269       757  TIP3  OH2          -4.6189757043       -5.1966796657       -2.2178300932  CLST         757          1.0000000000
      2270       757  TIP3  H1           -3.7353365611       -5.2578865688       -2.6961010122  CLST         757          1.0000000000
      2271       757  TIP3  H2           -4.8854119459       -4.6584766650       -2.9664422261  CLST         757          1.0000000000
      2272       758  TIP3  OH2          12.0002629247        4.2873673943       -0.6782134025  CLST         758          1.0000000000
      2273       758  TIP3  H1           12.2635204539        4.7631235790       -0.0885881916  CLST         758          1.0000000000
      2274       758  TIP3  H2           12.9527710763        4.1352990629       -0.0848256586  CLST         758          1.0000000000
      2275       759  TIP3  OH2          -7.5837826328       11.4356031492      -10.7223732593  CLST         759          1.0000000000
      2276       759  TIP3  H1           -6.8429876480       11.1761829422      -11.2504543728  CLST         759          1.0000000000
      2277       759  TIP3  H2           -7.1411406338       10.8109626901      -10.1036921781  CLST         759          1.0000000000
      2278       760  TIP3  OH2           7.9642101843       14.6080392684       -6.1125395304  CLST         760          1.0000000000
      2279       760  TIP3  H1            8.2618036138       14.3881068423       -7.0398059882  CLST         760          1.0000000000
      2280       760  TIP3  H2            7.8525373803       13.6413037821       -6.0241534519  CLST         760          1.0000000000
      2281       761  TIP3  OH2          -6.8067712213        8.0085976362      -11.4141990690  CLST         761          1.0000000000
      2282       761  TIP3  H1           -7.7121633057        7.8126133198      -11.7599335605  CLST         761          1.0000000000
      2283       761  TIP3  H2           -7.2991797446        7.8810821042      -10.5648805988  CLST         761          1.0000000000
      2284       762  TIP3  OH2           7.8427829860       -6.2548503342      -13.0230793520  CLST         762          1.0000000000
      2285       762  TIP3  H1            7.3165516204       -6.8674201348      -12.4609863148  CLST         762          1.0000000000
      2286       762  TIP3  H2            7.6469924741       -5.5106286160      -12.4574231789  CLST         762          1.0000000000
      2287       763  TIP3  OH2          -1.3697074989       -6.1154553962        8.9672438123  CLST         763          1.0000000000
      2288       763  TIP3  H1           -1.7268983998       -5.2397302553        8.9656955049  CLST         763          1.0000000000
      2289       763  TIP3  H2           -2.0098996687       -6.2943392883        9.6843490923  CLST         763          1.0000000000
      2290       764  TIP3  OH2           8.7131969420      -11.2436491162        0.6119750858  CLST         764          1.0000000000
      2291       764  TIP3  H1            7.8753965103      -10.7522979298        0.7243111452  CLST         764          1.0000000000
      2292       764  TIP3  H2            9.2458846471      -11.0619853246        1.3879745440  CLST         764          1.0000000000
      2293       765  TIP3  OH2         -14.1125262828      -12.1927821750       12.7528358600  CLST         765          1.0000000000
      2294       765  TIP3  H1          -13.4934154429      -11.6370471301       13.2049830073  CLST         765          1.0000000000
      2295       765  TIP3  H2          -14.7986365265      -11.6411379233       12.9017713843  CLST         765          1.0000000000
      2296       766  TIP3  OH2          11.5320828606       -8.0726806394      -11.9284661114  CLST         766          1.0000000000
      2297       766  TIP3  H1           11.4262751852       -7.6945143780      -12.8260740541  CLST         766          1.0000000000
      2298       766  TIP3  H2           10.7274921400       -7.5319287457      -11.8707166613  CLST         766          1.0000000000
      2299       767  TIP3  OH2           2.2242165133       12.3431925256      -12.4674660368  CLST         767          1.0000000000
      2300       767  TIP3  H1            2.4575141802       12.1479146805      -11.5851355095  CLST         767          1.0000000000
      2301       767  TIP3  H2            2.0524285549       13.2457350127      -12.1882618327  CLST         767          1.0000000000
      2302       768  TIP3  OH2           7.6683547034        7.1518402077        8.3339178469  CLST         768          1.0000000000
      2303       768  TIP3  H1            8.6842754509        7.2186051592        8.3896382445  CLST         768          1.0000000000
      2304       768  TIP3  H2            7.9062471185        6.1869296572        8.3916486089  CLST         768          1.0000000000
      2305       769  TIP3  OH2         -11.8862899742        3.0611022181        0.8888066335  CLST         769          1.0000000000
      2306       769  TIP3  H1          -11.4188644448        2.6355190370        1.8022195742  CLST         769          1.0000000000
      2307       769  TIP3  H2          -12.2677753357        3.1114440697        1.6437895447  CLST         769          1.0000000000
      2308       770  TIP3  OH2          10.0658913929       -4.9250841669       11.5950000960  CLST         770          1.0000000000
      2309       770  TIP3  H1           10.4085846813       -4.0280574757       10.9710588051  CLST         770          1.0000000000
      2310       770  TIP3  H2           10.6590539151       -4.9656191412       10.5814872261  CLST         770          1.0000000000
      2311       771  TIP3  OH2         -10.2261888209        1.1268927144       -5.7355247196  CLST         771          1.0000000000
      2312       771  TIP3  H1           -9.5949487337        0.5195387229       -6.0658316220  CLST         771          1.0000000000
      2313       771  TIP3  H2           -9.7083863734        1.4587604556       -5.0722966670  CLST         771          1.0000000000
      2314       772  TIP3  OH2          13.1610484422      -12.3749406908       -6.7590537610  CLST         772          1.0000000000
      2315       772  TIP3  H1           13.3323090693      -11.4601804842       -6.5445386904  CLST         772          1.0000000000
      2316       772  TIP3  H2           12.4142038832      -12.1835949636       -6.1630964055  CLST         772          1.0000000000
      2317       773  TIP3  OH2          12.5264156544       -4.6917069116        3.7562385062  CLST         773          1.0000000000
      2318       773  TIP3  H1           11.9696884273       -4.0158999754        4.1650332125  CLST         773          1.0000000000
      2319       773  TIP3  H2           12.5850261538       -4.4233750102        2.8534021044  CLST         773          1.0000000000
      2320       774  TIP3  OH2          -8.0662812837       -0.3708303922       -6.1797351184  CLST         774          1.0000000000
      2321       774  TIP3  H1           -6.9371700547       -0.2533775976       -6.1338494625  CLST         774          1.0000000000
      2322       774  TIP3  H2           -7.5350149945        0.5935720348       -6.2646130352  CLST         774          1.0000000000
      2323       775  TIP3  OH2           2.3461278279        1.7189449019        5.1284979220  CLST         775          1.0000000000
      2324       775  TIP3  H1            2.4147340016        1.5952200586        6.1444071945  CLST         775          1.0000000000
      2325       775  TIP3  H2            2.5976621596        2.6186513631        5.4662817385  CLST         775          1.0000000000
      2326       776  TIP3  OH2           0.2316234424        9.7484154912        5.8214335231  CLST         776          1.0000000000
      2327       776  TIP3  H1           -0.5850907165       10.2814274642        6.1143749132  CLST         776          1.0000000000
      2328       776  TIP3  H2           -0.5166205721        9.2290040581        5.5021619957  CLST         776          1.0000000000
      2329       777  TIP3  OH2         -13.3590961995      -10.2516925433        0.0298877504  CLST         777          1.0000000000
      2330       777  TIP3  H1          -12.9391975929       -9.3772083832       -0.0562309111  CLST         777          1.0000000000
      2331       777  TIP3  H2          -12.9325041536      -10.1918977045        0.9166345546  CLST         777          1.0000000000
      2332       778  TIP3  OH2         -11.8064520692        5.8734250388       -0.4462238667  CLST         778          1.0000000000
      2333       778  TIP3  H1          -11.5771434689        5.2177433599        0.2084976895  CLST         778          1.0000000000
      2334       778  TIP3  H2          -11.6715658754        5.4234378006       -1.2188528506  CLST         778          1.0000000000
      2335       779  TIP3  OH2          -6.0660958594        5.1610104944       -1.7550182660  CLST         779          1.0000000000
      2336       779  TIP3  H1           -6.8899532129        5.3470628563       -1.6401009640  CLST         779          1.0000000000
      2337       779  TIP3  H2           -6.4640163160        5.9160022397       -0.8854405270  CLST         779          1.0000000000
      2338       780  TIP3  OH2           2.5170924265       14.0652652497       -8.5608612510  CLST         780          1.0000000000
      2339       780  TIP3  H1            2.2880798282       14.6517667026       -9.1262992253  CLST         780          1.0000000000
      2340       780  TIP3  H2            3.0042705296       14.3369536020       -9.6024071609  CLST         780          1.0000000000
      2341       781  TIP3  OH2           9.1786395883       -8.6140321321       -9.4195997994  CLST         781          1.0000000000
      2342       781  TIP3  H1            9.8908730878       -8.9999617414       -9.0445112651  CLST         781          1.0000000000
      2343       781  TIP3  H2            9.4163569967       -9.7479364158       -9.5178110286  CLST         781          1.0000000000
      2344       782  TIP3  OH2           0.0285278752        2.8152203942        4.5137215758  CLST         782          1.0000000000
      2345       782  TIP3  H1           -0.5547967521        2.0481579611        4.5510475406  CLST         782          1.0000000000
      2346       782  TIP3  H2            0.6422470895        2.0481961478        4.8132678554  CLST         782          1.0000000000
      2347       783  TIP3  OH2          -7.0018193431      -12.4165531291      -13.7610617663  CLST         783          1.0000000000
      2348       783  TIP3  H1           -7.8455121931      -12.2890760570      -13.2918981874  CLST         783          1.0000000000
      2349       783  TIP3  H2           -7.5244353095      -12.2583294816      -14.5819583290  CLST         783          1.0000000000
      2350       784  TIP3  OH2          14.4910041372        5.0900627735       -4.0522075538  CLST         784          1.0000000000
      2351       784  TIP3  H1           14.1152046127        5.3952241851       -4.8736377078  CLST         784          1.0000000000
      2352       784  TIP3  H2           14.8666647993        5.9873215476       -3.9174779161  CLST         784          1.0000000000
      2353       785  TIP3  OH2          10.4735032320        7.7435604851        0.9108601571  CLST         785          1.0000000000
      2354       785  TIP3  H1           11.0180309362        8.2268826226        1.5462540270  CLST         785          1.0000000000
      2355       785  TIP3  H2           11.1826772750        8.0606452378        0.3410279141  CLST         785          1.0000000000
      2356       786  TIP3  OH2          12.5012875581        3.3287423959       12.5609601190  CLST         786          1.0000000000
      2357       786  TIP3  H1           12.8633069092        4.4033733304       12.4376255876  CLST         786          1.0000000000
      2358       786  TIP3  H2           12.5043652621        3.9749252485       13.2435255847  CLST         786          1.0000000000
      2359       787  TIP3  OH2          -8.0896994546        0.4415366705       11.7459228718  CLST         787          1.0000000000
      2360       787  TIP3  H1           -8.8621213049        0.7108446209       11.2259186213  CLST         787          1.0000000000
      2361       787  TIP3  H2           -8.7187802965       -0.1257744036       12.1458051078  CLST         787          1.0000000000
      2362       788  TIP3  OH2           2.4358714642      -13.3650291840       10.7513744586  CLST         788          1.0000000000
      2363       788  TIP3  H1            2.8536801599      -13.5132915888       11.6122964188  CLST         788          1.0000000000
      2364       788  TIP3  H2            2.6056830895      -14.3207533709       10.6323680816  CLST         788          1.0000000000
      2365       789  TIP3  OH2          -7.1696006949        0.7855030786       -3.3974669853  CLST         789          1.0000000000
      2366       789  TIP3  H1           -6.8696896498        0.0233234530       -2.9615257927  CLST         789          1.0000000000
      2367       789  TIP3  H2           -6.1990340267        0.9763239901       -3.4320670657  CLST         789          1.0000000000
      2368       790  TIP3  OH2         -11.2903829116       -9.2830034132        5.7023485731  CLST         790          1.0000000000
      2369       790  TIP3  H1          -11.3791898636       -9.3309133837        6.6195819643  CLST         790          1.0000000000
      2370       790  TIP3  H2          -11.5902986901       -8.3751457321        5.6885913334  CLST         790          1.0000000000
      2371       791  TIP3  OH2          -4.9236555516       -5.8761169854      -10.7264462600  CLST         791          1.0000000000
      2372       791  TIP3  H1           -4.0728588234       -6.2180872943      -11.0449644906  CLST         791          1.0000000000
      2373       791  TIP3  H2           -4.7376537413       -5.0067368031      -11.0914302390  CLST         791          1.0000000000
      2374       792  TIP3  OH2           7.0746452134       -3.7554317966        9.7693384408  CLST         792          1.0000000000
      2375       792  TIP3  H1            8.0534010785       -3.9386179505        9.5309983679  CLST         792          1.0000000000
      2376       792  TIP3  H2            7.4680816544       -2.9537390476       10.1190767320  CLST         792          1.0000000000
      2377       793  TIP3  OH2          -3.2095440522       12.7292164432       -4.0125722491  CLST         793          1.0000000000
      2378       793  TIP3  H1           -3.4631568209       12.6904745327       -3.0599220942  CLST         793          1.0000000000
      2379       793  TIP3  H2           -3.4850724835       11.8459129523       -4.3003292173  CLST         793          1.0000000000
      2380       794  TIP3  OH2          -0.7751751535        2.8771492253       -6.6536027110  CLST         794          1.0000000000
      2381       794  TIP3  H1           -1.3613550589        2.4810505555       -7.2554344042  CLST         794          1.0000000000
      2382       794  TIP3  H2           -1.1323006349        3.3879883354       -7.6864660498  CLST         794          1.0000000000
      2383       795  TIP3  OH2          -1.9738257285       -9.3024921806        1.2697480593  CLST         795          1.0000000000
      2384       795  TIP3  H1           -2.5538791418      -10.0253223830        1.0052585144  CLST         795          1.0000000000
      2385       795  TIP3  H2           -1.5561155956       -9.8036097198        2.0545563345  CLST         795          1.0000000000
      2386       796  TIP3  OH2           3.0700722350        4.7858225734        4.8898745878  CLST         796          1.0000000000
      2387       796  TIP3  H1            3.2540569776        4.5218239241        3.9157648030  CLST         796          1.0000000000
      2388       796  TIP3  H2            4.0613407106        4.8403661593        4.7245305849  CLST         796          1.0000000000
      2389       797  TIP3  OH2         -11.6602990945        5.6793197161       -3.0199015878  CLST         797          1.0000000000
      2390       797  TIP3  H1          -12.2253021181        6.3664936600       -3.4004843109  CLST         797          1.0000000000
      2391       797  TIP3  H2          -11.4267922305        5.3359057193       -3.9186009513  CLST         797          1.0000000000
      2392       798  TIP3  OH2         -10.7868441514        9.8481311951       10.3745254581  CLST         798          1.0000000000
      2393       798  TIP3  H1          -11.4443955718       10.4933127013       10.1225546943  CLST         798          1.0000000000
      2394       798  TIP3  H2          -10.6286501842       10.3271159265       11.1828823837  CLST         798          1.0000000000
      2395       799  TIP3  OH2           4.3307843271       -1.4640859842      -12.4908076438  CLST         799          1.0000000000
      2396       799  TIP3  H1            5.2218547533       -1.0965352234      -12.6661083662  CLST         799          1.0000000000
      2397       799  TIP3  H2            4.3454810125       -1.5861393615      -13.4750373332  CLST         799          1.0000000000
      2398       800  TIP3  OH2         -10.2631517168        7.2238034710       10.1326324537  CLST         800          1.0000000000
      2399       800  TIP3  H1          -10.8718760174        7.9884062133       10.1393678450  CLST         800          1.0000000000
      2400       800  TIP3  H2           -9.6703970654        7.8229454212        9.7799607577  CLST         800          1.0000000000
      2401       801  TIP3  OH2           7.7864125507      -11.3841749447      -10.4183794506  CLST         801          1.0000000000
      2402       801  TIP3  H1            7.9745039549      -12.3435913983      -10.3772615966  CLST         801          1.0000000000
      2403       801  TIP3  H2            8.2667377065      -11.3565766448      -11.1963126364  CLST         801          1.0000000000
      2404       802  TIP3  OH2           5.4584744664       -0.2760751922       12.0120742782  CLST         802          1.0000000000
      2405       802  TIP3  H1            5.0127282791        0.0448802539       11.1513339118  CLST         802          1.0000000000
      2406       802  TIP3  H2            5.9858211058       -0.6861426561       11.2624818876  CLST         802          1.0000000000
      2407       803  TIP3  OH2           6.3759804508       -9.5361833645        0.1666813627  CLST         803          1.0000000000
      2408       803  TIP3  H1            6.1093472359      -10.4674545926       -0.0814405596  CLST         803          1.0000000000
      2409       803  TIP3  H2            5.9218525058       -9.4461226744        0.9543354024  CLST         803          1.0000000000
      2410       804  TIP3  OH2           5.4613206995        6.4091924074        2.0902373668  CLST         804          1.0000000000
      2411       804  TIP3  H1            4.8290425801        5.6784387676        2.0132764485  CLST         804          1.0000000000
      2412       804  TIP3  H2            5.8966832870        5.6348851926        1.5994840929  CLST         804          1.0000000000
      2413       805  TIP3  OH2           7.4385680248       -4.6618258940       13.9856438176  CLST         805          1.0000000000
      2414       805  TIP3  H1            8.3291460808       -4.7070462288       14.0433735110  CLST         805          1.0000000000
      2415       805  TIP3  H2            7.5427052418       -5.0429259478       14.8666647993  CLST         805          1.0000000000
      2416       806  TIP3  OH2           8.7184449009       10.3669700537       13.5661575432  CLST         806          1.0000000000
      2417       806  TIP3  H1            7.9918630691        9.9582542676       13.0874446520  CLST         806          1.0000000000
      2418       806  TIP3  H2            8.1057032459       11.2363462807       13.6155620390  CLST         806          1.0000000000
      2419       807  TIP3  OH2          -3.9514340069        8.1327325000        1.3993655144  CLST         807          1.0000000000
      2420       807  TIP3  H1           -3.8612232110        9.0913190670        1.6161776189  CLST         807          1.0000000000
      2421       807  TIP3  H2           -4.1353167318        8.0436945418        2.3573424357  CLST         807          1.0000000000
      2422       808  TIP3  OH2          -3.6376917470       14.0336247788        1.3292843671  CLST         808          1.0000000000
      2423       808  TIP3  H1           -3.2395470979       14.4525161337        2.1076932757  CLST         808          1.0000000000
      2424       808  TIP3  H2           -2.7105263566       14.1723784963        0.9513825487  CLST         808          1.0000000000
      2425       809  TIP3  OH2           1.7578841024       12.7252410761        9.5496587197  CLST         809          1.0000000000
      2426       809  TIP3  H1            1.7233353937       11.8329205446        9.3006010716  CLST         809          1.0000000000
      2427       809  TIP3  H2            0.8269719349       12.7894529876        9.3555394159  CLST         809          1.0000000000
      2428       810  TIP3  OH2          -1.9347005197        8.7549732008        8.7711046090  CLST         810          1.0000000000
      2429       810  TIP3  H1           -1.0000090846        8.9628228764        8.5976863910  CLST         810          1.0000000000
      2430       810  TIP3  H2           -1.9876055445        8.2777111520        9.6072029140  CLST         810          1.0000000000
      2431       811  TIP3  OH2          -3.7592532558      -12.0543423191       -9.0785900747  CLST         811          1.0000000000
      2432       811  TIP3  H1           -3.6581229164      -12.8128069018       -9.9647695400  CLST         811          1.0000000000
      2433       811  TIP3  H2           -4.3532989581      -11.5531659550       -9.5941552879  CLST         811          1.0000000000
      2434       812  TIP3  OH2          10.6438971667        4.1791774261      -13.7971328260  CLST         812          1.0000000000
      2435       812  TIP3  H1           11.7043347793        3.7521453968      -14.1239888213  CLST         812          1.0000000000
      2436       812  TIP3  H2           10.9342408102        4.2566803009      -14.6147458057  CLST         812          1.0000000000
      2437       813  TIP3  OH2          -2.2292304823        0.7285212689      -13.8291967871  CLST         813          1.0000000000
      2438       813  TIP3  H1           -1.9378841552        1.4276368091      -14.4300537690  CLST         813          1.0000000000
      2439       813  TIP3  H2           -3.0829449367        1.2117636710      -13.9102074600  CLST         813          1.0000000000
      2440       814  TIP3  OH2          -7.5334378414        8.2165335955       -8.8309645287  CLST         814          1.0000000000
      2441       814  TIP3  H1           -6.9445055695        8.9186454888       -8.5759615657  CLST         814          1.0000000000
      2442       814  TIP3  H2           -6.9834950083        7.5624918928       -8.4010639686  CLST         814          1.0000000000
      2443       815  TIP3  OH2          -5.0098160260        1.1579589104       -8.6464469373  CLST         815          1.0000000000
      2444       815  TIP3  H1           -5.1694267537        1.7441101293       -7.8497652602  CLST         815          1.0000000000
      2445       815  TIP3  H2           -5.5792274258        1.8510774284       -9.0195707281  CLST         815          1.0000000000
      2446       816  TIP3  OH2          -8.3625346933      -13.6559143250        1.2817553674  CLST         816          1.0000000000
      2447       816  TIP3  H1           -8.9561685759      -14.3882528312        1.2791717564  CLST         816          1.0000000000
      2448       816  TIP3  H2           -9.2018445200      -13.2021975543        1.3906857976  CLST         816          1.0000000000
      2449       817  TIP3  OH2           3.4680710098       14.3152442932       10.7488563281  CLST         817          1.0000000000
      2450       817  TIP3  H1            2.9283582286       13.6509392934       10.3447218465  CLST         817          1.0000000000
      2451       817  TIP3  H2            3.1101320750       14.0581371890       11.6148858073  CLST         817          1.0000000000
      2452       818  TIP3  OH2          11.6946436666       -3.6075248643       -5.5274800910  CLST         818          1.0000000000
      2453       818  TIP3  H1           11.8250757334       -2.9186448187       -4.8261317180  CLST         818          1.0000000000
      2454       818  TIP3  H2           10.9022822176       -2.9748406586       -5.6853025258  CLST         818          1.0000000000
      2455       819  TIP3  OH2           0.1789111318        0.2036702984      -10.3803691153  CLST         819          1.0000000000
      2456       819  TIP3  H1            0.3029454960       -0.4452657147      -11.1660283313  CLST         819          1.0000000000
      2457       819  TIP3  H2            1.0724341204        0.6584554443      -10.4862056658  CLST         819          1.0000000000
      2458       820  TIP3  OH2         -11.2955706635       -7.8875114681       14.2796394594  CLST         820          1.0000000000
      2459       820  TIP3  H1          -11.7639393244       -8.4472575946       13.6647137997  CLST         820          1.0000000000
      2460       820  TIP3  H2          -10.8578040049       -8.7170887750       14.6131285769  CLST         820          1.0000000000
      2461       821  TIP3  OH2          11.8818083294       -0.9886834517       14.6980568041  CLST         821          1.0000000000
      2462       821  TIP3  H1           12.1881337583       -1.4493426282       13.8638418728  CLST         821          1.0000000000
      2463       821  TIP3  H2           11.6294577088       -1.9377318957       14.8485576817  CLST         821          1.0000000000
      2464       822  TIP3  OH2          -7.0818676346       14.1719676145        9.4123343506  CLST         822          1.0000000000
      2465       822  TIP3  H1           -6.9626898906       13.8870971097        8.5102775970  CLST         822          1.0000000000
      2466       822  TIP3  H2           -7.1724557924       13.3122405174        9.7835885938  CLST         822          1.0000000000
      2467       823  TIP3  OH2          -9.2310232239       -1.7607809685        7.4785951788  CLST         823          1.0000000000
      2468       823  TIP3  H1           -9.2409055412       -2.5569142058        8.0591055770  CLST         823          1.0000000000
      2469       823  TIP3  H2           -8.2837400543       -1.9266760718        7.3768943007  CLST         823          1.0000000000
      2470       824  TIP3  OH2          10.9450729555        0.7610847996        7.0878351115  CLST         824          1.0000000000
      2471       824  TIP3  H1           10.6196269752        0.8045072252        6.1771473700  CLST         824          1.0000000000
      2472       824  TIP3  H2           10.5826516970        1.7796707684        6.8028460194  CLST         824          1.0000000000
      2473       825  TIP3  OH2          -4.7235801293      -11.8352699499      -14.1335990515  CLST         825          1.0000000000
      2474       825  TIP3  H1           -5.2853493694      -12.5761093643      -14.0299960661  CLST         825          1.0000000000
      2475       825  TIP3  H2           -5.4494836736      -11.3006757725      -13.7861786700  CLST         825          1.0000000000
      2476       826  TIP3  OH2           4.4903056426      -13.9039000027        2.2592387253  CLST         826          1.0000000000
      2477       826  TIP3  H1            4.4851920581      -14.8661491501        2.2761860012  CLST         826          1.0000000000
      2478       826  TIP3  H2            5.4357283634      -13.9480348744        2.3469357291  CLST         826          1.0000000000
      2479       827  TIP3  OH2         -10.0375607888        8.7255091556       -6.5568782815  CLST         827          1.0000000000
      2480       827  TIP3  H1           -9.4784922331        8.9434220920       -5.8216019322  CLST         827          1.0000000000
      2481       827  TIP3  H2           -9.8442436250        7.7809664935       -6.6775752587  CLST         827          1.0000000000
      2482       828  TIP3  OH2         -10.0742898136       -7.8677322682       11.3414582894  CLST         828          1.0000000000
      2483       828  TIP3  H1           -9.1647092297       -7.7233984686       11.5901599521  CLST         828          1.0000000000
      2484       828  TIP3  H2           -9.9994983680       -6.8967754162       11.1433181699  CLST         828          1.0000000000
      2485       829  TIP3  OH2           2.9936740350       13.7141594777        6.0038187209  CLST         829          1.0000000000
      2486       829  TIP3  H1            3.4663441719       14.3033526845        6.8701018170  CLST         829          1.0000000000
      2487       829  TIP3  H2            3.1159314721       14.8422778383        6.0873951876  CLST         829          1.0000000000
      2488       830  TIP3  OH2          14.1107566588        2.8141322857        9.2389589050  CLST         830          1.0000000000
      2489       830  TIP3  H1           14.4839824102        3.4483732087        9.8632275153  CLST         830          1.0000000000
      2490       830  TIP3  H2           14.7591682184        2.9648517534        8.5250520729  CLST         830          1.0000000000
      2491       831  TIP3  OH2           3.0886216175        2.4660052242        7.6783282039  CLST         831          1.0000000000
      2492       831  TIP3  H1            3.7270777134        3.1470464459        7.8186767399  CLST         831          1.0000000000
      2493       831  TIP3  H2            2.5853675031        3.2973111917        7.8816116007  CLST         831          1.0000000000
      2494       832  TIP3  OH2         -12.5859067780       -2.6842251508        1.0785725204  CLST         832          1.0000000000
      2495       832  TIP3  H1          -12.8662767648       -1.5970738653        1.0459686063  CLST         832          1.0000000000
      2496       832  TIP3  H2          -13.0093139014       -2.3904906289        1.7673820487  CLST         832          1.0000000000
      2497       833  TIP3  OH2           1.2611917614      -11.6704232007        5.6846373890  CLST         833          1.0000000000
      2498       833  TIP3  H1            1.3945386666      -10.9393130130        6.3009360098  CLST         833          1.0000000000
      2499       833  TIP3  H2            2.1510388253      -11.8407473120        5.3219197299  CLST         833          1.0000000000
      2500       834  TIP3  OH2           3.4540508981       -3.2377090335        4.1267858309  CLST         834          1.0000000000
      2501       834  TIP3  H1            2.8436762390       -2.5490256652        4.0404270730  CLST         834          1.0000000000
      2502       834  TIP3  H2            3.9219226669       -2.8025869700        4.8723282859  CLST         834          1.0000000000
      2503       835  TIP3  OH2           4.4517718336        2.5708616758        0.3701562573  CLST         835          1.0000000000
      2504       835  TIP3  H1            3.7615897863        2.7973075142       -0.4678030722  CLST         835          1.0000000000
      2505       835  TIP3  H2            4.1701210118        1.8217878435       -0.5169205204  CLST         835          1.0000000000
      2506       836  TIP3  OH2           7.4569219764       -5.8370465300       -9.7117159198  CLST         836          1.0000000000
      2507       836  TIP3  H1            6.7927317767       -6.4710919909       -9.4212355334  CLST         836          1.0000000000
      2508       836  TIP3  H2            8.0153161746       -6.6200647743       -9.7372503257  CLST         836          1.0000000000
      2509       837  TIP3  OH2           3.0678378960        6.1233873398       -0.5611506886  CLST         837          1.0000000000
      2510       837  TIP3  H1            2.2486409754        5.8147228138       -1.0509465510  CLST         837          1.0000000000
      2511       837  TIP3  H2            2.3443510560        6.6500391604       -0.0696711495  CLST         837          1.0000000000
      2512       838  TIP3  OH2          -1.6102970922      -13.7307484467      -11.1147814640  CLST         838          1.0000000000
      2513       838  TIP3  H1           -1.2891775841      -14.6523839425      -10.8478729018  CLST         838          1.0000000000
      2514       838  TIP3  H2           -2.2750206933      -14.1836134653      -11.6514186403  CLST         838          1.0000000000
      2515       839  TIP3  OH2           1.6365787797       -7.0951363247       -1.2150921413  CLST         839          1.0000000000
      2516       839  TIP3  H1            1.4218377933       -7.6016741534       -0.4117236018  CLST         839          1.0000000000
      2517       839  TIP3  H2            0.6737978911       -7.0868473298       -1.4949514692  CLST         839          1.0000000000
      2518       840  TIP3  OH2          -7.6568055101       11.7632736990       10.2472004373  CLST         840          1.0000000000
      2519       840  TIP3  H1           -7.3916353761       11.4202340310       11.1130461748  CLST         840          1.0000000000
      2520       840  TIP3  H2           -6.9663883342       11.1262550693        9.9776859245  CLST         840          1.0000000000
      2521       841  TIP3  OH2          -8.5644161982       -7.6559036928       -4.2254948221  CLST         841          1.0000000000
      2522       841  TIP3  H1           -8.1791243154       -7.7711729684       -3.3786166034  CLST         841          1.0000000000
      2523       841  TIP3  H2           -7.6565552007       -7.3892546262       -4.5394100392  CLST         841          1.0000000000
      2524       842  TIP3  OH2          11.5020903791      -13.7758814056        0.1349328750  CLST         842          1.0000000000
      2525       842  TIP3  H1           11.5857031893      -13.8701652842        1.1016539020  CLST         842          1.0000000000
      2526       842  TIP3  H2           11.3314555721      -14.6859548351        0.2699022616  CLST         842          1.0000000000
      2527       843  TIP3  OH2           9.2833241670       13.0250360227        3.4643890971  CLST         843          1.0000000000
      2528       843  TIP3  H1            8.6973722920       12.5972073224        4.1039208722  CLST         843          1.0000000000
      2529       843  TIP3  H2            8.5507414761       13.3631583543        2.9493678576  CLST         843          1.0000000000
      2530       844  TIP3  OH2           1.5665266637      -12.5388032913       -2.0439663435  CLST         844          1.0000000000
      2531       844  TIP3  H1            1.9018384561      -12.4374023703       -1.1449763616  CLST         844          1.0000000000
      2532       844  TIP3  H2            0.7376523526      -12.5798330594       -1.5722739946  CLST         844          1.0000000000
      2533       845  TIP3  OH2         -14.6125537495        4.4459641846       10.8409858214  CLST         845          1.0000000000
      2534       845  TIP3  H1          -14.8605370008        3.9766315986       11.5994941183  CLST         845          1.0000000000
      2535       845  TIP3  H2          -13.7567476621        4.6245032726       11.5818279358  CLST         845          1.0000000000
      2536       846  TIP3  OH2         -10.8584363943       -7.6672259548        2.4228643434  CLST         846          1.0000000000
      2537       846  TIP3  H1          -11.6923107121       -8.0316587107        2.7557271186  CLST         846          1.0000000000
      2538       846  TIP3  H2          -11.3836989261       -6.8636494923        2.3164165606  CLST         846          1.0000000000
      2539       847  TIP3  OH2           4.5785845417        9.7842934342        4.9881381757  CLST         847          1.0000000000
      2540       847  TIP3  H1            4.5965525280       10.6936566844        4.9818955496  CLST         847          1.0000000000
      2541       847  TIP3  H2            5.1977714721        9.8711635805        5.7243140515  CLST         847          1.0000000000
      2542       848  TIP3  OH2          -9.4667904386        5.9916675136       -9.9941359042  CLST         848          1.0000000000
      2543       848  TIP3  H1          -10.0443289039        5.3832688913      -10.3370634830  CLST         848          1.0000000000
      2544       848  TIP3  H2          -10.2394425653        6.5446781343       -9.8860915620  CLST         848          1.0000000000
      2545       849  TIP3  OH2          -1.8466710388        1.7123201810        0.1755443615  CLST         849          1.0000000000
      2546       849  TIP3  H1           -0.9171072658        1.9175878586       -0.1516931326  CLST         849          1.0000000000
      2547       849  TIP3  H2           -2.1505820053        1.8888083257       -0.6676282865  CLST         849          1.0000000000
      2548       850  TIP3  OH2           5.4655197589       -6.6786197493        6.0138580237  CLST         850          1.0000000000
      2549       850  TIP3  H1            4.6777311355       -6.3239694756        6.4771039061  CLST         850          1.0000000000
      2550       850  TIP3  H2            5.9700124203       -5.9711199431        6.4636044456  CLST         850          1.0000000000
      2551       851  TIP3  OH2           8.2776037198        6.5119537988        5.2650885916  CLST         851          1.0000000000
      2552       851  TIP3  H1            8.1899800769        7.1395453921        5.9558380954  CLST         851          1.0000000000
      2553       851  TIP3  H2            8.9680987554        6.9809185004        4.8701546434  CLST         851          1.0000000000
      2554       852  TIP3  OH2           9.1359910474        4.2647154712        1.4696989604  CLST         852          1.0000000000
      2555       852  TIP3  H1            8.2040500804        4.1512659247        2.1217441794  CLST         852          1.0000000000
      2556       852  TIP3  H2            8.0842128595        4.7089483929        1.2773534835  CLST         852          1.0000000000
      2557       853  TIP3  OH2           8.8723703412       -4.9355006451       -3.2108261137  CLST         853          1.0000000000
      2558       853  TIP3  H1            8.2025751779       -5.7311895112       -3.6215567048  CLST         853          1.0000000000
      2559       853  TIP3  H2            8.0958880070       -4.7933674453       -3.0456778438  CLST         853          1.0000000000
      2560       854  TIP3  OH2         -10.5652302516       -9.4561169327       -6.0693431676  CLST         854          1.0000000000
      2561       854  TIP3  H1          -10.0602651334       -8.6644230942       -6.1041092664  CLST         854          1.0000000000
      2562       854  TIP3  H2          -10.5266989894       -9.1853691281       -5.1506557451  CLST         854          1.0000000000
      2563       855  TIP3  OH2           2.7074468128       -3.4265439998       -6.7124814965  CLST         855          1.0000000000
      2564       855  TIP3  H1            2.1588559549       -3.1003746817       -5.9850149299  CLST         855          1.0000000000
      2565       855  TIP3  H2            2.5806400987       -2.5075688400       -7.0431511034  CLST         855          1.0000000000
      2566       856  TIP3  OH2           3.1334267494      -12.5919336260        0.1422321308  CLST         856          1.0000000000
      2567       856  TIP3  H1            3.8931163420      -12.0420351221       -0.1205799069  CLST         856          1.0000000000
      2568       856  TIP3  H2            3.7065882845      -12.8487731736        0.9035820889  CLST         856          1.0000000000
      2569       857  TIP3  OH2          -3.0676740376       -5.6300112545       10.9433293252  CLST         857          1.0000000000
      2570       857  TIP3  H1           -3.4456361671       -5.7811849204       11.8041429264  CLST         857          1.0000000000
      2571       857  TIP3  H2           -2.5788934531       -4.8284946569       11.1095978392  CLST         857          1.0000000000
      2572       858  TIP3  OH2           5.6812279522      -14.3811635484       12.8299358073  CLST         858          1.0000000000
      2573       858  TIP3  H1            5.9560721693      -14.8666647993       13.5541083826  CLST         858          1.0000000000
      2574       858  TIP3  H2            5.0137892308      -13.9426645969       13.3375133707  CLST         858          1.0000000000
      2575       859  TIP3  OH2          -8.6948568709       -1.4709106557      -12.9415078912  CLST         859          1.0000000000
      2576       859  TIP3  H1           -7.9634355600       -2.0808606126      -12.9242586491  CLST         859          1.0000000000
      2577       859  TIP3  H2           -8.3009096530       -1.1771069023      -12.1270308765  CLST         859          1.0000000000
      2578       860  TIP3  OH2          -9.6685278408       -6.4854498247       -0.9530749801  CLST         860          1.0000000000
      2579       860  TIP3  H1           -9.5239620110       -5.9669573436       -1.7411856507  CLST         860          1.0000000000
      2580       860  TIP3  H2           -9.0418618757       -7.0976655556       -1.3797489154  CLST         860          1.0000000000
      2581       861  TIP3  OH2           5.1154003892      -10.0615852089       -4.2846468298  CLST         861          1.0000000000
      2582       861  TIP3  H1            4.7427283236      -10.3728412715       -3.4573811155  CLST         861          1.0000000000
      2583       861  TIP3  H2            5.0580833491      -11.0244447157       -4.4216163313  CLST         861          1.0000000000
      2584       862  TIP3  OH2         -11.0141839980       -2.6318179105      -12.7224556081  CLST         862          1.0000000000
      2585       862  TIP3  H1          -10.2573034015       -2.2374247499      -13.1397246953  CLST         862          1.0000000000
      2586       862  TIP3  H2          -10.3786192062       -2.5677930114      -11.9384871972  CLST         862          1.0000000000
      2587       863  TIP3  OH2          10.7213561242      -10.5950278142       -8.6296641755  CLST         863          1.0000000000
      2588       863  TIP3  H1           11.6877458507      -10.5260221688       -7.9829481187  CLST         863          1.0000000000
      2589       863  TIP3  H2           11.6560973414      -10.4668364433       -8.9651676513  CLST         863          1.0000000000
      2590       864  TIP3  OH2         -13.7141595923        3.4106609651        3.1968068762  CLST         864          1.0000000000
      2591       864  TIP3  H1          -14.2811927330        3.4404283353        4.0103413351  CLST         864          1.0000000000
      2592       864  TIP3  H2          -14.5339317506        2.9164963028        2.9078648259  CLST         864          1.0000000000
      2593       865  TIP3  OH2          12.4800361416        8.6813657990      -11.2642240331  CLST         865          1.0000000000
      2594       865  TIP3  H1           13.0546683655        7.9017886188      -11.4436148009  CLST         865          1.0000000000
      2595       865  TIP3  H2           12.6657504153        8.5142485967      -10.3713340989  CLST         865          1.0000000000
      2596       866  TIP3  OH2           6.6568628705      -10.2225881028       -8.0995016035  CLST         866          1.0000000000
      2597       866  TIP3  H1            6.1933784179      -10.8018426699       -7.8063749845  CLST         866          1.0000000000
      2598       866  TIP3  H2            6.8483959393      -11.0770466762       -8.6691988192  CLST         866          1.0000000000
      2599       867  TIP3  OH2          -8.3733017149       11.9775945201       -3.2338999436  CLST         867          1.0000000000
      2600       867  TIP3  H1           -9.0161437143       11.8659040660       -2.5720893687  CLST         867          1.0000000000
      2601       867  TIP3  H2           -7.8186628284       12.6056993616       -2.7378547018  CLST         867          1.0000000000
      2602       868  TIP3  OH2         -10.0146551360       13.0543748948        9.9883783376  CLST         868          1.0000000000
      2603       868  TIP3  H1           -9.4149518844       12.2225540622       10.0826412598  CLST         868          1.0000000000
      2604       868  TIP3  H2           -9.1846173027       13.2511369672        9.4615812503  CLST         868          1.0000000000
      2605       869  TIP3  OH2           3.2911540023       -1.4514211677        1.2523355175  CLST         869          1.0000000000
      2606       869  TIP3  H1            2.2824866737       -1.6731664597        1.1350992796  CLST         869          1.0000000000
      2607       869  TIP3  H2            2.9981539454       -0.9721233105        2.0695112983  CLST         869          1.0000000000
      2608       870  TIP3  OH2          -6.9687446570       -3.6042102099      -12.8289829469  CLST         870          1.0000000000
      2609       870  TIP3  H1           -5.9803067070       -3.6881812163      -12.8281526063  CLST         870          1.0000000000
      2610       870  TIP3  H2           -6.8141047654       -4.0313794636      -13.6863301005  CLST         870          1.0000000000
      2611       871  TIP3  OH2          -7.1741397680        2.4850006581       -9.9545952579  CLST         871          1.0000000000
      2612       871  TIP3  H1           -7.1752008579        2.6533787282      -10.8890237846  CLST         871          1.0000000000
      2613       871  TIP3  H2           -8.1084206294        2.6108833786       -9.9323460394  CLST         871          1.0000000000
      2614       872  TIP3  OH2         -13.1077216106       11.3797441692      -10.0142455459  CLST         872          1.0000000000
      2615       872  TIP3  H1          -13.1902742897       11.6293916602      -10.8837712980  CLST         872          1.0000000000
      2616       872  TIP3  H2          -13.0465105407       10.6300397732      -10.9278280326  CLST         872          1.0000000000
      2617       873  TIP3  OH2          11.8240732843       -4.5753802233       -9.8396184121  CLST         873          1.0000000000
      2618       873  TIP3  H1           11.0837857878       -3.9856140947       -9.9820395121  CLST         873          1.0000000000
      2619       873  TIP3  H2           11.9386296290       -4.5328033351      -10.7944025252  CLST         873          1.0000000000
      2620       874  TIP3  OH2          12.7058007883        8.4016739275       -8.6070121687  CLST         874          1.0000000000
      2621       874  TIP3  H1           12.9330616322        7.7255152606       -7.9143394054  CLST         874          1.0000000000
      2622       874  TIP3  H2           11.7861941909        8.4104073602       -8.2388401526  CLST         874          1.0000000000
      2623       875  TIP3  OH2           1.4193930021       -1.4843449305      -12.2395652900  CLST         875          1.0000000000
      2624       875  TIP3  H1            2.1632921887       -1.8060326355      -12.6492803025  CLST         875          1.0000000000
      2625       875  TIP3  H2            0.9248341569       -1.7762384223      -12.9938725941  CLST         875          1.0000000000
      2626       876  TIP3  OH2           9.1365092079        7.1275463113      -11.9697583594  CLST         876          1.0000000000
      2627       876  TIP3  H1            8.7030196236        6.7401630286      -12.7321139441  CLST         876          1.0000000000
      2628       876  TIP3  H2            8.3257456162        7.1051068610      -11.5207632511  CLST         876          1.0000000000
      2629       877  TIP3  OH2          -7.2313404923      -13.4059184778       -5.1848052183  CLST         877          1.0000000000
      2630       877  TIP3  H1           -7.6653319428      -12.9858878581       -4.4413889250  CLST         877          1.0000000000
      2631       877  TIP3  H2           -6.5284967804      -12.7559903663       -5.0028678652  CLST         877          1.0000000000
      2632       878  TIP3  OH2           5.5278048439      -11.1545764602        6.8711489293  CLST         878          1.0000000000
      2633       878  TIP3  H1            5.0381015806      -11.1835736226        6.1040592781  CLST         878          1.0000000000
      2634       878  TIP3  H2            5.3042693165      -10.1827206863        6.7828298134  CLST         878          1.0000000000
      2635       879  TIP3  OH2           2.8634013416        5.0770461657       -7.1024091510  CLST         879          1.0000000000
      2636       879  TIP3  H1            3.4041290402        5.8158046164       -7.5705376320  CLST         879          1.0000000000
      2637       879  TIP3  H2            3.7834493505        5.0205042357       -6.7324722300  CLST         879          1.0000000000
      2638       880  TIP3  OH2          -5.2950228278       -1.7399128150       14.8498519531  CLST         880          1.0000000000
      2639       880  TIP3  H1           -6.1206813396       -2.2833578450       14.6805626295  CLST         880          1.0000000000
      2640       880  TIP3  H2           -5.8467166304       -1.0956232191       14.3474312622  CLST         880          1.0000000000
      2641       881  TIP3  OH2          -0.6676511791       13.2404061295        8.5823339423  CLST         881          1.0000000000
      2642       881  TIP3  H1           -0.3719051150       13.3817104880        7.6329627975  CLST         881          1.0000000000
      2643       881  TIP3  H2           -1.4455057591       13.0317758594        8.0928341144  CLST         881          1.0000000000
      2644       882  TIP3  OH2          11.5045536763       -2.0516395916       -1.4304003666  CLST         882          1.0000000000
      2645       882  TIP3  H1           10.8157228073       -2.5548648652       -1.7798653000  CLST         882          1.0000000000
      2646       882  TIP3  H2           11.5859775490       -2.6807786817       -0.6633040957  CLST         882          1.0000000000
      2647       883  TIP3  OH2           1.5599771279       -9.9307881725       -4.4196591560  CLST         883          1.0000000000
      2648       883  TIP3  H1            2.4124763065       -9.5755385195       -4.0480530272  CLST         883          1.0000000000
      2649       883  TIP3  H2            2.1347480790       -9.9944663017       -5.2078622740  CLST         883          1.0000000000
      2650       884  TIP3  OH2         -13.7076121457       -5.6941923175      -13.1176512874  CLST         884          1.0000000000
      2651       884  TIP3  H1          -12.9625089769       -6.2878402017      -13.2745548840  CLST         884          1.0000000000
      2652       884  TIP3  H2          -14.3222675698       -6.2797204167      -12.6412502671  CLST         884          1.0000000000
      2653       885  TIP3  OH2           0.8730201578       14.6970441247       -0.6612525704  CLST         885          1.0000000000
      2654       885  TIP3  H1           -0.0922945236       14.7088173948       -0.4144614547  CLST         885          1.0000000000
      2655       885  TIP3  H2            0.7479797343       13.7726284932       -0.2587115188  CLST         885          1.0000000000
      2656       886  TIP3  OH2          11.7079224672       10.1080217039        4.2013398731  CLST         886          1.0000000000
      2657       886  TIP3  H1           11.7622908696        9.2677136620        4.7606628027  CLST         886          1.0000000000
      2658       886  TIP3  H2           11.7010801375       10.3899576447        5.0737978311  CLST         886          1.0000000000
      2659       887  TIP3  OH2          -7.5980645882       -8.0412286344       -1.6909633167  CLST         887          1.0000000000
      2660       887  TIP3  H1           -7.6234286737       -9.0273697258       -1.9495235748  CLST         887          1.0000000000
      2661       887  TIP3  H2           -6.6825248721       -8.2337427189       -1.4472146463  CLST         887          1.0000000000
      2662       888  TIP3  OH2         -13.0922437395       -2.9670683774       10.4936469717  CLST         888          1.0000000000
      2663       888  TIP3  H1          -13.4590479694       -2.9656950812       11.4345416723  CLST         888          1.0000000000
      2664       888  TIP3  H2          -12.5808264319       -2.1836463822       10.8343708521  CLST         888          1.0000000000
      2665       889  TIP3  OH2           4.7543004759      -12.9539301246        8.8735991355  CLST         889          1.0000000000
      2666       889  TIP3  H1            5.1498160251      -12.3379055517        8.1626503476  CLST         889          1.0000000000
      2667       889  TIP3  H2            4.9066252083      -12.1586227642        9.4183153721  CLST         889          1.0000000000
      2668       890  TIP3  OH2         -13.6775490328        5.9136365708       -9.7015009660  CLST         890          1.0000000000
      2669       890  TIP3  H1          -13.8142908776        6.2566034198      -10.6159628832  CLST         890          1.0000000000
      2670       890  TIP3  H2          -14.3161877616        6.6156592602       -9.5051353645  CLST         890          1.0000000000
      2671       891  TIP3  OH2         -12.8857783680       -5.6799494419       10.7786786574  CLST         891          1.0000000000
      2672       891  TIP3  H1          -13.2049982737       -4.7848033966       10.5993277969  CLST         891          1.0000000000
      2673       891  TIP3  H2          -12.6833280965       -5.7693492218        9.8471404873  CLST         891          1.0000000000
      2674       892  TIP3  OH2           2.8353240829       13.6011472184       13.7211514420  CLST         892          1.0000000000
      2675       892  TIP3  H1            3.2314116882       14.2307950087       14.2733222618  CLST         892          1.0000000000
      2676       892  TIP3  H2            2.6449057841       13.0951937199       14.5182237313  CLST         892          1.0000000000
      2677       893  TIP3  OH2          -0.4810161527        7.2665078600        3.5031308517  CLST         893          1.0000000000
      2678       893  TIP3  H1           -0.9456961835        6.5365778357        3.0416449827  CLST         893          1.0000000000
      2679       893  TIP3  H2           -1.1436283508        7.7631948462        3.0145824077  CLST         893          1.0000000000
      2680       894  TIP3  OH2           9.4155684574       11.0383377864        0.4585791302  CLST         894          1.0000000000
      2681       894  TIP3  H1            9.8123763322       11.7159180006        1.0012070817  CLST         894          1.0000000000
      2682       894  TIP3  H2            8.7513129602       11.5265730140       -0.0315488200  CLST         894          1.0000000000
      2683       895  TIP3  OH2          -9.9466458508       10.2794971941      -10.7149952491  CLST         895          1.0000000000
      2684       895  TIP3  H1          -10.5112179343       11.0444740282      -10.4205683342  CLST         895          1.0000000000
      2685       895  TIP3  H2           -9.3086965797       10.9871907588      -10.6663510688  CLST         895          1.0000000000
      2686       896  TIP3  OH2           8.0359387170       -6.4795287938       -0.6320061189  CLST         896          1.0000000000
      2687       896  TIP3  H1            7.1977301401       -6.5223358913       -1.2089141167  CLST         896          1.0000000000
      2688       896  TIP3  H2            8.2930196005       -7.0800546732       -1.2743582431  CLST         896          1.0000000000
      2689       897  TIP3  OH2           9.6211470174       -2.4223449750       -9.1263817568  CLST         897          1.0000000000
      2690       897  TIP3  H1            9.4250430321       -2.6833803327       -8.1971717777  CLST         897          1.0000000000
      2691       897  TIP3  H2            9.5873318581       -1.5230025932       -8.7258221351  CLST         897          1.0000000000
      2692       898  TIP3  OH2          13.8800892868        6.0584481438      -11.4128229610  CLST         898          1.0000000000
      2693       898  TIP3  H1           14.2609755176        5.2283242275      -11.0300329425  CLST         898          1.0000000000
      2694       898  TIP3  H2           12.9937156234        5.8258569988      -11.0257531839  CLST         898          1.0000000000
      2695       899  TIP3  OH2          14.2020387585       -6.6552817737        1.7272100895  CLST         899          1.0000000000
      2696       899  TIP3  H1           14.4032903567       -7.5867047662        1.5868158642  CLST         899          1.0000000000
      2697       899  TIP3  H2           13.7554548281       -6.7135889452        2.5604871937  CLST         899          1.0000000000
      2698       900  TIP3  OH2          -9.8679045011      -10.2164791752       10.0312057862  CLST         900          1.0000000000
      2699       900  TIP3  H1           -9.3935687957       -9.3466637377       10.6388161308  CLST         900          1.0000000000
      2700       900  TIP3  H2           -9.0076654482       -9.6128852126        9.6847523284  CLST         900          1.0000000000
      2701       901  TIP3  OH2          10.1530514171        8.8800182482       -8.7699784781  CLST         901          1.0000000000
      2702       901  TIP3  H1           10.3732600445        9.6452225638       -9.3073088368  CLST         901          1.0000000000
      2703       901  TIP3  H2            9.3411334729        8.7589183580       -9.1947482741  CLST         901          1.0000000000
      2704       902  TIP3  OH2           3.8903123580        0.4528476319        9.7840856876  CLST         902          1.0000000000
      2705       902  TIP3  H1            4.2145148111       -0.1075859138        9.0227258663  CLST         902          1.0000000000
      2706       902  TIP3  H2            3.4828134842        1.0302199206        9.0796324927  CLST         902          1.0000000000
      2707       903  TIP3  OH2          -1.1536585204        0.8099278631       -8.0597441608  CLST         903          1.0000000000
      2708       903  TIP3  H1           -0.8510994360        0.7733279701       -8.9863524964  CLST         903          1.0000000000
      2709       903  TIP3  H2           -0.4561971699        0.1959154192       -7.9543872759  CLST         903          1.0000000000
