* initial
*
        1644  EXT
         1         1  TIP3  OH2           4.3217076152       -1.5134473886       -2.4136474199  CLST           1          1.0000000000
         2         1  TIP3  H1            4.7513537779       -1.4306810123       -1.5362671680  CLST           1          1.0000000000
         3         1  TIP3  H2            4.8268480037       -2.2703180411       -2.7792471177  CLST           1          1.0000000000
         4         2  TIP3  OH2          10.6981878726        7.3268853926      -11.6328204748  CLST           2          1.0000000000
         5         2  TIP3  H1           11.0524109299        6.9971450663      -10.7823799563  CLST           2          1.0000000000
         6         2  TIP3  H2            9.7426770042        7.2970007488      -11.4482607570  CLST           2          1.0000000000
         7         3  TIP3  OH2           8.9851112888        4.9146616805       -3.8759839374  CLST           3          1.0000000000
         8         3  TIP3  H1            9.4661041212        5.0888633144       -3.0338162223  CLST           3          1.0000000000
         9         3  TIP3  H2            9.3025065664        5.6535295803       -4.4218771202  CLST           3          1.0000000000
        10         4  TIP3  OH2          -1.8762999496        7.1729753547       10.4573128766  CLST           4          1.0000000000
        11         4  TIP3  H1           -2.8284283189        7.3087570346       10.3540107110  CLST           4          1.0000000000
        12         4  TIP3  H2           -1.6492977450        7.8055819800       11.1655193165  CLST           4          1.0000000000
        13         5  TIP3  OH2           8.3237981881        6.1576446200       10.7989407683  CLST           5          1.0000000000
        14         5  TIP3  H1            7.6831298576        5.5727169366       11.2595788646  CLST           5          1.0000000000
        15         5  TIP3  H2            8.5629496618        5.5751834356       10.0547947889  CLST           5          1.0000000000
        16         6  TIP3  OH2          11.0193891581       -5.9471988754      -11.6858726561  CLST           6          1.0000000000
        17         6  TIP3  H1           11.2256830352       -5.4480541666      -10.8704666582  CLST           6          1.0000000000
        18         6  TIP3  H2           11.1302338443       -5.2228690723      -12.3318680162  CLST           6          1.0000000000
        19         7  TIP3  OH2         -12.5485056171        8.3168568655        5.4179103130  CLST           7          1.0000000000
        20         7  TIP3  H1          -12.7295641260        9.2687678796        5.5140717957  CLST           7          1.0000000000
        21         7  TIP3  H2          -11.6279195603        8.2652121463        5.7263149019  CLST           7          1.0000000000
        22         8  TIP3  OH2          -4.2303383836       -7.8781305082        0.9193714261  CLST           8          1.0000000000
        23         8  TIP3  H1           -4.7181481342       -7.3518011101        1.5893172451  CLST           8          1.0000000000
        24         8  TIP3  H2           -3.4526236256       -7.3203238370        0.7424736629  CLST           8          1.0000000000
        25         9  TIP3  OH2           2.0472228734      -14.0210422135       -4.0687308416  CLST           9          1.0000000000
        26         9  TIP3  H1            1.1497013033      -14.2128220934       -3.7640539944  CLST           9          1.0000000000
        27         9  TIP3  H2            2.2523804875      -13.2325666489       -3.5309232850  CLST           9          1.0000000000
        28        10  TIP3  OH2         -14.5031207048       -0.7845321332       -1.1498788717  CLST          10          1.0000000000
        29        10  TIP3  H1          -13.8208060331       -1.4041510520       -1.4918694513  CLST          10          1.0000000000
        30        10  TIP3  H2          -15.1264815435       -0.7486371837       -1.8794415162  CLST          10          1.0000000000
        31        11  TIP3  OH2           7.0897026207        7.0195135788       -1.5502655001  CLST          11          1.0000000000
        32        11  TIP3  H1            7.0690610907        6.0410864821       -1.5845114614  CLST          11          1.0000000000
        33        11  TIP3  H2            6.9598980236        7.2295379443       -2.4971265309  CLST          11          1.0000000000
        34        12  TIP3  OH2          -8.2116167030        2.7650211591        1.8822449775  CLST          12          1.0000000000
        35        12  TIP3  H1           -7.6635320508        2.9495511277        1.0878739113  CLST          12          1.0000000000
        36        12  TIP3  H2           -9.1060661977        2.8191291532        1.4772088130  CLST          12          1.0000000000
        37        13  TIP3  OH2           7.7981350885        2.2132943184        2.0063521520  CLST          13          1.0000000000
        38        13  TIP3  H1            7.7871852283        3.0317689296        1.4696368133  CLST          13          1.0000000000
        39        13  TIP3  H2            7.6570796346        2.5759268062        2.8982128263  CLST          13          1.0000000000
        40        14  TIP3  OH2          -0.2938620593        1.8702397214        8.5481512398  CLST          14          1.0000000000
        41        14  TIP3  H1           -0.3003475816        2.7033050760        8.0222320060  CLST          14          1.0000000000
        42        14  TIP3  H2            0.3726663938        1.3638727653        8.0267748709  CLST          14          1.0000000000
        43        15  TIP3  OH2          -8.9695950094       -4.2430799519      -13.0570291734  CLST          15          1.0000000000
        44        15  TIP3  H1           -8.6716309382       -4.5143527714      -13.9319871456  CLST          15          1.0000000000
        45        15  TIP3  H2           -8.3750866852       -4.8072238407      -12.5015912892  CLST          15          1.0000000000
        46        16  TIP3  OH2          -3.9528054315      -12.6203267519       -6.1436903310  CLST          16          1.0000000000
        47        16  TIP3  H1           -4.4676952042      -12.8288528335       -5.3371107658  CLST          16          1.0000000000
        48        16  TIP3  H2           -3.0420211343      -12.5753952912       -5.7767573639  CLST          16          1.0000000000
        49        17  TIP3  OH2           4.9202347015      -13.4230072087       -7.9696640952  CLST          17          1.0000000000
        50        17  TIP3  H1            5.4874175577      -13.1643087237       -7.2196209391  CLST          17          1.0000000000
        51        17  TIP3  H2            4.0584527703      -13.5297367134       -7.5205132431  CLST          17          1.0000000000
        52        18  TIP3  OH2         -11.8527698312       -7.0946371901       -2.2347541333  CLST          18          1.0000000000
        53        18  TIP3  H1          -12.3195593729       -6.2570822220       -2.4470159504  CLST          18          1.0000000000
        54        18  TIP3  H2          -11.6390052651       -7.3934525574       -3.1353446507  CLST          18          1.0000000000
        55        19  TIP3  OH2           9.8554506716        0.4600193463        9.2775192142  CLST          19          1.0000000000
        56        19  TIP3  H1            9.7122799092       -0.4047900510        9.7191602467  CLST          19          1.0000000000
        57        19  TIP3  H2           10.0494131557        0.1617956967        8.3583333848  CLST          19          1.0000000000
        58        20  TIP3  OH2         -12.9963043148        1.3712863010        2.7582283543  CLST          20          1.0000000000
        59        20  TIP3  H1          -13.9575453081        1.4159202914        2.7203682651  CLST          20          1.0000000000
        60        20  TIP3  H2          -12.7850714689        1.1520623804        1.8198600193  CLST          20          1.0000000000
        61        21  TIP3  OH2         -10.4107466602       12.0047205947       -4.7687058554  CLST          21          1.0000000000
        62        21  TIP3  H1          -10.3983144260       12.9645640827       -4.8142828171  CLST          21          1.0000000000
        63        21  TIP3  H2          -10.0919127032       11.7602293846       -5.6612285328  CLST          21          1.0000000000
        64        22  TIP3  OH2           2.4077114809       12.4110647113       -6.3615780388  CLST          22          1.0000000000
        65        22  TIP3  H1            2.9261179951       12.5579222036       -5.5471198394  CLST          22          1.0000000000
        66        22  TIP3  H2            2.4341735303       11.4412846261       -6.4487957654  CLST          22          1.0000000000
        67        23  TIP3  OH2           5.1088067128       -1.5352114696       11.8065153497  CLST          23          1.0000000000
        68        23  TIP3  H1            4.6421314195       -1.9020692546       11.0242178186  CLST          23          1.0000000000
        69        23  TIP3  H2            5.0915162963       -0.5810645762       11.5835026358  CLST          23          1.0000000000
        70        24  TIP3  OH2          -0.2118591000        1.3137868431        4.8736352840  CLST          24          1.0000000000
        71        24  TIP3  H1            0.5413147147        1.1417471121        5.4720398879  CLST          24          1.0000000000
        72        24  TIP3  H2           -0.8704813999        0.7030108822        5.2778108569  CLST          24          1.0000000000
        73        25  TIP3  OH2           2.9700243601        1.7587457728       -2.8165540246  CLST          25          1.0000000000
        74        25  TIP3  H1            3.2598584123        1.4103810285       -1.9404807987  CLST          25          1.0000000000
        75        25  TIP3  H2            3.6274066255        2.4796978511       -2.9134446154  CLST          25          1.0000000000
        76        26  TIP3  OH2          11.6844271711        5.4745170028       -6.5338719686  CLST          26          1.0000000000
        77        26  TIP3  H1           10.7736743094        5.1859318220       -6.7718236502  CLST          26          1.0000000000
        78        26  TIP3  H2           11.4762521512        6.2438398213       -5.9790556682  CLST          26          1.0000000000
        79        27  TIP3  OH2          -9.8890484167        7.0401464508       -5.4632316033  CLST          27          1.0000000000
        80        27  TIP3  H1          -10.7021733215        7.4523302478       -5.7725715649  CLST          27          1.0000000000
        81        27  TIP3  H2           -9.2823249619        7.8138798628       -5.4357723884  CLST          27          1.0000000000
        82        28  TIP3  OH2          -4.3015684170       -9.9442554308       -6.5645281317  CLST          28          1.0000000000
        83        28  TIP3  H1           -4.2605393158      -10.9239401596       -6.5621212036  CLST          28          1.0000000000
        84        28  TIP3  H2           -5.0105617068       -9.8197133240       -5.9017073577  CLST          28          1.0000000000
        85        29  TIP3  OH2         -11.5000981370        7.1778003244       -2.0506171419  CLST          29          1.0000000000
        86        29  TIP3  H1          -10.7337359415        7.6764186514       -1.6805815948  CLST          29          1.0000000000
        87        29  TIP3  H2          -12.0436644892        7.9175375244       -2.3900496188  CLST          29          1.0000000000
        88        30  TIP3  OH2           8.7250591241       -9.9741827145       -2.1114784988  CLST          30          1.0000000000
        89        30  TIP3  H1            9.2070198857      -10.6105533120       -1.5453242052  CLST          30          1.0000000000
        90        30  TIP3  H2            8.2766736825      -10.6088583941       -2.7217712012  CLST          30          1.0000000000
        91        31  TIP3  OH2          -8.8407707482       -1.5010626438      -12.7133306669  CLST          31          1.0000000000
        92        31  TIP3  H1           -8.9473185781       -2.4645306405      -12.8506934294  CLST          31          1.0000000000
        93        31  TIP3  H2           -8.9827070336       -1.4241176873      -11.7548016740  CLST          31          1.0000000000
        94        32  TIP3  OH2          -8.5491482187       -6.6258331453        6.1906398689  CLST          32          1.0000000000
        95        32  TIP3  H1           -9.4305236378       -6.2209327167        6.2750300597  CLST          32          1.0000000000
        96        32  TIP3  H2           -8.1928557759       -6.1337735236        5.4235626507  CLST          32          1.0000000000
        97        33  TIP3  OH2          10.8746653147       -8.7111813177        8.8178007290  CLST          33          1.0000000000
        98        33  TIP3  H1           11.2046050283       -9.6250413882        8.9528975574  CLST          33          1.0000000000
        99        33  TIP3  H2           10.6832827260       -8.4562816192        9.7423555465  CLST          33          1.0000000000
       100        34  TIP3  OH2           3.7324701619       -3.8099733483        3.0184391446  CLST          34          1.0000000000
       101        34  TIP3  H1            3.1773588712       -4.3481286742        2.4119216873  CLST          34          1.0000000000
       102        34  TIP3  H2            3.7826099580       -4.3861236864        3.7989317192  CLST          34          1.0000000000
       103        35  TIP3  OH2           6.0438957580       -0.5975464857        3.9317885421  CLST          35          1.0000000000
       104        35  TIP3  H1            5.3357955467       -0.9903326796        4.4840890868  CLST          35          1.0000000000
       105        35  TIP3  H2            6.5731705977       -0.1315867762        4.6130921826  CLST          35          1.0000000000
       106        36  TIP3  OH2          -0.9694302247        0.6694388652        2.3076245870  CLST          36          1.0000000000
       107        36  TIP3  H1           -1.9228727052        0.5433754099        2.3440686535  CLST          36          1.0000000000
       108        36  TIP3  H2           -0.7392703284        0.8433960984        3.2418220586  CLST          36          1.0000000000
       109        37  TIP3  OH2          -3.9915330310       -7.7645809685      -13.0347772630  CLST          37          1.0000000000
       110        37  TIP3  H1           -4.7045777000       -7.9120685714      -12.3900856687  CLST          37          1.0000000000
       111        37  TIP3  H2           -3.5584748315       -8.6427825811      -13.0278346558  CLST          37          1.0000000000
       112        38  TIP3  OH2          -3.1417036357        2.4778052139       -4.7331914857  CLST          38          1.0000000000
       113        38  TIP3  H1           -3.1254616564        3.4364408304       -4.9221111205  CLST          38          1.0000000000
       114        38  TIP3  H2           -3.7178136011        2.1734580548       -5.4689705871  CLST          38          1.0000000000
       115        39  TIP3  OH2           0.9695254214      -10.8721343347        2.3817900439  CLST          39          1.0000000000
       116        39  TIP3  H1            0.5115183376      -11.3289686492        3.1195715957  CLST          39          1.0000000000
       117        39  TIP3  H2            0.2875559502      -10.2171965474        2.1132696533  CLST          39          1.0000000000
       118        40  TIP3  OH2          -6.8856037322       12.4117597059        8.0241305463  CLST          40          1.0000000000
       119        40  TIP3  H1           -7.7476106244       12.6821003714        7.6434505211  CLST          40          1.0000000000
       120        40  TIP3  H2           -6.2663247667       12.6783363825        7.3083624002  CLST          40          1.0000000000
       121        41  TIP3  OH2           8.6078784399       -2.8639348058      -12.0739079526  CLST          41          1.0000000000
       122        41  TIP3  H1            8.0279635045       -3.6246311314      -11.9184531522  CLST          41          1.0000000000
       123        41  TIP3  H2            8.5930592462       -2.4600653178      -11.1846578126  CLST          41          1.0000000000
       124        42  TIP3  OH2           9.3868407438       10.2748301523      -10.4997246763  CLST          42          1.0000000000
       125        42  TIP3  H1           10.1953707111       10.1535505012       -9.9621264487  CLST          42          1.0000000000
       126        42  TIP3  H2            9.7884304860       10.2998173821      -11.3985047879  CLST          42          1.0000000000
       127        43  TIP3  OH2          10.8518308118       13.2261029447        8.0563310495  CLST          43          1.0000000000
       128        43  TIP3  H1           11.2809461195       14.0811320524        8.1734933854  CLST          43          1.0000000000
       129        43  TIP3  H2           11.4742509577       12.6256913460        8.5294647526  CLST          43          1.0000000000
       130        44  TIP3  OH2           7.3274036925        0.9402293877        5.8320516327  CLST          44          1.0000000000
       131        44  TIP3  H1            7.5154468979        1.3060463357        6.7168917265  CLST          44          1.0000000000
       132        44  TIP3  H2            7.1313577734        1.7723236179        5.3472921562  CLST          44          1.0000000000
       133        45  TIP3  OH2           7.8109700894        8.9446600929        7.5464472418  CLST          45          1.0000000000
       134        45  TIP3  H1            7.5314957776        8.0647048930        7.8784485704  CLST          45          1.0000000000
       135        45  TIP3  H2            8.7355883967        9.0037794911        7.8505293854  CLST          45          1.0000000000
       136        46  TIP3  OH2          -4.8723724495       -2.7077715119      -13.2661066732  CLST          46          1.0000000000
       137        46  TIP3  H1           -4.5855185246       -3.5690605329      -13.6438678817  CLST          46          1.0000000000
       138        46  TIP3  H2           -4.3561658499       -2.6979240751      -12.4403362544  CLST          46          1.0000000000
       139        47  TIP3  OH2           1.6198043454       -6.2568957424      -10.6055974862  CLST          47          1.0000000000
       140        47  TIP3  H1            1.6750083736       -5.3087716387      -10.8228261661  CLST          47          1.0000000000
       141        47  TIP3  H2            2.5678790570       -6.4833405200      -10.6141944187  CLST          47          1.0000000000
       142        48  TIP3  OH2           4.9612114978        5.5228784235        1.1457740698  CLST          48          1.0000000000
       143        48  TIP3  H1            5.8367720787        5.1115106672        0.9738047914  CLST          48          1.0000000000
       144        48  TIP3  H2            5.2053435721        6.4725974925        1.1241698503  CLST          48          1.0000000000
       145        49  TIP3  OH2          -3.0271128963      -10.3070675303      -12.5217850933  CLST          49          1.0000000000
       146        49  TIP3  H1           -2.2393830232      -10.5585520227      -12.0124371815  CLST          49          1.0000000000
       147        49  TIP3  H2           -3.6980677571      -10.8467861734      -12.0705925567  CLST          49          1.0000000000
       148        50  TIP3  OH2           2.3443469582        3.3833758161        6.0990827111  CLST          50          1.0000000000
       149        50  TIP3  H1            1.4486265167        3.7208953100        6.3227995662  CLST          50          1.0000000000
       150        50  TIP3  H2            2.2955096255        3.3023116210        5.1200484205  CLST          50          1.0000000000
       151        51  TIP3  OH2          -6.2189656555      -10.4057092289       -4.6520643585  CLST          51          1.0000000000
       152        51  TIP3  H1           -5.9395675981      -11.2677056022       -4.2800598776  CLST          51          1.0000000000
       153        51  TIP3  H2           -7.0605952918      -10.6524401232       -5.0970728326  CLST          51          1.0000000000
       154        52  TIP3  OH2           8.6439726501       -6.1725486831       -0.5422386627  CLST          52          1.0000000000
       155        52  TIP3  H1            9.2163147756       -5.8311212133       -1.2623661362  CLST          52          1.0000000000
       156        52  TIP3  H2            8.4645167146       -5.3409255663       -0.0495434609  CLST          52          1.0000000000
       157        53  TIP3  OH2          -8.8094495742       10.8018645094      -11.6048014667  CLST          53          1.0000000000
       158        53  TIP3  H1           -8.8424140960       11.1543384984      -12.5011775261  CLST          53          1.0000000000
       159        53  TIP3  H2           -8.1245018452       10.0987746206      -11.6949153894  CLST          53          1.0000000000
       160        54  TIP3  OH2           0.3263880053       -2.8836230297       -9.7284273813  CLST          54          1.0000000000
       161        54  TIP3  H1            1.1036184618       -3.2819380623      -10.1636913698  CLST          54          1.0000000000
       162        54  TIP3  H2           -0.0791254267       -2.4154945997      -10.4933118558  CLST          54          1.0000000000
       163        55  TIP3  OH2           2.4160199817       -3.8956606893      -13.8984514185  CLST          55          1.0000000000
       164        55  TIP3  H1            2.9943436193       -4.6934262337      -13.9406028054  CLST          55          1.0000000000
       165        55  TIP3  H2            1.8231368286       -4.0561077306      -14.6407597184  CLST          55          1.0000000000
       166        56  TIP3  OH2          -9.1850604800       10.5878227801        5.3823538110  CLST          56          1.0000000000
       167        56  TIP3  H1           -9.5928347229        9.7999269222        5.7992966274  CLST          56          1.0000000000
       168        56  TIP3  H2           -9.4322936743       10.4462597955        4.4391411507  CLST          56          1.0000000000
       169        57  TIP3  OH2           1.2248146828      -12.5574014087        0.2957996980  CLST          57          1.0000000000
       170        57  TIP3  H1            1.2879050026      -11.8992129265        1.0223172847  CLST          57          1.0000000000
       171        57  TIP3  H2            2.1275677009      -12.4831239582       -0.0755450207  CLST          57          1.0000000000
       172        58  TIP3  OH2         -12.7416775623       11.0303355124        6.0143201741  CLST          58          1.0000000000
       173        58  TIP3  H1          -12.3045539679       11.8772443985        5.7906378001  CLST          58          1.0000000000
       174        58  TIP3  H2          -12.3434476771       10.8322781935        6.8907644857  CLST          58          1.0000000000
       175        59  TIP3  OH2         -11.5287843110       -2.5960974027        5.8154880151  CLST          59          1.0000000000
       176        59  TIP3  H1          -11.4950273226       -2.3467266368        6.7636311374  CLST          59          1.0000000000
       177        59  TIP3  H2          -11.6969551671       -1.7140070660        5.4124846863  CLST          59          1.0000000000
       178        60  TIP3  OH2           1.5771892891        9.3376843553        9.1872390363  CLST          60          1.0000000000
       179        60  TIP3  H1            0.7102191934        9.3069411413        8.7204628238  CLST          60          1.0000000000
       180        60  TIP3  H2            1.9102369851        8.4481808800        8.9497697813  CLST          60          1.0000000000
       181        61  TIP3  OH2           2.5967036488       -1.1126898102       -5.5028481762  CLST          61          1.0000000000
       182        61  TIP3  H1            3.0898474194       -1.9592746151       -5.5709984930  CLST          61          1.0000000000
       183        61  TIP3  H2            2.0052234450       -1.1725684847       -6.2882968402  CLST          61          1.0000000000
       184        62  TIP3  OH2           7.4226021868        8.6323029072       11.7499992487  CLST          62          1.0000000000
       185        62  TIP3  H1            7.7001904724        7.7944984154       11.3283200683  CLST          62          1.0000000000
       186        62  TIP3  H2            7.6238173154        9.2959541886       11.0646212221  CLST          62          1.0000000000
       187        63  TIP3  OH2           4.2294352246       -7.2058202228      -10.7407222150  CLST          63          1.0000000000
       188        63  TIP3  H1            3.7121685636       -7.8021994475      -11.3254217222  CLST          63          1.0000000000
       189        63  TIP3  H2            5.0470271227       -7.1766151781      -11.2889773818  CLST          63          1.0000000000
       190        64  TIP3  OH2          -2.7610680908       11.3512425475        4.9639201479  CLST          64          1.0000000000
       191        64  TIP3  H1           -2.4871339764       10.4137884058        4.8607113879  CLST          64          1.0000000000
       192        64  TIP3  H2           -2.2403128001       11.5938531069        5.7616207331  CLST          64          1.0000000000
       193        65  TIP3  OH2          10.8982938009       -4.7767413125       -5.2626134228  CLST          65          1.0000000000
       194        65  TIP3  H1           10.6686871595       -4.7435315063       -6.2148509013  CLST          65          1.0000000000
       195        65  TIP3  H2           10.9480615980       -3.8199498878       -5.0558935683  CLST          65          1.0000000000
       196        66  TIP3  OH2           6.8955406238      -10.1014404481        8.7840688129  CLST          66          1.0000000000
       197        66  TIP3  H1            6.0623608965       -9.9729814128        8.2827634923  CLST          66          1.0000000000
       198        66  TIP3  H2            7.2387501871       -9.1860814778        8.8424492054  CLST          66          1.0000000000
       199        67  TIP3  OH2         -10.8798146381       -6.3264555190       -4.8036452875  CLST          67          1.0000000000
       200        67  TIP3  H1           -9.9390715822       -6.1276905680       -4.6275578900  CLST          67          1.0000000000
       201        67  TIP3  H2          -11.3418792684       -5.6302257361       -4.2978260348  CLST          67          1.0000000000
       202        68  TIP3  OH2          -0.1455318269       -5.7595816458        5.7056151093  CLST          68          1.0000000000
       203        68  TIP3  H1            0.7539079027       -5.9826949737        6.0315753771  CLST          68          1.0000000000
       204        68  TIP3  H2           -0.5681729845       -5.4493075589        6.5375573633  CLST          68          1.0000000000
       205        69  TIP3  OH2           8.0767480140       11.4561565423       -8.4212615924  CLST          69          1.0000000000
       206        69  TIP3  H1            8.4212331331       11.1235852064       -9.2815816754  CLST          69          1.0000000000
       207        69  TIP3  H2            8.9134267053       11.8308332490       -8.0578831756  CLST          69          1.0000000000
       208        70  TIP3  OH2          -1.3698438085      -12.1957250558       -0.5307047737  CLST          70          1.0000000000
       209        70  TIP3  H1           -0.3943304964      -12.1957164093       -0.3966066642  CLST          70          1.0000000000
       210        70  TIP3  H2           -1.6059978928      -12.6753359775        0.2877328914  CLST          70          1.0000000000
       211        71  TIP3  OH2         -10.2388557853       -7.3622596817        1.9944477756  CLST          71          1.0000000000
       212        71  TIP3  H1          -10.8115948645       -6.8288900714        2.5858147394  CLST          71          1.0000000000
       213        71  TIP3  H2          -10.8856739208       -7.7352441654        1.3584374870  CLST          71          1.0000000000
       214        72  TIP3  OH2           0.5281499486        1.8391433292       -1.4395679512  CLST          72          1.0000000000
       215        72  TIP3  H1           -0.1120955479        1.1455215168       -1.7113784741  CLST          72          1.0000000000
       216        72  TIP3  H2            1.3021555496        1.5998666194       -1.9866946412  CLST          72          1.0000000000
       217        73  TIP3  OH2          -9.4655556584       12.7313810529        7.0744646449  CLST          73          1.0000000000
       218        73  TIP3  H1           -9.3400492891       11.9460937280        6.4978050684  CLST          73          1.0000000000
       219        73  TIP3  H2          -10.1564534179       13.1884518844        6.5507531196  CLST          73          1.0000000000
       220        74  TIP3  OH2           6.0568202608       -3.3643577778       -3.4820222007  CLST          74          1.0000000000
       221        74  TIP3  H1            6.0934440308       -4.3446199032       -3.5558273625  CLST          74          1.0000000000
       222        74  TIP3  H2            7.0094614121       -3.1838859250       -3.3382036876  CLST          74          1.0000000000
       223        75  TIP3  OH2           2.6061044649      -13.0737214603       -6.5241675485  CLST          75          1.0000000000
       224        75  TIP3  H1            2.9282279817      -12.2421494127       -6.1159483582  CLST          75          1.0000000000
       225        75  TIP3  H2            2.4569310700      -13.6073063141       -5.7091033195  CLST          75          1.0000000000
       226        76  TIP3  OH2           4.5327921478       -9.8176450555        1.3162278939  CLST          76          1.0000000000
       227        76  TIP3  H1            4.4934373379       -8.8386674748        1.4006571970  CLST          76          1.0000000000
       228        76  TIP3  H2            4.1987272974      -10.0853703216        2.1980014464  CLST          76          1.0000000000
       229        77  TIP3  OH2          10.6458000561       -8.1658795932       -2.8346303995  CLST          77          1.0000000000
       230        77  TIP3  H1            9.9505782857       -8.8102183691       -2.5769629433  CLST          77          1.0000000000
       231        77  TIP3  H2           10.4998920533       -8.1234428659       -3.8022620607  CLST          77          1.0000000000
       232        78  TIP3  OH2          10.6219682848       12.1194362696       -7.7334161197  CLST          78          1.0000000000
       233        78  TIP3  H1           11.0511350149       11.3062273339       -8.0733127255  CLST          78          1.0000000000
       234        78  TIP3  H2           11.3740190892       12.6922657073       -7.5657846520  CLST          78          1.0000000000
       235        79  TIP3  OH2          11.9705183393       -0.1825305976        0.7397172110  CLST          79          1.0000000000
       236        79  TIP3  H1           12.6915677290       -0.4857762954        1.3023983533  CLST          79          1.0000000000
       237        79  TIP3  H2           11.7100215116        0.6508894200        1.1919326220  CLST          79          1.0000000000
       238        80  TIP3  OH2          -7.6942447564        0.3662952545        6.4791745947  CLST          80          1.0000000000
       239        80  TIP3  H1           -7.7075797403        0.6334078020        5.5359220561  CLST          80          1.0000000000
       240        80  TIP3  H2           -6.8211352949       -0.0709129317        6.5401444392  CLST          80          1.0000000000
       241        81  TIP3  OH2          -7.4483263087      -10.7895990454        1.7704479191  CLST          81          1.0000000000
       242        81  TIP3  H1           -6.5697905913      -10.7580249421        1.3378960441  CLST          81          1.0000000000
       243        81  TIP3  H2           -7.2257422368      -11.2154453751        2.6229550380  CLST          81          1.0000000000
       244        82  TIP3  OH2          -1.5747538777       -9.6467489863       -6.3512469784  CLST          82          1.0000000000
       245        82  TIP3  H1           -2.5496701132       -9.6113617940       -6.2840938830  CLST          82          1.0000000000
       246        82  TIP3  H2           -1.3963766593      -10.5305031659       -5.9748382257  CLST          82          1.0000000000
       247        83  TIP3  OH2          12.0438816083       -8.6557806125        1.3934158640  CLST          83          1.0000000000
       248        83  TIP3  H1           12.1151719831       -8.0545686643        2.1595364329  CLST          83          1.0000000000
       249        83  TIP3  H2           11.0977371365       -8.5484323090        1.1501843424  CLST          83          1.0000000000
       250        84  TIP3  OH2          -4.1758623656       10.5971753239       -2.6347549379  CLST          84          1.0000000000
       251        84  TIP3  H1           -4.9524373218       10.3191563828       -3.1810634936  CLST          84          1.0000000000
       252        84  TIP3  H2           -4.4259165109       11.4983956440       -2.4054286522  CLST          84          1.0000000000
       253        85  TIP3  OH2           5.9904960059       -1.2646815784       -0.2767311418  CLST          85          1.0000000000
       254        85  TIP3  H1            5.8028028180       -0.4677453455        0.2666147208  CLST          85          1.0000000000
       255        85  TIP3  H2            5.9928611689       -1.9331814453        0.4395769757  CLST          85          1.0000000000
       256        86  TIP3  OH2           6.1343460081       -9.1486037949        5.2870188586  CLST          86          1.0000000000
       257        86  TIP3  H1            5.6251223553       -9.5432787812        6.0279714277  CLST          86          1.0000000000
       258        86  TIP3  H2            5.4952245119       -8.4617909478        5.0072622010  CLST          86          1.0000000000
       259        87  TIP3  OH2          -1.5466258607       -4.0493119611       10.5858290702  CLST          87          1.0000000000
       260        87  TIP3  H1           -0.9286054207       -4.1241273718       11.3325164520  CLST          87          1.0000000000
       261        87  TIP3  H2           -2.2286644806       -4.7022732706       10.8362471864  CLST          87          1.0000000000
       262        88  TIP3  OH2          -1.0785176576        4.6220391408       -8.2679112849  CLST          88          1.0000000000
       263        88  TIP3  H1           -1.3677121685        3.6884893513       -8.1120266981  CLST          88          1.0000000000
       264        88  TIP3  H2           -1.9530448762        5.0622445120       -8.3377256268  CLST          88          1.0000000000
       265        89  TIP3  OH2           3.2559873173        1.0409345047      -11.5553679286  CLST          89          1.0000000000
       266        89  TIP3  H1            3.5065124432        1.4753817236      -12.3728661242  CLST          89          1.0000000000
       267        89  TIP3  H2            2.8846224532        0.1950079397      -11.8935134177  CLST          89          1.0000000000
       268        90  TIP3  OH2           5.1348370622       10.7959631654       -5.9358284559  CLST          90          1.0000000000
       269        90  TIP3  H1            4.8502703266       11.4399411200       -5.2516032738  CLST          90          1.0000000000
       270        90  TIP3  H2            5.1129797748       11.3762632130       -6.7261190976  CLST          90          1.0000000000
       271        91  TIP3  OH2           6.1269394989       -7.4242394599      -12.6660808816  CLST          91          1.0000000000
       272        91  TIP3  H1            6.0927989494       -8.3996743691      -12.5318523334  CLST          91          1.0000000000
       273        91  TIP3  H2            7.0455658933       -7.2456851518      -12.3729757193  CLST          91          1.0000000000
       274        92  TIP3  OH2           9.8094059997       11.5401258786        3.4063929722  CLST          92          1.0000000000
       275        92  TIP3  H1           10.0090222181       11.5542975478        4.3658679598  CLST          92          1.0000000000
       276        92  TIP3  H2            9.7154835575       12.4955517264        3.2201979778  CLST          92          1.0000000000
       277        93  TIP3  OH2          -8.2854755598        7.0358333141        2.4575447966  CLST          93          1.0000000000
       278        93  TIP3  H1           -8.1525452619        7.8929795112        2.0084488135  CLST          93          1.0000000000
       279        93  TIP3  H2           -7.5163429708        7.0271518552        3.0602797295  CLST          93          1.0000000000
       280        94  TIP3  OH2         -13.9070091887        5.9642490749        5.5031995177  CLST          94          1.0000000000
       281        94  TIP3  H1          -13.4770499658        6.8409184765        5.6114817386  CLST          94          1.0000000000
       282        94  TIP3  H2          -13.8834253331        5.9092626389        4.5282765729  CLST          94          1.0000000000
       283        95  TIP3  OH2          10.2673276970        5.3422106050       -1.5402044640  CLST          95          1.0000000000
       284        95  TIP3  H1            9.9945310415        5.7645514354       -0.6970276286  CLST          95          1.0000000000
       285        95  TIP3  H2           10.6257644377        4.4899557765       -1.1828537499  CLST          95          1.0000000000
       286        96  TIP3  OH2          10.0902287054      -10.9702753808       11.4170096305  CLST          96          1.0000000000
       287        96  TIP3  H1           10.7901599389      -11.1372608384       10.7556924200  CLST          96          1.0000000000
       288        96  TIP3  H2            9.5310456421      -11.7609152439       11.2998959114  CLST          96          1.0000000000
       289        97  TIP3  OH2          -7.5958138136        6.5278236710        8.9772718366  CLST          97          1.0000000000
       290        97  TIP3  H1           -7.2858915268        5.6626279130        9.3452486413  CLST          97          1.0000000000
       291        97  TIP3  H2           -8.4790303495        6.2397622725        8.6527979711  CLST          97          1.0000000000
       292        98  TIP3  OH2           5.9956253695        0.3512186667       -3.5738127072  CLST          98          1.0000000000
       293        98  TIP3  H1            6.7328145213        0.1977775618       -2.9545332291  CLST          98          1.0000000000
       294        98  TIP3  H2            5.2990889225       -0.2049481838       -3.1652969780  CLST          98          1.0000000000
       295        99  TIP3  OH2          -7.2534254053      -11.6290912143        4.4918969665  CLST          99          1.0000000000
       296        99  TIP3  H1           -7.3013407762      -10.8290395653        5.0528132864  CLST          99          1.0000000000
       297        99  TIP3  H2           -6.6592610094      -12.1898430470        5.0244706454  CLST          99          1.0000000000
       298       100  TIP3  OH2           1.8973746237        1.0528933757       -9.1750815609  CLST         100          1.0000000000
       299       100  TIP3  H1            2.4529781858        1.1447912168       -9.9819718364  CLST         100          1.0000000000
       300       100  TIP3  H2            2.2446937044        1.7772571533       -8.6118996302  CLST         100          1.0000000000
       301       101  TIP3  OH2          11.9436199714       -7.1335561727        3.7565563663  CLST         101          1.0000000000
       302       101  TIP3  H1           11.8592323719       -7.5994380446        4.6203340034  CLST         101          1.0000000000
       303       101  TIP3  H2           12.6075005530       -6.4684390269        3.9668127946  CLST         101          1.0000000000
       304       102  TIP3  OH2         -11.8851584311        9.6632827658        1.2355247963  CLST         102          1.0000000000
       305       102  TIP3  H1          -12.5842443516        9.4692917407        1.9003285522  CLST         102          1.0000000000
       306       102  TIP3  H2          -12.3676031579        9.3720577008        0.4433264347  CLST         102          1.0000000000
       307       103  TIP3  OH2          -1.5283624921       -8.8025801664        7.8893198362  CLST         103          1.0000000000
       308       103  TIP3  H1           -0.7796559601       -8.8698740123        8.5130471298  CLST         103          1.0000000000
       309       103  TIP3  H2           -1.8349031386       -9.7286982103        7.8825703437  CLST         103          1.0000000000
       310       104  TIP3  OH2          -4.2236690895      -11.3581075492       10.3238629244  CLST         104          1.0000000000
       311       104  TIP3  H1           -4.8238889619      -10.7930146835       10.8505868362  CLST         104          1.0000000000
       312       104  TIP3  H2           -4.8718595632      -11.9107454623        9.8372999370  CLST         104          1.0000000000
       313       105  TIP3  OH2          -5.2928045271       11.1041345325      -10.8619460100  CLST         105          1.0000000000
       314       105  TIP3  H1           -4.7533075801       11.4049703290      -11.6303999267  CLST         105          1.0000000000
       315       105  TIP3  H2           -5.7566873550       10.3419386730      -11.2612870406  CLST         105          1.0000000000
       316       106  TIP3  OH2           7.0073543612       -7.8440258835       -1.9717180041  CLST         106          1.0000000000
       317       106  TIP3  H1            7.5268910671       -7.2803093402       -1.3608163717  CLST         106          1.0000000000
       318       106  TIP3  H2            7.5603935396       -8.6564475601       -1.9872531817  CLST         106          1.0000000000
       319       107  TIP3  OH2          -7.7648079350       -5.0243646884        4.0559333929  CLST         107          1.0000000000
       320       107  TIP3  H1           -8.5315415171       -4.4455957121        3.8590191602  CLST         107          1.0000000000
       321       107  TIP3  H2           -7.0384100183       -4.3752347099        4.1570252126  CLST         107          1.0000000000
       322       108  TIP3  OH2         -10.5436972003        2.3787568247        9.5922520823  CLST         108          1.0000000000
       323       108  TIP3  H1           -9.6268437641        2.1036198228        9.4049033348  CLST         108          1.0000000000
       324       108  TIP3  H2          -10.9757760115        1.5097474888        9.7443413006  CLST         108          1.0000000000
       325       109  TIP3  OH2           2.1592989967        6.8972777828        8.0954996016  CLST         109          1.0000000000
       326       109  TIP3  H1            1.4425694357        6.4436061065        8.5936998931  CLST         109          1.0000000000
       327       109  TIP3  H2            2.8130605800        6.1739486691        8.0063563844  CLST         109          1.0000000000
       328       110  TIP3  OH2           1.8976214265       12.3077892148      -10.6498408818  CLST         110          1.0000000000
       329       110  TIP3  H1            1.7499056558       13.2549645748      -10.7508530851  CLST         110          1.0000000000
       330       110  TIP3  H2            1.3426597897       12.1224098178       -9.8552640684  CLST         110          1.0000000000
       331       111  TIP3  OH2          11.8204086737      -11.2759505636        9.2814202143  CLST         111          1.0000000000
       332       111  TIP3  H1           12.7607722931      -11.3979429751        9.1079748379  CLST         111          1.0000000000
       333       111  TIP3  H2           11.4458172112      -12.0526714894        8.8028589898  CLST         111          1.0000000000
       334       112  TIP3  OH2           5.6162538147        0.7024138034        1.5454384140  CLST         112          1.0000000000
       335       112  TIP3  H1            6.4304760135        1.2524734052        1.6040764535  CLST         112          1.0000000000
       336       112  TIP3  H2            5.6657243985        0.2563333725        2.4169770179  CLST         112          1.0000000000
       337       113  TIP3  OH2         -12.7792478667        0.8983796523        0.0963773665  CLST         113          1.0000000000
       338       113  TIP3  H1          -13.4302859331        0.2679834802       -0.2896478425  CLST         113          1.0000000000
       339       113  TIP3  H2          -12.0337417528        0.7951187136       -0.5366549352  CLST         113          1.0000000000
       340       114  TIP3  OH2         -13.1085309878        3.5524193826       -0.4214855893  CLST         114          1.0000000000
       341       114  TIP3  H1          -13.2310819645        2.6167109510       -0.1593635369  CLST         114          1.0000000000
       342       114  TIP3  H2          -12.9801282373        3.4321846876       -1.3923692784  CLST         114          1.0000000000
       343       115  TIP3  OH2          -8.3854101624       -0.5908770717      -10.0260045752  CLST         115          1.0000000000
       344       115  TIP3  H1           -7.4497290316       -0.5310005930      -10.2896110720  CLST         115          1.0000000000
       345       115  TIP3  H2           -8.7255957168        0.2809871674      -10.3249711994  CLST         115          1.0000000000
       346       116  TIP3  OH2           7.0045848295       -5.8953497976        2.3854591140  CLST         116          1.0000000000
       347       116  TIP3  H1            7.8276460157       -6.3791379160        2.6082274633  CLST         116          1.0000000000
       348       116  TIP3  H2            7.3701664735       -5.1753030839        1.8308977495  CLST         116          1.0000000000
       349       117  TIP3  OH2          -1.1693538373       -0.0268466339       12.7365351909  CLST         117          1.0000000000
       350       117  TIP3  H1           -0.3601558972       -0.5280528588       13.0029457097  CLST         117          1.0000000000
       351       117  TIP3  H2           -1.7832444098       -0.3486167999       13.4067668529  CLST         117          1.0000000000
       352       118  TIP3  OH2           1.2608332211      -10.2782691040        5.6219299765  CLST         118          1.0000000000
       353       118  TIP3  H1            1.5054995347       -9.8507384314        6.4684373298  CLST         118          1.0000000000
       354       118  TIP3  H2            0.8473928226       -9.5144251516        5.1539950330  CLST         118          1.0000000000
       355       119  TIP3  OH2          -8.8635643225      -10.4488955427       -8.7937388692  CLST         119          1.0000000000
       356       119  TIP3  H1           -8.9896215407      -10.8350161401       -9.6935015535  CLST         119          1.0000000000
       357       119  TIP3  H2           -8.5187009178       -9.5647225977       -9.0196067465  CLST         119          1.0000000000
       358       120  TIP3  OH2           9.3983123786       -8.3964365108        0.8412128564  CLST         120          1.0000000000
       359       120  TIP3  H1            8.6718903127       -9.0469188492        0.7059833288  CLST         120          1.0000000000
       360       120  TIP3  H2            9.1208536665       -7.6699582108        0.2405416086  CLST         120          1.0000000000
       361       121  TIP3  OH2          -5.6643746960       -0.5119429741       -7.9587726233  CLST         121          1.0000000000
       362       121  TIP3  H1           -5.6179577449       -0.3922025470       -8.9276005062  CLST         121          1.0000000000
       363       121  TIP3  H2           -4.9431165209       -1.1723074073       -7.8354025206  CLST         121          1.0000000000
       364       122  TIP3  OH2          10.4541599216       11.3343692294        6.0511927133  CLST         122          1.0000000000
       365       122  TIP3  H1           10.3123255979       10.7434443922        6.8142812358  CLST         122          1.0000000000
       366       122  TIP3  H2           10.6032139638       12.1761578956        6.5228216969  CLST         122          1.0000000000
       367       123  TIP3  OH2          -7.2758054854       -5.8495477937      -11.7076226384  CLST         123          1.0000000000
       368       123  TIP3  H1           -6.7319987882       -6.6499804791      -11.7838165978  CLST         123          1.0000000000
       369       123  TIP3  H2           -7.1086611583       -5.5984500477      -10.7786944678  CLST         123          1.0000000000
       370       124  TIP3  OH2          -5.8698577540       -8.3353917985      -11.0157526002  CLST         124          1.0000000000
       371       124  TIP3  H1           -5.1359872053       -8.5519271140      -10.3971858470  CLST         124          1.0000000000
       372       124  TIP3  H2           -6.6001248176       -8.2596806352      -10.3638613222  CLST         124          1.0000000000
       373       125  TIP3  OH2         -13.7812200718        3.9218773789        7.2558563116  CLST         125          1.0000000000
       374       125  TIP3  H1          -14.7305615972        3.7948918425        7.3400178981  CLST         125          1.0000000000
       375       125  TIP3  H2          -13.7602473841        4.6790596833        6.6188754668  CLST         125          1.0000000000
       376       126  TIP3  OH2          -6.6904602504      -10.8821117982      -11.8924357771  CLST         126          1.0000000000
       377       126  TIP3  H1           -5.9329526741      -11.3100157916      -11.4439562973  CLST         126          1.0000000000
       378       126  TIP3  H2           -6.4432447504       -9.9442136273      -11.8097817000  CLST         126          1.0000000000
       379       127  TIP3  OH2          -8.4945370586      -10.7935574152       -6.1063996199  CLST         127          1.0000000000
       380       127  TIP3  H1           -9.1790202680      -11.4891097581       -6.0482674855  CLST         127          1.0000000000
       381       127  TIP3  H2           -8.4960068906      -10.6861873969       -7.0854412652  CLST         127          1.0000000000
       382       128  TIP3  OH2          10.2556099722        0.2704919910       -3.3308355445  CLST         128          1.0000000000
       383       128  TIP3  H1            9.4127285374        0.1328647891       -2.8508997274  CLST         128          1.0000000000
       384       128  TIP3  H2           10.0524234759        1.0638415472       -3.8743966447  CLST         128          1.0000000000
       385       129  TIP3  OH2          -7.6730749675        9.2918136406        0.9981697614  CLST         129          1.0000000000
       386       129  TIP3  H1           -6.9783179635        9.7159135868        1.5530230948  CLST         129          1.0000000000
       387       129  TIP3  H2           -7.0920325963        8.7081238092        0.4563879378  CLST         129          1.0000000000
       388       130  TIP3  OH2          -4.9397232792        2.7973994532       11.3787837573  CLST         130          1.0000000000
       389       130  TIP3  H1           -5.1805557998        3.0631481623       12.2725383246  CLST         130          1.0000000000
       390       130  TIP3  H2           -3.9648654720        2.6789519788       11.4879536124  CLST         130          1.0000000000
       391       131  TIP3  OH2           7.4017810046       -4.6805244033      -10.2687835925  CLST         131          1.0000000000
       392       131  TIP3  H1            7.8007853814       -3.9367638758       -9.7695500105  CLST         131          1.0000000000
       393       131  TIP3  H2            6.4552472505       -4.5761316821      -10.0445836228  CLST         131          1.0000000000
       394       132  TIP3  OH2         -11.8689201870       11.0447968446       11.5819072310  CLST         132          1.0000000000
       395       132  TIP3  H1          -11.3267898533       11.5854445353       10.9719176726  CLST         132          1.0000000000
       396       132  TIP3  H2          -12.3903391413       11.7086407452       12.0377282769  CLST         132          1.0000000000
       397       133  TIP3  OH2          10.4559845004        9.7191272184        8.2925427567  CLST         133          1.0000000000
       398       133  TIP3  H1           10.9921719505        8.8980475292        8.2507102890  CLST         133          1.0000000000
       399       133  TIP3  H2           11.1401506734       10.3298953570        8.6527394791  CLST         133          1.0000000000
       400       134  TIP3  OH2          -7.6414993132        5.5547779825       -6.1591061414  CLST         134          1.0000000000
       401       134  TIP3  H1           -8.5218612209        5.9408781951       -5.9775881287  CLST         134          1.0000000000
       402       134  TIP3  H2           -7.2697404379        5.5311040770       -5.2471110517  CLST         134          1.0000000000
       403       135  TIP3  OH2          10.2859654393      -10.3655786798      -13.2297418391  CLST         135          1.0000000000
       404       135  TIP3  H1           10.8493618664       -9.7353421808      -12.7224925638  CLST         135          1.0000000000
       405       135  TIP3  H2           10.6319325623      -10.2558377057      -14.1201385988  CLST         135          1.0000000000
       406       136  TIP3  OH2          -4.5994762872        1.8165534647       -6.9479215938  CLST         136          1.0000000000
       407       136  TIP3  H1           -5.0139107127        0.9562152307       -7.1774211854  CLST         136          1.0000000000
       408       136  TIP3  H2           -5.3394713471        2.4257350604       -7.1502123961  CLST         136          1.0000000000
       409       137  TIP3  OH2          12.4322892604       11.3482375720        9.2403972686  CLST         137          1.0000000000
       410       137  TIP3  H1           12.5612564991       11.2458395296       10.2135990281  CLST         137          1.0000000000
       411       137  TIP3  H2           13.1491700884       10.7605001134        8.9060406785  CLST         137          1.0000000000
       412       138  TIP3  OH2          -1.0284459185       -9.2878765639        1.4674111342  CLST         138          1.0000000000
       413       138  TIP3  H1           -1.4291924299       -9.1935585992        0.5814208067  CLST         138          1.0000000000
       414       138  TIP3  H2           -0.7847349928       -8.3611501947        1.6649394869  CLST         138          1.0000000000
       415       139  TIP3  OH2          -9.9499597286      -11.8763345166        3.8863468915  CLST         139          1.0000000000
       416       139  TIP3  H1          -10.0330968591      -11.3399616747        3.0703666831  CLST         139          1.0000000000
       417       139  TIP3  H2           -8.9805489916      -11.8469090369        4.0298555190  CLST         139          1.0000000000
       418       140  TIP3  OH2          -6.9866846713        3.5583009891       -0.4125705916  CLST         140          1.0000000000
       419       140  TIP3  H1           -6.0751020897        3.9222433908       -0.3903785122  CLST         140          1.0000000000
       420       140  TIP3  H2           -7.4616720222        4.3414897385       -0.7610485186  CLST         140          1.0000000000
       421       141  TIP3  OH2           2.2225012434       -4.0978130419       -3.3904864819  CLST         141          1.0000000000
       422       141  TIP3  H1            1.8419695887       -3.2176297089       -3.2134923274  CLST         141          1.0000000000
       423       141  TIP3  H2            2.7953102151       -3.9102386719       -4.1566931313  CLST         141          1.0000000000
       424       142  TIP3  OH2         -11.7089758182       -0.0932770308        4.7072725315  CLST         142          1.0000000000
       425       142  TIP3  H1          -11.7161794816        0.6363444696        5.3718196227  CLST         142          1.0000000000
       426       142  TIP3  H2          -12.1808429637        0.3639401403        3.9797830119  CLST         142          1.0000000000
       427       143  TIP3  OH2          10.0523980041       -5.0529161414       -7.8759409666  CLST         143          1.0000000000
       428       143  TIP3  H1           10.5451629682       -4.6348772975       -8.6140268134  CLST         143          1.0000000000
       429       143  TIP3  H2           10.2081664521       -6.0015594957       -8.0860132792  CLST         143          1.0000000000
       430       144  TIP3  OH2           3.6484620258       -2.2207908689        9.6137549618  CLST         144          1.0000000000
       431       144  TIP3  H1            2.6971260674       -2.2896276661        9.8790764345  CLST         144          1.0000000000
       432       144  TIP3  H2            3.5808188851       -1.5613833265        8.8930676231  CLST         144          1.0000000000
       433       145  TIP3  OH2         -10.3923263238       12.8103629883        2.9161095164  CLST         145          1.0000000000
       434       145  TIP3  H1          -10.5259784323       12.9050046207        1.9521300429  CLST         145          1.0000000000
       435       145  TIP3  H2          -10.0023242796       11.9182091531        2.9275417556  CLST         145          1.0000000000
       436       146  TIP3  OH2           9.7335898491        2.4982741336       -4.8776453930  CLST         146          1.0000000000
       437       146  TIP3  H1            9.3902368939        3.3337803622       -4.4913521350  CLST         146          1.0000000000
       438       146  TIP3  H2            9.1963779686        2.4456797106       -5.6900777056  CLST         146          1.0000000000
       439       147  TIP3  OH2         -10.8541242343       -0.9043126186       -4.0002884702  CLST         147          1.0000000000
       440       147  TIP3  H1           -9.9191428405       -1.1759896205       -4.1167796090  CLST         147          1.0000000000
       441       147  TIP3  H2          -11.1488163647       -0.9385513795       -4.9318190272  CLST         147          1.0000000000
       442       148  TIP3  OH2          -7.9515641633        1.5605144216        8.9428052860  CLST         148          1.0000000000
       443       148  TIP3  H1           -8.0176848579        1.3696183044        7.9826385333  CLST         148          1.0000000000
       444       148  TIP3  H2           -6.9981657791        1.3635240775        9.0809238875  CLST         148          1.0000000000
       445       149  TIP3  OH2           8.1832578367       -3.8785484747        0.8806934287  CLST         149          1.0000000000
       446       149  TIP3  H1            8.8140168801       -3.1552144024        0.6526941119  CLST         149          1.0000000000
       447       149  TIP3  H2            7.4587259063       -3.3505448156        1.2810961248  CLST         149          1.0000000000
       448       150  TIP3  OH2          -2.1681317835      -11.4374695503        8.4878049772  CLST         150          1.0000000000
       449       150  TIP3  H1           -2.9171120964      -11.3738001065        9.1191787577  CLST         150          1.0000000000
       450       150  TIP3  H2           -1.4419026820      -11.7072108162        9.0922662371  CLST         150          1.0000000000
       451       151  TIP3  OH2          -8.1622836751       -5.8589056961       -4.6852132568  CLST         151          1.0000000000
       452       151  TIP3  H1           -7.5208032021       -6.3946100692       -4.1691888070  CLST         151          1.0000000000
       453       151  TIP3  H2           -8.1140323233       -6.3468264352       -5.5262243700  CLST         151          1.0000000000
       454       152  TIP3  OH2           4.0424905699       -1.9788837209        5.1479312599  CLST         152          1.0000000000
       455       152  TIP3  H1            4.1657528980       -2.8998691393        5.4655266638  CLST         152          1.0000000000
       456       152  TIP3  H2            3.6177313902       -2.1788743294        4.2943631362  CLST         152          1.0000000000
       457       153  TIP3  OH2          -2.4520831929        4.3953138548      -12.7972773511  CLST         153          1.0000000000
       458       153  TIP3  H1           -1.6830071189        4.9857446698      -12.8599650561  CLST         153          1.0000000000
       459       153  TIP3  H2           -2.1461357482        3.8026302519      -12.0901571560  CLST         153          1.0000000000
       460       154  TIP3  OH2           4.5917112168       -7.1469422636        1.8816818845  CLST         154          1.0000000000
       461       154  TIP3  H1            5.4229558430       -6.6243532472        1.9248635081  CLST         154          1.0000000000
       462       154  TIP3  H2            3.9364744588       -6.4851964656        1.5765014671  CLST         154          1.0000000000
       463       155  TIP3  OH2           9.2883988186       -2.0287445389       10.3566903845  CLST         155          1.0000000000
       464       155  TIP3  H1            8.5917128626       -2.4044169971        9.7723660715  CLST         155          1.0000000000
       465       155  TIP3  H2            9.8934362559       -2.7718615174       10.4495209655  CLST         155          1.0000000000
       466       156  TIP3  OH2          -1.4047746363        9.0649137391       12.4407628802  CLST         156          1.0000000000
       467       156  TIP3  H1           -1.4563441640        9.0014538321       13.3998058850  CLST         156          1.0000000000
       468       156  TIP3  H2           -2.3120030126        9.3763183085       12.2141770330  CLST         156          1.0000000000
       469       157  TIP3  OH2           3.9100150440       -0.5337866838        7.4580267764  CLST         157          1.0000000000
       470       157  TIP3  H1            4.8465582577       -0.4120867725        7.7165571486  CLST         157          1.0000000000
       471       157  TIP3  H2            3.9914060472       -1.0169724008        6.6058019914  CLST         157          1.0000000000
       472       158  TIP3  OH2          10.0411608818        9.6939390246       12.2457011446  CLST         158          1.0000000000
       473       158  TIP3  H1            9.2969536769        9.3350237988       12.7553185119  CLST         158          1.0000000000
       474       158  TIP3  H2            9.5442782899       10.1875945886       11.5587175203  CLST         158          1.0000000000
       475       159  TIP3  OH2          -0.1394819686      -12.3167241069        4.4390809948  CLST         159          1.0000000000
       476       159  TIP3  H1           -0.8942143520      -12.5402211204        5.0305970586  CLST         159          1.0000000000
       477       159  TIP3  H2            0.3698873882      -11.7185769158        5.0299319319  CLST         159          1.0000000000
       478       160  TIP3  OH2           7.2208230223       -2.8819404277        8.8141221997  CLST         160          1.0000000000
       479       160  TIP3  H1            6.4408367580       -3.3307426920        8.4377502063  CLST         160          1.0000000000
       480       160  TIP3  H2            6.9378521633       -1.9449672733        8.7284757214  CLST         160          1.0000000000
       481       161  TIP3  OH2          -2.0983066041       -2.0813810320        8.0581062674  CLST         161          1.0000000000
       482       161  TIP3  H1           -1.7072472703       -1.6196186860        8.8330995122  CLST         161          1.0000000000
       483       161  TIP3  H2           -2.9443250501       -2.4027885134        8.4411318640  CLST         161          1.0000000000
       484       162  TIP3  OH2          -0.6599024340        3.5344176029      -10.7928824332  CLST         162          1.0000000000
       485       162  TIP3  H1           -0.2069503788        4.1840902579      -11.3717587374  CLST         162          1.0000000000
       486       162  TIP3  H2           -0.6766127763        4.0120884028       -9.9368715668  CLST         162          1.0000000000
       487       163  TIP3  OH2         -11.0665247376        8.6544587752       10.4943839798  CLST         163          1.0000000000
       488       163  TIP3  H1          -11.3858536120        7.8135966767       10.8975090549  CLST         163          1.0000000000
       489       163  TIP3  H2          -11.4332954194        9.3263880718       11.1095550643  CLST         163          1.0000000000
       490       164  TIP3  OH2           4.3403078851      -10.3094807467       12.7050305991  CLST         164          1.0000000000
       491       164  TIP3  H1            4.9489002747       -9.5728988368       12.9052638725  CLST         164          1.0000000000
       492       164  TIP3  H2            4.9460744835      -10.8562969158       12.1706426766  CLST         164          1.0000000000
       493       165  TIP3  OH2         -11.7427043486       -5.9142535553        3.8123321037  CLST         165          1.0000000000
       494       165  TIP3  H1          -11.4194214041       -5.8557261331        4.7397979556  CLST         165          1.0000000000
       495       165  TIP3  H2          -12.6806948861       -6.0731370527        3.9556687537  CLST         165          1.0000000000
       496       166  TIP3  OH2          -1.1058772016       -6.2551266136       -9.9696169298  CLST         166          1.0000000000
       497       166  TIP3  H1           -0.1651346228       -6.3226765527      -10.2279880200  CLST         166          1.0000000000
       498       166  TIP3  H2           -1.2980909019       -7.1657577518       -9.6684614897  CLST         166          1.0000000000
       499       167  TIP3  OH2           8.7093739645       10.6929485815       -0.7832924417  CLST         167          1.0000000000
       500       167  TIP3  H1            9.2042992606       10.3071412048       -0.0247011264  CLST         167          1.0000000000
       501       167  TIP3  H2            9.0818603658       10.1862919540       -1.5251109657  CLST         167          1.0000000000
       502       168  TIP3  OH2          -0.9444094221      -13.2934595005        1.9932569783  CLST         168          1.0000000000
       503       168  TIP3  H1           -0.6501916567      -13.2138613789        2.9260136067  CLST         168          1.0000000000
       504       168  TIP3  H2           -0.0913538631      -13.4132907106        1.5399315142  CLST         168          1.0000000000
       505       169  TIP3  OH2           4.7794118187        4.2742226342        3.5687562687  CLST         169          1.0000000000
       506       169  TIP3  H1            3.9483514261        3.7519973935        3.5295508678  CLST         169          1.0000000000
       507       169  TIP3  H2            4.7436962259        4.7131977358        2.6887111393  CLST         169          1.0000000000
       508       170  TIP3  OH2          -0.8251140956        4.9414011311        0.7971139848  CLST         170          1.0000000000
       509       170  TIP3  H1           -1.5628292564        5.5922528046        0.8168065094  CLST         170          1.0000000000
       510       170  TIP3  H2           -1.1875546267        4.2391594101        1.3593619028  CLST         170          1.0000000000
       511       171  TIP3  OH2          -2.9320591292        1.2850508847        7.8803901668  CLST         171          1.0000000000
       512       171  TIP3  H1           -2.6756357924        0.7407128376        7.1131974746  CLST         171          1.0000000000
       513       171  TIP3  H2           -2.0598234766        1.5781332374        8.1949544856  CLST         171          1.0000000000
       514       172  TIP3  OH2          -6.0167748815      -12.8503620585        8.7725738866  CLST         172          1.0000000000
       515       172  TIP3  H1           -6.2177635459      -13.7933279176        8.7880404443  CLST         172          1.0000000000
       516       172  TIP3  H2           -5.7803970804      -12.7219366096        7.8253606840  CLST         172          1.0000000000
       517       173  TIP3  OH2           9.7489212676      -12.2227040741        1.7661441207  CLST         173          1.0000000000
       518       173  TIP3  H1            9.9360048212      -12.0797821347        0.8140041336  CLST         173          1.0000000000
       519       173  TIP3  H2            8.8832858807      -12.6653501798        1.7177739452  CLST         173          1.0000000000
       520       174  TIP3  OH2           0.1490921259        5.6369501452        9.4983739185  CLST         174          1.0000000000
       521       174  TIP3  H1            0.0985310690        4.9423639377       10.1840371633  CLST         174          1.0000000000
       522       174  TIP3  H2           -0.5725365158        6.2406745140        9.8034239731  CLST         174          1.0000000000
       523       175  TIP3  OH2          -6.0534264101        9.8493615564       -4.3987422048  CLST         175          1.0000000000
       524       175  TIP3  H1           -5.5126942620        9.6175179877       -5.1810480598  CLST         175          1.0000000000
       525       175  TIP3  H2           -6.9398304113        9.5931414873       -4.7133771037  CLST         175          1.0000000000
       526       176  TIP3  OH2           6.9911602563        9.2308122200       -7.2468237258  CLST         176          1.0000000000
       527       176  TIP3  H1            7.4411231063       10.0258368323       -7.6150078010  CLST         176          1.0000000000
       528       176  TIP3  H2            6.3691097738        9.6721320304       -6.6263707128  CLST         176          1.0000000000
       529       177  TIP3  OH2          -4.0173135974      -11.7992175377       -1.4579491146  CLST         177          1.0000000000
       530       177  TIP3  H1           -3.1543187652      -12.0636411446       -1.0938084337  CLST         177          1.0000000000
       531       177  TIP3  H2           -4.4604330381      -11.4133043916       -0.6701838366  CLST         177          1.0000000000
       532       178  TIP3  OH2          11.7472106595       -8.5816531830      -11.8130539711  CLST         178          1.0000000000
       533       178  TIP3  H1           12.1758434138       -8.6354659177      -10.9548776280  CLST         178          1.0000000000
       534       178  TIP3  H2           11.5041549279       -7.6307741593      -11.8485334595  CLST         178          1.0000000000
       535       179  TIP3  OH2           6.3780285708       -0.2536877908        8.7085561867  CLST         179          1.0000000000
       536       179  TIP3  H1            5.9737126090        0.0440463818        9.5518424519  CLST         179          1.0000000000
       537       179  TIP3  H2            6.9532988055        0.5103829231        8.5240570501  CLST         179          1.0000000000
       538       180  TIP3  OH2          -7.4038975046        7.7489293515        6.4919297773  CLST         180          1.0000000000
       539       180  TIP3  H1           -7.2875853960        7.3207886297        7.3661219816  CLST         180          1.0000000000
       540       180  TIP3  H2           -8.3586235028        7.9616510980        6.5366850785  CLST         180          1.0000000000
       541       181  TIP3  OH2           6.4456705858      -12.2119536788       -0.7668530000  CLST         181          1.0000000000
       542       181  TIP3  H1            6.8821618384      -11.3813114866       -0.5012217284  CLST         181          1.0000000000
       543       181  TIP3  H2            6.7164366725      -12.7825615156       -0.0203987753  CLST         181          1.0000000000
       544       182  TIP3  OH2          -1.3933930908       11.0171521542      -10.0151874658  CLST         182          1.0000000000
       545       182  TIP3  H1           -0.8186164825       11.3832247057       -9.3130788793  CLST         182          1.0000000000
       546       182  TIP3  H2           -2.1191575015       10.6180071002       -9.4974488543  CLST         182          1.0000000000
       547       183  TIP3  OH2          -6.5537820613        4.0914142441      -12.3325683681  CLST         183          1.0000000000
       548       183  TIP3  H1           -6.3156413778        3.5814491107      -11.5272048525  CLST         183          1.0000000000
       549       183  TIP3  H2           -7.5027782420        4.2791268491      -12.1567867249  CLST         183          1.0000000000
       550       184  TIP3  OH2           3.3019267992        8.2122976230       -2.3093202574  CLST         184          1.0000000000
       551       184  TIP3  H1            3.4493842026        7.3612375631       -1.8443758773  CLST         184          1.0000000000
       552       184  TIP3  H2            2.3475508072        8.1286015407       -2.5257228477  CLST         184          1.0000000000
       553       185  TIP3  OH2           6.5130831914        4.2995916152       11.6947927694  CLST         185          1.0000000000
       554       185  TIP3  H1            6.9043300313        3.4833081576       12.0819878646  CLST         185          1.0000000000
       555       185  TIP3  H2            6.0548346909        4.6611951064       12.4929255322  CLST         185          1.0000000000
       556       186  TIP3  OH2           3.8477096194        5.7169510736       -4.9148278117  CLST         186          1.0000000000
       557       186  TIP3  H1            4.1109842580        6.6633345322       -4.9217637551  CLST         186          1.0000000000
       558       186  TIP3  H2            4.1343252537        5.4400063313       -5.8114149736  CLST         186          1.0000000000
       559       187  TIP3  OH2           4.1940638827        1.0683357584       -5.6475892214  CLST         187          1.0000000000
       560       187  TIP3  H1            4.5967732798        1.0861176015       -4.7588501296  CLST         187          1.0000000000
       561       187  TIP3  H2            3.5621001822        0.3192137604       -5.5428912472  CLST         187          1.0000000000
       562       188  TIP3  OH2          -4.3036643801       -1.2702530778        4.8470248583  CLST         188          1.0000000000
       563       188  TIP3  H1           -4.4661814720       -0.4124805531        4.3885473083  CLST         188          1.0000000000
       564       188  TIP3  H2           -4.7340558808       -1.0973647430        5.7145619852  CLST         188          1.0000000000
       565       189  TIP3  OH2          -4.6764585686        4.8592335592      -14.3014376879  CLST         189          1.0000000000
       566       189  TIP3  H1           -5.2833702703        4.3742531442      -13.7201678791  CLST         189          1.0000000000
       567       189  TIP3  H2           -3.8107081015        4.6556208993      -13.8852404366  CLST         189          1.0000000000
       568       190  TIP3  OH2           6.5972790979       -5.8990848867        5.0846964028  CLST         190          1.0000000000
       569       190  TIP3  H1            7.4086374270       -6.3482420399        5.3380239988  CLST         190          1.0000000000
       570       190  TIP3  H2            6.6871558939       -5.8537109751        4.1103143863  CLST         190          1.0000000000
       571       191  TIP3  OH2         -11.1623490760       -5.2338987837       -7.3257960395  CLST         191          1.0000000000
       572       191  TIP3  H1          -11.1741397803       -5.8886320882       -6.5970159278  CLST         191          1.0000000000
       573       191  TIP3  H2          -10.2104888313       -5.0443548077       -7.3907664645  CLST         191          1.0000000000
       574       192  TIP3  OH2           9.3289231026       14.1608252274        2.7212105930  CLST         192          1.0000000000
       575       192  TIP3  H1            8.4071886844       14.3552304450        2.9941646643  CLST         192          1.0000000000
       576       192  TIP3  H2            9.7668321209       15.0078370429        2.8512146024  CLST         192          1.0000000000
       577       193  TIP3  OH2           6.6617603560      -11.1128657387       11.3239965810  CLST         193          1.0000000000
       578       193  TIP3  H1            7.2567233612      -11.8876407840       11.2701857916  CLST         193          1.0000000000
       579       193  TIP3  H2            6.7206449851      -10.7813779802       10.4030802275  CLST         193          1.0000000000
       580       194  TIP3  OH2          -5.7503961823       -4.5765178343       10.8553518095  CLST         194          1.0000000000
       581       194  TIP3  H1           -6.1424545418       -4.3595741916       11.7075578990  CLST         194          1.0000000000
       582       194  TIP3  H2           -6.5154664970       -4.4383411007       10.2514735000  CLST         194          1.0000000000
       583       195  TIP3  OH2          -8.4929374836        9.0804009338        9.6725815385  CLST         195          1.0000000000
       584       195  TIP3  H1           -9.3995707509        8.8920996036        9.9982475157  CLST         195          1.0000000000
       585       195  TIP3  H2           -8.1508848881        8.1792262634        9.5320018393  CLST         195          1.0000000000
       586       196  TIP3  OH2           6.0413500320      -11.8254910648       -5.9488180050  CLST         196          1.0000000000
       587       196  TIP3  H1            6.3818096397      -11.1366182928       -6.5563317646  CLST         196          1.0000000000
       588       196  TIP3  H2            5.1900063482      -11.4232527808       -5.6732921818  CLST         196          1.0000000000
       589       197  TIP3  OH2           2.5539995141       -9.0714138493       -3.5248754436  CLST         197          1.0000000000
       590       197  TIP3  H1            1.8250736625       -8.4439403391       -3.6021460977  CLST         197          1.0000000000
       591       197  TIP3  H2            3.2449087270       -8.4957888676       -3.1219394839  CLST         197          1.0000000000
       592       198  TIP3  OH2           9.9658175045        1.5574940674        4.4849184914  CLST         198          1.0000000000
       593       198  TIP3  H1            9.0003769758        1.5034032194        4.4632591003  CLST         198          1.0000000000
       594       198  TIP3  H2           10.1145392298        2.5231359327        4.3923699824  CLST         198          1.0000000000
       595       199  TIP3  OH2          -0.1642179050        8.5975964266       -5.6951030759  CLST         199          1.0000000000
       596       199  TIP3  H1           -1.0226498642        8.9815751705       -5.4107764558  CLST         199          1.0000000000
       597       199  TIP3  H2           -0.4300554611        7.6795768799       -5.9273168497  CLST         199          1.0000000000
       598       200  TIP3  OH2          -7.6945614724       11.5306955805       10.4695619771  CLST         200          1.0000000000
       599       200  TIP3  H1           -7.9287766698       10.6167951562       10.1760897605  CLST         200          1.0000000000
       600       200  TIP3  H2           -7.2936138416       11.8925044120        9.6502664661  CLST         200          1.0000000000
       601       201  TIP3  OH2           3.5938082542        1.2702565808       -0.2155806160  CLST         201          1.0000000000
       602       201  TIP3  H1            2.8433306088        1.3930679060        0.3959276804  CLST         201          1.0000000000
       603       201  TIP3  H2            4.3266178562        1.1195625705        0.4156093181  CLST         201          1.0000000000
       604       202  TIP3  OH2          -2.1436679562       -4.3520848835      -11.7511857289  CLST         202          1.0000000000
       605       202  TIP3  H1           -1.8676245866       -5.0174492390      -11.0927404811  CLST         202          1.0000000000
       606       202  TIP3  H2           -2.5907784086       -3.6775155380      -11.2092085366  CLST         202          1.0000000000
       607       203  TIP3  OH2          -1.5612483397       11.8401954533        7.3554269058  CLST         203          1.0000000000
       608       203  TIP3  H1           -1.1853823724       12.6019020502        7.8092502601  CLST         203          1.0000000000
       609       203  TIP3  H2           -2.0932009433       11.4232949985        8.0720509988  CLST         203          1.0000000000
       610       204  TIP3  OH2          -5.6145593979        6.6985225739      -12.4518978209  CLST         204          1.0000000000
       611       204  TIP3  H1           -5.1473690494        6.4899965660      -13.2856475502  CLST         204          1.0000000000
       612       204  TIP3  H2           -5.9952563125        5.8129831321      -12.2844571468  CLST         204          1.0000000000
       613       205  TIP3  OH2          -1.8971363834        7.4769740795       -2.7114198395  CLST         205          1.0000000000
       614       205  TIP3  H1           -2.0676948590        8.1152236411       -3.4394793856  CLST         205          1.0000000000
       615       205  TIP3  H2           -0.9200345828        7.5009581309       -2.6782539540  CLST         205          1.0000000000
       616       206  TIP3  OH2           4.8083073786      -11.2062354086       -9.4943495944  CLST         206          1.0000000000
       617       206  TIP3  H1            4.8597946300      -12.1198495565       -9.1197560844  CLST         206          1.0000000000
       618       206  TIP3  H2            5.4976611007      -10.7764726116       -8.9377895955  CLST         206          1.0000000000
       619       207  TIP3  OH2          12.5150264907       10.8211719458       11.9056124485  CLST         207          1.0000000000
       620       207  TIP3  H1           11.6449257478       10.4189564704       12.1134611388  CLST         207          1.0000000000
       621       207  TIP3  H2           12.9878546042       10.7143193421       12.7342259484  CLST         207          1.0000000000
       622       208  TIP3  OH2         -11.8999122370        2.1546983619        6.2268796605  CLST         208          1.0000000000
       623       208  TIP3  H1          -11.2165989359        2.8456608987        6.1600239874  CLST         208          1.0000000000
       624       208  TIP3  H2          -12.6154506082        2.6571667857        6.6622680389  CLST         208          1.0000000000
       625       209  TIP3  OH2           4.5681491262      -10.1104181917        7.3133701048  CLST         209          1.0000000000
       626       209  TIP3  H1            4.1917113137      -10.9972790576        7.3602662388  CLST         209          1.0000000000
       627       209  TIP3  H2            3.7696821091       -9.5685160892        7.5195468900  CLST         209          1.0000000000
       628       210  TIP3  OH2          12.7038400500      -10.7299722734        5.5632867814  CLST         210          1.0000000000
       629       210  TIP3  H1           12.5336617118      -10.6903679298        4.5968217044  CLST         210          1.0000000000
       630       210  TIP3  H2           12.4095656922       -9.8439252225        5.8409564808  CLST         210          1.0000000000
       631       211  TIP3  OH2          -0.4113257917       -9.1947918042       12.4184043154  CLST         211          1.0000000000
       632       211  TIP3  H1            0.3380155016       -9.6554084686       12.8521369776  CLST         211          1.0000000000
       633       211  TIP3  H2           -1.1008142664       -9.8930396196       12.4441620464  CLST         211          1.0000000000
       634       212  TIP3  OH2         -12.2348206035        3.0590836113       -2.8986792010  CLST         212          1.0000000000
       635       212  TIP3  H1          -11.6089723548        3.6847467987       -3.3106808383  CLST         212          1.0000000000
       636       212  TIP3  H2          -11.6720706694        2.2850590116       -2.7015036119  CLST         212          1.0000000000
       637       213  TIP3  OH2          -9.1901558630      -11.6065907443      -11.2200661914  CLST         213          1.0000000000
       638       213  TIP3  H1           -9.5627621969      -12.0018438109      -12.0101779012  CLST         213          1.0000000000
       639       213  TIP3  H2           -8.2770697792      -11.3870970715      -11.5236702487  CLST         213          1.0000000000
       640       214  TIP3  OH2          -7.5379365235        1.6023929278       -5.5238621978  CLST         214          1.0000000000
       641       214  TIP3  H1           -7.0283928185        1.0196942467       -4.9251796629  CLST         214          1.0000000000
       642       214  TIP3  H2           -7.9981871257        2.1660719078       -4.8687734951  CLST         214          1.0000000000
       643       215  TIP3  OH2         -11.1870629225      -11.8998571047        6.2842793484  CLST         215          1.0000000000
       644       215  TIP3  H1          -10.7931867402      -11.7760966107        5.3873567075  CLST         215          1.0000000000
       645       215  TIP3  H2          -11.3434767325      -12.8496436062        6.2746251019  CLST         215          1.0000000000
       646       216  TIP3  OH2         -11.0733203721       -2.2715578764        8.5027991078  CLST         216          1.0000000000
       647       216  TIP3  H1          -10.1462099056       -1.9494058092        8.5158854452  CLST         216          1.0000000000
       648       216  TIP3  H2          -10.9399966653       -3.2077590887        8.7696508823  CLST         216          1.0000000000
       649       217  TIP3  OH2           8.0483275062       -0.6885006870       -1.9429757809  CLST         217          1.0000000000
       650       217  TIP3  H1            8.2604653148       -1.5914446330       -2.2722039263  CLST         217          1.0000000000
       651       217  TIP3  H2            7.3321887171       -0.8977813441       -1.2990072214  CLST         217          1.0000000000
       652       218  TIP3  OH2          -7.6777565369       -3.8499068572        9.0552339694  CLST         218          1.0000000000
       653       218  TIP3  H1           -7.9315831011       -2.9167793448        8.8823897839  CLST         218          1.0000000000
       654       218  TIP3  H2           -7.2023159982       -4.0694351307        8.2235432553  CLST         218          1.0000000000
       655       219  TIP3  OH2         -12.5416810121       -4.6636478693       -3.2990526521  CLST         219          1.0000000000
       656       219  TIP3  H1          -12.5594208359       -3.8557750210       -2.7443787920  CLST         219          1.0000000000
       657       219  TIP3  H2          -12.7639901513       -4.2543515151       -4.1674762313  CLST         219          1.0000000000
       658       220  TIP3  OH2           6.5829220061        6.5501224573        8.0774262323  CLST         220          1.0000000000
       659       220  TIP3  H1            6.2003240916        6.4173359170        7.1845498547  CLST         220          1.0000000000
       660       220  TIP3  H2            5.7922228278        6.4842794318        8.6315514742  CLST         220          1.0000000000
       661       221  TIP3  OH2         -10.5569031608       -6.7475801517       10.8870996834  CLST         221          1.0000000000
       662       221  TIP3  H1          -11.0487676362       -7.0381379604       11.6571777567  CLST         221          1.0000000000
       663       221  TIP3  H2          -10.6563355979       -7.5379212449       10.3026825735  CLST         221          1.0000000000
       664       222  TIP3  OH2          -6.3808580126       -0.4697276870      -13.2947433964  CLST         222          1.0000000000
       665       222  TIP3  H1           -5.8025135097       -1.2540326755      -13.4609387810  CLST         222          1.0000000000
       666       222  TIP3  H2           -7.2559521608       -0.9127591839      -13.2227136978  CLST         222          1.0000000000
       667       223  TIP3  OH2           2.6251093807      -10.8455990306      -11.1298384222  CLST         223          1.0000000000
       668       223  TIP3  H1            2.0671717381      -11.6378814821      -10.9714063208  CLST         223          1.0000000000
       669       223  TIP3  H2            3.4462333124      -11.1014801148      -10.6584993364  CLST         223          1.0000000000
       670       224  TIP3  OH2           7.4949513687        4.5806763755        0.6916405845  CLST         224          1.0000000000
       671       224  TIP3  H1            8.2805940651        5.1660910517        0.7120324368  CLST         224          1.0000000000
       672       224  TIP3  H2            7.4368640567        4.3678169470       -0.2685935795  CLST         224          1.0000000000
       673       225  TIP3  OH2           0.9512480487        4.5359720969       -1.2937637301  CLST         225          1.0000000000
       674       225  TIP3  H1            0.2960782500        4.7916564480       -0.6082541305  CLST         225          1.0000000000
       675       225  TIP3  H2            0.7673720223        3.5707191737       -1.3348093422  CLST         225          1.0000000000
       676       226  TIP3  OH2          -6.0042317894       -4.4256619331        6.9459266222  CLST         226          1.0000000000
       677       226  TIP3  H1           -5.9156008640       -5.4009261603        6.8469406111  CLST         226          1.0000000000
       678       226  TIP3  H2           -5.8388446535       -4.1489304099        6.0207689670  CLST         226          1.0000000000
       679       227  TIP3  OH2          11.4154524809       -3.8397006910       -9.9539557340  CLST         227          1.0000000000
       680       227  TIP3  H1           11.5639954333       -3.0476658701       -9.3868915066  CLST         227          1.0000000000
       681       227  TIP3  H2           11.5014022552       -3.4604407247      -10.8492663672  CLST         227          1.0000000000
       682       228  TIP3  OH2           3.9601856129       13.4687450819        3.2813357076  CLST         228          1.0000000000
       683       228  TIP3  H1            3.6363933801       12.7182041550        3.8225263428  CLST         228          1.0000000000
       684       228  TIP3  H2            3.1397201512       13.8129096511        2.9214471041  CLST         228          1.0000000000
       685       229  TIP3  OH2         -11.6997425266      -13.0373890585        1.9930695834  CLST         229          1.0000000000
       686       229  TIP3  H1          -11.3249110916      -12.2905009942        1.4990481830  CLST         229          1.0000000000
       687       229  TIP3  H2          -11.2016339905      -12.9675220623        2.8173265243  CLST         229          1.0000000000
       688       230  TIP3  OH2          12.3444040019        6.1147586921       -3.1134427817  CLST         230          1.0000000000
       689       230  TIP3  H1           12.6759148035        5.2786508211       -3.4967796972  CLST         230          1.0000000000
       690       230  TIP3  H2           11.7331817692        5.7605550255       -2.4328472844  CLST         230          1.0000000000
       691       231  TIP3  OH2           7.1255813094        3.2402264368        4.4584581647  CLST         231          1.0000000000
       692       231  TIP3  H1            7.5276487138        4.1151459965        4.6241251302  CLST         231          1.0000000000
       693       231  TIP3  H2            6.2281222235        3.5173983123        4.1598422793  CLST         231          1.0000000000
       694       232  TIP3  OH2         -10.1050113736        8.4118806326        6.7692736204  CLST         232          1.0000000000
       695       232  TIP3  H1          -10.5310767650        9.0076377707        7.4261657666  CLST         232          1.0000000000
       696       232  TIP3  H2          -10.1865065804        7.5405815317        7.2232858282  CLST         232          1.0000000000
       697       233  TIP3  OH2           4.8679319701       -4.2949200694        8.3811455638  CLST         233          1.0000000000
       698       233  TIP3  H1            5.2216546031       -4.8802726007        9.0804724411  CLST         233          1.0000000000
       699       233  TIP3  H2            4.3466851679       -3.6480929043        8.9085583549  CLST         233          1.0000000000
       700       234  TIP3  OH2          -3.5824227961        8.5640344426       -0.8822883567  CLST         234          1.0000000000
       701       234  TIP3  H1           -2.9328974257        8.1604919740       -1.4974362676  CLST         234          1.0000000000
       702       234  TIP3  H2           -3.7784862139        9.3922566110       -1.3718415976  CLST         234          1.0000000000
       703       235  TIP3  OH2          -1.7506833183       -4.1291559481       -8.4097549461  CLST         235          1.0000000000
       704       235  TIP3  H1           -1.6069048092       -5.0000247844       -8.8289753717  CLST         235          1.0000000000
       705       235  TIP3  H2           -0.9554071030       -3.6541300239       -8.7257852995  CLST         235          1.0000000000
       706       236  TIP3  OH2          -0.3832712450      -12.8750480076       -3.0713239247  CLST         236          1.0000000000
       707       236  TIP3  H1            0.4346928010      -12.3692753662       -2.8684913904  CLST         236          1.0000000000
       708       236  TIP3  H2           -0.8853527096      -12.7633540139       -2.2456489001  CLST         236          1.0000000000
       709       237  TIP3  OH2          -3.3952851262       -6.0572368060       10.9826485701  CLST         237          1.0000000000
       710       237  TIP3  H1           -4.2720043208       -5.6216422898       11.0017882403  CLST         237          1.0000000000
       711       237  TIP3  H2           -3.3877588242       -6.4119614446       10.0680897139  CLST         237          1.0000000000
       712       238  TIP3  OH2          -0.0701919344        4.2440576097        7.1683669552  CLST         238          1.0000000000
       713       238  TIP3  H1           -0.5999157213        4.8262323359        6.5800091903  CLST         238          1.0000000000
       714       238  TIP3  H2           -0.0225932550        4.8150102085        7.9674641210  CLST         238          1.0000000000
       715       239  TIP3  OH2         -13.3830751975        6.0089781773        2.8088290553  CLST         239          1.0000000000
       716       239  TIP3  H1          -13.3443723038        6.0842759081        1.8357567985  CLST         239          1.0000000000
       717       239  TIP3  H2          -12.7843488535        5.2491247474        2.9663582339  CLST         239          1.0000000000
       718       240  TIP3  OH2         -14.0937903846        8.6948355314       -0.1957598148  CLST         240          1.0000000000
       719       240  TIP3  H1          -14.4211325635        8.8835336709        0.7084995581  CLST         240          1.0000000000
       720       240  TIP3  H2          -13.9182294037        7.7349773339       -0.1062818950  CLST         240          1.0000000000
       721       241  TIP3  OH2          -7.6523884937       -7.9495475360       -8.9763444074  CLST         241          1.0000000000
       722       241  TIP3  H1           -7.6657057759       -8.0316134013       -7.9959207131  CLST         241          1.0000000000
       723       241  TIP3  H2           -7.4925296291       -6.9837177433       -9.0455564363  CLST         241          1.0000000000
       724       242  TIP3  OH2           6.7243027758       -5.4969171195       10.0334806617  CLST         242          1.0000000000
       725       242  TIP3  H1            7.2297732488       -4.7337579710        9.7081277812  CLST         242          1.0000000000
       726       242  TIP3  H2            7.2053689479       -6.2535731233        9.6349637634  CLST         242          1.0000000000
       727       243  TIP3  OH2          -6.4498140155       -7.8360317469       -3.8206899619  CLST         243          1.0000000000
       728       243  TIP3  H1           -6.2633219773       -8.7901618824       -3.9569797948  CLST         243          1.0000000000
       729       243  TIP3  H2           -6.2706003735       -7.7779196872       -2.8532259817  CLST         243          1.0000000000
       730       244  TIP3  OH2           5.5194557711        5.8637751230        5.6429932150  CLST         244          1.0000000000
       731       244  TIP3  H1            5.1710103022        5.4230922055        4.8371998027  CLST         244          1.0000000000
       732       244  TIP3  H2            4.8409454015        5.5723801907        6.2890623133  CLST         244          1.0000000000
       733       245  TIP3  OH2          -6.8531848563        3.2842354124       -7.5121126412  CLST         245          1.0000000000
       734       245  TIP3  H1           -7.2261167695        2.6398381542       -6.8644057706  CLST         245          1.0000000000
       735       245  TIP3  H2           -7.1435948133        4.1270815753       -7.1020526399  CLST         245          1.0000000000
       736       246  TIP3  OH2           2.3615655422       -5.8431933470       -1.2953778541  CLST         246          1.0000000000
       737       246  TIP3  H1            2.2303698985       -5.1884121084       -2.0178586060  CLST         246          1.0000000000
       738       246  TIP3  H2            3.0723216171       -6.3889946681       -1.6846758958  CLST         246          1.0000000000
       739       247  TIP3  OH2           6.0152975058        8.0174447121        0.7466675426  CLST         247          1.0000000000
       740       247  TIP3  H1            6.3930017728        7.7064793915       -0.1074521213  CLST         247          1.0000000000
       741       247  TIP3  H2            5.8342261518        8.9564674639        0.5231849406  CLST         247          1.0000000000
       742       248  TIP3  OH2          -1.7419844394        8.0222360088      -12.1052462074  CLST         248          1.0000000000
       743       248  TIP3  H1           -1.7095430387        8.9271972961      -12.4691826233  CLST         248          1.0000000000
       744       248  TIP3  H2           -0.7974767330        7.8657516676      -11.9204208208  CLST         248          1.0000000000
       745       249  TIP3  OH2           9.0997250053        4.9941972581       -7.0174368889  CLST         249          1.0000000000
       746       249  TIP3  H1            8.2949057025        5.5380918182       -6.8754621089  CLST         249          1.0000000000
       747       249  TIP3  H2            8.7113553746        4.0972332028       -7.0584882050  CLST         249          1.0000000000
       748       250  TIP3  OH2          -8.2775403385        9.1908119235       -5.9391180301  CLST         250          1.0000000000
       749       250  TIP3  H1           -7.9146082311        8.9704478445       -6.8167428677  CLST         250          1.0000000000
       750       250  TIP3  H2           -8.7092650874       10.0450063382       -6.1417145428  CLST         250          1.0000000000
       751       251  TIP3  OH2          -4.1715078429       12.1869195305        2.7880014691  CLST         251          1.0000000000
       752       251  TIP3  H1           -4.0897901547       13.1436523949        2.7795394354  CLST         251          1.0000000000
       753       251  TIP3  H2           -3.5483802823       11.9324738093        3.5031991560  CLST         251          1.0000000000
       754       252  TIP3  OH2           5.4736258657        5.3329567860       13.9622958666  CLST         252          1.0000000000
       755       252  TIP3  H1            5.3720414444        6.2961183001       13.7658505261  CLST         252          1.0000000000
       756       252  TIP3  H2            5.5526025624        5.3498089055       14.9169405851  CLST         252          1.0000000000
       757       253  TIP3  OH2           6.5987189586       14.1483195896        3.0647590303  CLST         253          1.0000000000
       758       253  TIP3  H1            5.6330007118       14.0089484918        3.1991049581  CLST         253          1.0000000000
       759       253  TIP3  H2            6.7311232920       13.6215908874        2.2513464384  CLST         253          1.0000000000
       760       254  TIP3  OH2          -4.1491203815        7.7618003030        3.1558178290  CLST         254          1.0000000000
       761       254  TIP3  H1           -4.6743323264        8.5484256781        2.8948725389  CLST         254          1.0000000000
       762       254  TIP3  H2           -4.8465816609        7.2242800361        3.5936136116  CLST         254          1.0000000000
       763       255  TIP3  OH2          -6.5268547246       10.0687830730        5.3821398734  CLST         255          1.0000000000
       764       255  TIP3  H1           -7.4446126952       10.4260938275        5.3796460956  CLST         255          1.0000000000
       765       255  TIP3  H2           -6.7245369758        9.1598897184        5.7016793969  CLST         255          1.0000000000
       766       256  TIP3  OH2          11.3155535649        3.1099893852       -0.5361979188  CLST         256          1.0000000000
       767       256  TIP3  H1           11.8087998261        2.4105923491       -1.0092090517  CLST         256          1.0000000000
       768       256  TIP3  H2           11.2695801190        2.7379703054        0.3656841762  CLST         256          1.0000000000
       769       257  TIP3  OH2          -8.2720038521       -1.5902623719       -4.5879976640  CLST         257          1.0000000000
       770       257  TIP3  H1           -7.5247887853       -1.0688779973       -4.2160811062  CLST         257          1.0000000000
       771       257  TIP3  H2           -8.2044654322       -1.3641161567       -5.5362151147  CLST         257          1.0000000000
       772       258  TIP3  OH2          -5.4520564132       10.0372707440        8.0491181755  CLST         258          1.0000000000
       773       258  TIP3  H1           -5.5880152916        9.9451677096        7.0918625384  CLST         258          1.0000000000
       774       258  TIP3  H2           -5.9713582660       10.8519583738        8.2088169441  CLST         258          1.0000000000
       775       259  TIP3  OH2           9.5644651648        6.3660062187        0.8833741813  CLST         259          1.0000000000
       776       259  TIP3  H1           10.4510547744        6.7559699055        1.0463836843  CLST         259          1.0000000000
       777       259  TIP3  H2            9.0402478401        6.8496521112        1.5517386659  CLST         259          1.0000000000
       778       260  TIP3  OH2          -5.2615588884        7.9693250262        9.8738001405  CLST         260          1.0000000000
       779       260  TIP3  H1           -5.4042880371        8.6508416491        9.1854264123  CLST         260          1.0000000000
       780       260  TIP3  H2           -5.9997640078        7.3635093729        9.6877721749  CLST         260          1.0000000000
       781       261  TIP3  OH2           0.5284854593       -4.2788691489       12.4385413873  CLST         261          1.0000000000
       782       261  TIP3  H1            0.0229863896       -5.1192187706       12.5704496404  CLST         261          1.0000000000
       783       261  TIP3  H2            1.4364647533       -4.5970213389       12.5213488936  CLST         261          1.0000000000
       784       262  TIP3  OH2         -10.3739739082        4.4069951326        5.5838639425  CLST         262          1.0000000000
       785       262  TIP3  H1           -9.5176399017        4.4277810853        5.1077601567  CLST         262          1.0000000000
       786       262  TIP3  H2          -10.9821383325        4.3238828420        4.8185762761  CLST         262          1.0000000000
       787       263  TIP3  OH2           1.6523189958        0.8933787858        6.9283052695  CLST         263          1.0000000000
       788       263  TIP3  H1            2.1366009456        1.7120057206        6.6966059609  CLST         263          1.0000000000
       789       263  TIP3  H2            2.3986810407        0.3027947684        7.1752248119  CLST         263          1.0000000000
       790       264  TIP3  OH2           4.6974460289       -4.6373073337       -9.7706144156  CLST         264          1.0000000000
       791       264  TIP3  H1            4.5285207262       -5.5325765443      -10.1194765033  CLST         264          1.0000000000
       792       264  TIP3  H2            3.9695213281       -4.1358211969      -10.1922382870  CLST         264          1.0000000000
       793       265  TIP3  OH2           8.2356616259        5.1992212124       -9.7788941656  CLST         265          1.0000000000
       794       265  TIP3  H1            8.2135885981        6.0980968741      -10.1699555285  CLST         265          1.0000000000
       795       265  TIP3  H2            8.9731342951        5.2807451066       -9.1560675117  CLST         265          1.0000000000
       796       266  TIP3  OH2          -7.9460360520       -7.0193208012        0.5644912183  CLST         266          1.0000000000
       797       266  TIP3  H1           -8.7310993196       -7.1485402671        1.1384546344  CLST         266          1.0000000000
       798       266  TIP3  H2           -8.3980918618       -6.5832377410       -0.1971149392  CLST         266          1.0000000000
       799       267  TIP3  OH2           1.2513539098        2.4566262799       -4.9157420864  CLST         267          1.0000000000
       800       267  TIP3  H1            1.1751244724        3.3607491980       -4.5540654807  CLST         267          1.0000000000
       801       267  TIP3  H2            1.8707697738        2.0497734707       -4.2716354700  CLST         267          1.0000000000
       802       268  TIP3  OH2           5.4000107498       -5.0737171265       -7.1570865258  CLST         268          1.0000000000
       803       268  TIP3  H1            5.1597552266       -4.7256225496       -8.0400209926  CLST         268          1.0000000000
       804       268  TIP3  H2            5.2132536997       -6.0274303032       -7.3048289449  CLST         268          1.0000000000
       805       269  TIP3  OH2           6.0640469943       10.6390953487       -0.0770661627  CLST         269          1.0000000000
       806       269  TIP3  H1            6.9596336037       10.5957073356       -0.4750796653  CLST         269          1.0000000000
       807       269  TIP3  H2            6.1906845687       11.4203334198        0.4901602805  CLST         269          1.0000000000
       808       270  TIP3  OH2           1.8213568832        9.7208136542       -7.1634622822  CLST         270          1.0000000000
       809       270  TIP3  H1            2.0562396777        9.0008227827       -7.7725358356  CLST         270          1.0000000000
       810       270  TIP3  H2            1.1380019559        9.2927023606       -6.5984669905  CLST         270          1.0000000000
       811       271  TIP3  OH2          -6.0056400237       -7.9379110918       -1.1673492755  CLST         271          1.0000000000
       812       271  TIP3  H1           -6.7685925732       -7.6933881032       -0.6050602696  CLST         271          1.0000000000
       813       271  TIP3  H2           -5.3013276268       -7.9639213655       -0.4939871187  CLST         271          1.0000000000
       814       272  TIP3  OH2           8.8450288065       -8.8950381893        5.3865659262  CLST         272          1.0000000000
       815       272  TIP3  H1            7.8667060210       -8.9822177576        5.4373723357  CLST         272          1.0000000000
       816       272  TIP3  H2            8.9284221312       -8.3362260646        4.5843828531  CLST         272          1.0000000000
       817       273  TIP3  OH2         -14.0897634928        8.7854461295        2.5723390666  CLST         273          1.0000000000
       818       273  TIP3  H1          -14.4988730652        9.2852516931        3.3164342974  CLST         273          1.0000000000
       819       273  TIP3  H2          -13.9368860541        7.9147095489        2.9864660641  CLST         273          1.0000000000
       820       274  TIP3  OH2           4.0610018210       12.5665121346       -4.1440069204  CLST         274          1.0000000000
       821       274  TIP3  H1            4.1036851686       11.9402713508       -3.3793031102  CLST         274          1.0000000000
       822       274  TIP3  H2            4.1028762965       13.4156156158       -3.6901744055  CLST         274          1.0000000000
       823       275  TIP3  OH2           8.7741928380      -11.6674015284        5.4284347672  CLST         275          1.0000000000
       824       275  TIP3  H1            9.0498358292      -10.7279504555        5.4444937290  CLST         275          1.0000000000
       825       275  TIP3  H2            9.6241123566      -12.1265747220        5.2557165876  CLST         275          1.0000000000
       826       276  TIP3  OH2          -0.2379319088       -6.6444928166        1.8351369930  CLST         276          1.0000000000
       827       276  TIP3  H1           -0.7746927401       -6.5343479881        1.0198947355  CLST         276          1.0000000000
       828       276  TIP3  H2           -0.5297461491       -5.8517096445        2.3480714004  CLST         276          1.0000000000
       829       277  TIP3  OH2           6.8276097994        6.4685177347       -6.6571620382  CLST         277          1.0000000000
       830       277  TIP3  H1            6.0373293543        5.9792044743       -6.9685930084  CLST         277          1.0000000000
       831       277  TIP3  H2            6.6970514234        7.3483302848       -7.0599218202  CLST         277          1.0000000000
       832       278  TIP3  OH2           0.3182758313       -8.1003857981        4.2485588454  CLST         278          1.0000000000
       833       278  TIP3  H1            0.2362372096       -7.6627328440        3.3848035641  CLST         278          1.0000000000
       834       278  TIP3  H2           -0.0309292986       -7.4015371679        4.8352461887  CLST         278          1.0000000000
       835       279  TIP3  OH2         -13.0109651033        6.1975620570        0.0506188053  CLST         279          1.0000000000
       836       279  TIP3  H1          -13.1845326137        5.2380007295       -0.0985666380  CLST         279          1.0000000000
       837       279  TIP3  H2          -12.4800033452        6.4014202661       -0.7486239402  CLST         279          1.0000000000
       838       280  TIP3  OH2          -3.9520637705      -10.7070369967        4.8137458725  CLST         280          1.0000000000
       839       280  TIP3  H1           -4.2666366017       -9.7752914065        4.7138896351  CLST         280          1.0000000000
       840       280  TIP3  H2           -3.5625427020      -10.8416678011        3.9213642720  CLST         280          1.0000000000
       841       281  TIP3  OH2           8.1365909031        7.8033667618      -10.6114372017  CLST         281          1.0000000000
       842       281  TIP3  H1            8.5056807256        8.7111847653      -10.6029876767  CLST         281          1.0000000000
       843       281  TIP3  H2            7.1920465145        7.9945783405      -10.4326027180  CLST         281          1.0000000000
       844       282  TIP3  OH2          -7.5271832618      -10.8874677756        9.9527606971  CLST         282          1.0000000000
       845       282  TIP3  H1           -8.2631277803      -10.7312288666        9.3231954494  CLST         282          1.0000000000
       846       282  TIP3  H2           -7.0766385229      -11.6331029954        9.5111509795  CLST         282          1.0000000000
       847       283  TIP3  OH2           4.5949865449        8.3565803333       -4.7488726048  CLST         283          1.0000000000
       848       283  TIP3  H1            4.5885426776        9.2450499528       -5.1656423635  CLST         283          1.0000000000
       849       283  TIP3  H2            4.1084885907        8.5173782146       -3.9118916531  CLST         283          1.0000000000
       850       284  TIP3  OH2          11.9173712557        8.4100118555       -1.5416074487  CLST         284          1.0000000000
       851       284  TIP3  H1           12.3215835484        7.7306530334       -2.1104488539  CLST         284          1.0000000000
       852       284  TIP3  H2           11.0517055319        8.5463757859       -1.9591818198  CLST         284          1.0000000000
       853       285  TIP3  OH2          -5.2749109904        1.1540976904        9.2014282603  CLST         285          1.0000000000
       854       285  TIP3  H1           -4.4132547655        1.3095310626        8.7443748216  CLST         285          1.0000000000
       855       285  TIP3  H2           -5.1222142943        1.6624354314       10.0267339261  CLST         285          1.0000000000
       856       286  TIP3  OH2           3.4350326285        5.6909409055       -1.1590283583  CLST         286          1.0000000000
       857       286  TIP3  H1            2.5428909606        5.2981560227       -1.0310625199  CLST         286          1.0000000000
       858       286  TIP3  H2            3.8319478572        5.5748020641       -0.2685251580  CLST         286          1.0000000000
       859       287  TIP3  OH2          -3.9380542127        9.5807020549       11.6306889542  CLST         287          1.0000000000
       860       287  TIP3  H1           -4.6395979194       10.1251230168       12.0603149141  CLST         287          1.0000000000
       861       287  TIP3  H2           -4.4974532092        8.9222453240       11.1604512990  CLST         287          1.0000000000
       862       288  TIP3  OH2           6.3435125839        3.4255976872       -9.1170932689  CLST         288          1.0000000000
       863       288  TIP3  H1            6.0271723713        3.0346178276       -9.9405171006  CLST         288          1.0000000000
       864       288  TIP3  H2            7.0123556760        4.0743800691       -9.4539575433  CLST         288          1.0000000000
       865       289  TIP3  OH2          -6.9048593543       -5.3046466546       -9.0379560905  CLST         289          1.0000000000
       866       289  TIP3  H1           -7.6017973327       -4.7450457741       -8.6213077353  CLST         289          1.0000000000
       867       289  TIP3  H2           -6.1007537678       -4.8930935344       -8.7000280288  CLST         289          1.0000000000
       868       290  TIP3  OH2           1.5285004312      -12.8896534620       12.1568075319  CLST         290          1.0000000000
       869       290  TIP3  H1            2.0650487470      -13.4954371326       12.6704721372  CLST         290          1.0000000000
       870       290  TIP3  H2            1.5905743540      -12.0605627393       12.6748620746  CLST         290          1.0000000000
       871       291  TIP3  OH2         -10.1054014305       -3.6010725533        3.6836636822  CLST         291          1.0000000000
       872       291  TIP3  H1          -10.6055676544       -3.2671488464        4.4585754798  CLST         291          1.0000000000
       873       291  TIP3  H2          -10.6605302975       -4.3618223872        3.4295289140  CLST         291          1.0000000000
       874       292  TIP3  OH2          12.2944022833        3.6754542627       -4.5347108261  CLST         292          1.0000000000
       875       292  TIP3  H1           11.4873488879        3.1354560318       -4.6345971121  CLST         292          1.0000000000
       876       292  TIP3  H2           12.2662029691        4.2081462127       -5.3568752227  CLST         292          1.0000000000
       877       293  TIP3  OH2           8.5942865093       10.6227824581       10.1024972869  CLST         293          1.0000000000
       878       293  TIP3  H1            8.2711434425       11.4329640724        9.6618290485  CLST         293          1.0000000000
       879       293  TIP3  H2            9.2140998228       10.2980724053        9.4197229471  CLST         293          1.0000000000
       880       294  TIP3  OH2           4.5658705388        3.9806434900       -2.9654814645  CLST         294          1.0000000000
       881       294  TIP3  H1            4.2086738679        4.5697330141       -2.2659137850  CLST         294          1.0000000000
       882       294  TIP3  H2            4.4024473453        4.5373334452       -3.7561930842  CLST         294          1.0000000000
       883       295  TIP3  OH2          -2.5905351223      -12.5652840884       -8.5649108826  CLST         295          1.0000000000
       884       295  TIP3  H1           -3.1842877264      -12.6917414683       -7.7947058311  CLST         295          1.0000000000
       885       295  TIP3  H2           -1.7366205442      -12.8398894967       -8.1776353316  CLST         295          1.0000000000
       886       296  TIP3  OH2          -1.2685364033       10.6880803388      -12.6775668566  CLST         296          1.0000000000
       887       296  TIP3  H1           -0.3015400692       10.6446764275      -12.8091513875  CLST         296          1.0000000000
       888       296  TIP3  H2           -1.3069797290       10.8692516387      -11.7063209161  CLST         296          1.0000000000
       889       297  TIP3  OH2           7.7722005703       -0.8310011259       12.4022231132  CLST         297          1.0000000000
       890       297  TIP3  H1            8.3469642542       -1.2927778018       11.7644178490  CLST         297          1.0000000000
       891       297  TIP3  H2            6.9244724848       -1.3020870422       12.3002778470  CLST         297          1.0000000000
       892       298  TIP3  OH2           1.1165872782       -1.1476056480       -7.7762155428  CLST         298          1.0000000000
       893       298  TIP3  H1            1.4279311815       -0.3864238773       -8.3167981715  CLST         298          1.0000000000
       894       298  TIP3  H2            0.8758859877       -1.8004879674       -8.4682385767  CLST         298          1.0000000000
       895       299  TIP3  OH2           3.6670172537       10.0477487582       13.0631348899  CLST         299          1.0000000000
       896       299  TIP3  H1            2.7663791705        9.8588248650       12.7123570393  CLST         299          1.0000000000
       897       299  TIP3  H2            3.7676758556       10.9674389741       12.8152054904  CLST         299          1.0000000000
       898       300  TIP3  OH2         -10.5197733767        5.1272924997       -3.6021509015  CLST         300          1.0000000000
       899       300  TIP3  H1          -10.2830367558        5.7524576798       -4.3178516053  CLST         300          1.0000000000
       900       300  TIP3  H2          -10.8904167341        5.7624930334       -2.9523178739  CLST         300          1.0000000000
       901       301  TIP3  OH2           9.7360297988       -8.2986321559       11.3231904874  CLST         301          1.0000000000
       902       301  TIP3  H1            9.5816207618       -7.9410216549       12.2236784769  CLST         301          1.0000000000
       903       301  TIP3  H2            9.8538937911       -9.2582429726       11.5204274234  CLST         301          1.0000000000
       904       302  TIP3  OH2           7.4155536326       13.3626309775        5.6246554644  CLST         302          1.0000000000
       905       302  TIP3  H1            7.2012901387       13.8853148051        4.8320575349  CLST         302          1.0000000000
       906       302  TIP3  H2            6.9189515404       12.5478714948        5.4130188283  CLST         302          1.0000000000
       907       303  TIP3  OH2         -10.8123830787        0.8817155522       -1.9008077114  CLST         303          1.0000000000
       908       303  TIP3  H1           -9.8541536728        0.9184467738       -1.7054251950  CLST         303          1.0000000000
       909       303  TIP3  H2          -10.8300428790        0.2242062647       -2.6284439944  CLST         303          1.0000000000
       910       304  TIP3  OH2          -7.7809686355        1.8371210852      -13.6101917826  CLST         304          1.0000000000
       911       304  TIP3  H1           -7.1677944993        1.0689119656      -13.6637731742  CLST         304          1.0000000000
       912       304  TIP3  H2           -7.1575595278        2.5799679286      -13.5405955876  CLST         304          1.0000000000
       913       305  TIP3  OH2           3.4128124811       -2.4821157752       13.7528373140  CLST         305          1.0000000000
       914       305  TIP3  H1            4.0607053944       -2.8055443677       14.3845614631  CLST         305          1.0000000000
       915       305  TIP3  H2            3.9992043760       -2.1313620053       13.0487798280  CLST         305          1.0000000000
       916       306  TIP3  OH2           8.3911142730      -11.1891563904      -11.5152135016  CLST         306          1.0000000000
       917       306  TIP3  H1            9.0405014196      -10.8877378704      -12.1999853930  CLST         306          1.0000000000
       918       306  TIP3  H2            8.6633955419      -12.1064145121      -11.4033631164  CLST         306          1.0000000000
       919       307  TIP3  OH2           9.6715646190        8.1796864488       -7.1927089510  CLST         307          1.0000000000
       920       307  TIP3  H1            8.7301585698        8.4279574412       -7.1323707262  CLST         307          1.0000000000
       921       307  TIP3  H2            9.8668955663        7.8987573648       -6.2745449847  CLST         307          1.0000000000
       922       308  TIP3  OH2         -10.2665476880       -4.8251207258        8.9889838763  CLST         308          1.0000000000
       923       308  TIP3  H1          -10.4111254665       -5.4994771486        9.6935086163  CLST         308          1.0000000000
       924       308  TIP3  H2           -9.3051067564       -4.6674458735        9.0879405201  CLST         308          1.0000000000
       925       309  TIP3  OH2          -1.9301097646       -0.4583624463        5.9293117955  CLST         309          1.0000000000
       926       309  TIP3  H1           -2.6777383921       -0.8409877367        5.4254739542  CLST         309          1.0000000000
       927       309  TIP3  H2           -1.8643604185       -1.1156809442        6.6610058886  CLST         309          1.0000000000
       928       310  TIP3  OH2          -5.3743965410       -0.8648302566        7.3166882297  CLST         310          1.0000000000
       929       310  TIP3  H1           -5.3096320816       -0.1633176537        7.9986165224  CLST         310          1.0000000000
       930       310  TIP3  H2           -5.0997709448       -1.6391436420        7.8513360743  CLST         310          1.0000000000
       931       311  TIP3  OH2          -6.8586648169        8.9035407243      -11.4663111923  CLST         311          1.0000000000
       932       311  TIP3  H1           -6.4280481866        8.1654662688      -11.9579342566  CLST         311          1.0000000000
       933       311  TIP3  H2           -6.9416330207        8.5046263205      -10.5853460479  CLST         311          1.0000000000
       934       312  TIP3  OH2           6.7559089386        0.2516918377       -6.1974564345  CLST         312          1.0000000000
       935       312  TIP3  H1            6.6886139787        0.1765400244       -5.2204472316  CLST         312          1.0000000000
       936       312  TIP3  H2            5.8064316474        0.3868577901       -6.3850153181  CLST         312          1.0000000000
       937       313  TIP3  OH2          -9.3337492858      -10.5946787590        7.9166839811  CLST         313          1.0000000000
       938       313  TIP3  H1           -8.8142015792      -10.1352639476        7.2201459372  CLST         313          1.0000000000
       939       313  TIP3  H2           -9.9828080366      -11.0837167122        7.3730753422  CLST         313          1.0000000000
       940       314  TIP3  OH2          -1.3097388079      -11.1046921234      -10.4845286662  CLST         314          1.0000000000
       941       314  TIP3  H1           -1.3198390959      -10.2433925887      -10.0228251130  CLST         314          1.0000000000
       942       314  TIP3  H2           -1.8675988967      -11.6328284399       -9.8714672162  CLST         314          1.0000000000
       943       315  TIP3  OH2          -1.4924640427       -0.5174503508       -7.2539901343  CLST         315          1.0000000000
       944       315  TIP3  H1           -0.5737320380       -0.7776051808       -7.4643288631  CLST         315          1.0000000000
       945       315  TIP3  H2           -1.3527627191       -0.1449852320       -6.3540401801  CLST         315          1.0000000000
       946       316  TIP3  OH2         -12.6295663339       -3.4942497826       -5.7420120467  CLST         316          1.0000000000
       947       316  TIP3  H1          -12.2649471392       -4.1170731507       -6.3983093871  CLST         316          1.0000000000
       948       316  TIP3  H2          -12.2035672357       -2.6623936269       -6.0163146595  CLST         316          1.0000000000
       949       317  TIP3  OH2          -6.3703337216        0.0772352263       -3.5583076391  CLST         317          1.0000000000
       950       317  TIP3  H1           -5.4272885695        0.1337048572       -3.2760324098  CLST         317          1.0000000000
       951       317  TIP3  H2           -6.8244910341        0.4314152015       -2.7659623652  CLST         317          1.0000000000
       952       318  TIP3  OH2          -4.0174131273       -9.1680396334       -9.1703778674  CLST         318          1.0000000000
       953       318  TIP3  H1           -4.2078886295       -9.3163571206       -8.2164740896  CLST         318          1.0000000000
       954       318  TIP3  H2           -3.0804327536       -8.8953915575       -9.1263775512  CLST         318          1.0000000000
       955       319  TIP3  OH2           5.9419725713       10.9419685172        7.9540099680  CLST         319          1.0000000000
       956       319  TIP3  H1            6.5479586378       10.1718402475        7.9250670399  CLST         319          1.0000000000
       957       319  TIP3  H2            6.5784800794       11.6439425591        8.1990425963  CLST         319          1.0000000000
       958       320  TIP3  OH2         -10.4499030129        1.5696347628      -14.0573719559  CLST         320          1.0000000000
       959       320  TIP3  H1           -9.4701845753        1.6300111905      -14.0455674668  CLST         320          1.0000000000
       960       320  TIP3  H2          -10.5817740163        0.6319495208      -13.8770325581  CLST         320          1.0000000000
       961       321  TIP3  OH2         -10.2328753468        9.8274821350       -9.4706156639  CLST         321          1.0000000000
       962       321  TIP3  H1          -11.0545664308        9.4487729740       -9.8040916378  CLST         321          1.0000000000
       963       321  TIP3  H2           -9.8609203224       10.2389039168      -10.2826050946  CLST         321          1.0000000000
       964       322  TIP3  OH2         -12.3927091382       -2.1935611131       -2.1199599191  CLST         322          1.0000000000
       965       322  TIP3  H1          -11.9270826758       -1.7152822649       -2.8403875003  CLST         322          1.0000000000
       966       322  TIP3  H2          -11.6379442469       -2.3148153496       -1.4964081513  CLST         322          1.0000000000
       967       323  TIP3  OH2          -0.8625783352        3.7349875061        3.6603083496  CLST         323          1.0000000000
       968       323  TIP3  H1           -0.6522870310        2.8785024281        4.0886768278  CLST         323          1.0000000000
       969       323  TIP3  H2            0.0081733873        4.0224980265        3.3438322193  CLST         323          1.0000000000
       970       324  TIP3  OH2         -10.0977563657        6.1396200464        0.6435582198  CLST         324          1.0000000000
       971       324  TIP3  H1          -10.8851795773        6.6991553844        0.7185687596  CLST         324          1.0000000000
       972       324  TIP3  H2           -9.5275444042        6.4939037553        1.3601932596  CLST         324          1.0000000000
       973       325  TIP3  OH2          -4.7754545471        1.1867608649        3.8455676881  CLST         325          1.0000000000
       974       325  TIP3  H1           -5.7532236361        1.1224642915        3.7604125830  CLST         325          1.0000000000
       975       325  TIP3  H2           -4.6440645338        2.1341247632        3.9411208710  CLST         325          1.0000000000
       976       326  TIP3  OH2           9.2564894273        8.5195410472       -2.5688409834  CLST         326          1.0000000000
       977       326  TIP3  H1            8.8603203408        7.9665671926       -1.8680914438  CLST         326          1.0000000000
       978       326  TIP3  H2            8.5100593565        8.5035027370       -3.2069951593  CLST         326          1.0000000000
       979       327  TIP3  OH2          11.1826617966       -3.3337344272      -12.7020560644  CLST         327          1.0000000000
       980       327  TIP3  H1           11.4131300687       -2.7769133729      -13.4533639279  CLST         327          1.0000000000
       981       327  TIP3  H2           10.2250800389       -3.1230507710      -12.5898269271  CLST         327          1.0000000000
       982       328  TIP3  OH2           2.7858938052        8.3303746951       -9.6109706898  CLST         328          1.0000000000
       983       328  TIP3  H1            3.6242894284        7.8438502334       -9.6327223123  CLST         328          1.0000000000
       984       328  TIP3  H2            3.1227431859        9.2496883941       -9.6483091569  CLST         328          1.0000000000
       985       329  TIP3  OH2           2.0180115589      -11.6350059704       -2.6396486525  CLST         329          1.0000000000
       986       329  TIP3  H1            2.1742901269      -10.7307350179       -2.9836265429  CLST         329          1.0000000000
       987       329  TIP3  H2            2.6618600739      -11.6511708926       -1.8978161459  CLST         329          1.0000000000
       988       330  TIP3  OH2          -9.3864036374       -0.9309604833        3.4243690873  CLST         330          1.0000000000
       989       330  TIP3  H1           -9.5601896611       -1.8886409353        3.3516293800  CLST         330          1.0000000000
       990       330  TIP3  H2          -10.2045291689       -0.6237292834        3.8637687931  CLST         330          1.0000000000
       991       331  TIP3  OH2          11.4011812852        9.6752494770       -8.6983360253  CLST         331          1.0000000000
       992       331  TIP3  H1           11.9087712864        8.9433708402       -9.0795576229  CLST         331          1.0000000000
       993       331  TIP3  H2           10.8047472661        9.1815196335       -8.0940511644  CLST         331          1.0000000000
       994       332  TIP3  OH2          10.8655027911       -2.1157995543       -4.5443933000  CLST         332          1.0000000000
       995       332  TIP3  H1           11.6807796450       -1.9432239049       -5.0650936575  CLST         332          1.0000000000
       996       332  TIP3  H2           10.7288929438       -1.2352292573       -4.1342181393  CLST         332          1.0000000000
       997       333  TIP3  OH2          10.7468933255      -13.3484027027        7.8999383872  CLST         333          1.0000000000
       998       333  TIP3  H1            9.7899639214      -13.1571416339        7.9050238013  CLST         333          1.0000000000
       999       333  TIP3  H2           10.9266649393      -13.4204462292        6.9414702386  CLST         333          1.0000000000
      1000       334  TIP3  OH2         -11.0067263275       -8.9340500363        9.3837394482  CLST         334          1.0000000000
      1001       334  TIP3  H1          -11.7795892483       -9.2456626576        8.8673537577  CLST         334          1.0000000000
      1002       334  TIP3  H2          -10.3122139256       -9.4830339873        8.9737736091  CLST         334          1.0000000000
      1003       335  TIP3  OH2           7.2278733864      -10.0749811823        0.9071109213  CLST         335          1.0000000000
      1004       335  TIP3  H1            7.3238275256      -10.4749930107        1.7937390885  CLST         335          1.0000000000
      1005       335  TIP3  H2            6.2665102137       -9.8866374032        0.9198081305  CLST         335          1.0000000000
      1006       336  TIP3  OH2          -8.9297313253       -3.7899161045       -3.0915182154  CLST         336          1.0000000000
      1007       336  TIP3  H1           -8.5748918514       -4.4740478565       -3.7002413460  CLST         336          1.0000000000
      1008       336  TIP3  H2           -8.6901807175       -2.9836946346       -3.5984908674  CLST         336          1.0000000000
      1009       337  TIP3  OH2          -1.2827013771       -4.6861578118        7.9434935194  CLST         337          1.0000000000
      1010       337  TIP3  H1           -1.1775881648       -4.5671503332        8.9124182514  CLST         337          1.0000000000
      1011       337  TIP3  H2           -1.5093868973       -3.7586938367        7.7262672380  CLST         337          1.0000000000
      1012       338  TIP3  OH2           0.1479586685        3.2243864431       10.9140269001  CLST         338          1.0000000000
      1013       338  TIP3  H1            0.0310547267        2.6920427432       10.1001034496  CLST         338          1.0000000000
      1014       338  TIP3  H2            1.0057041798        2.9270696111       11.2370273741  CLST         338          1.0000000000
      1015       339  TIP3  OH2           7.9558156683        7.7575503039        2.6311340877  CLST         339          1.0000000000
      1016       339  TIP3  H1            7.6971821541        8.3448794097        3.3861278997  CLST         339          1.0000000000
      1017       339  TIP3  H2            7.1767614762        7.8550680331        2.0386568309  CLST         339          1.0000000000
      1018       340  TIP3  OH2          -4.4519880083      -11.5506790498      -10.4506124472  CLST         340          1.0000000000
      1019       340  TIP3  H1           -4.3680804219      -10.7106422609       -9.9511689918  CLST         340          1.0000000000
      1020       340  TIP3  H2           -3.9766092142      -12.1614230157       -9.8588995515  CLST         340          1.0000000000
      1021       341  TIP3  OH2          -6.9458570273        4.0635024521        9.8631371671  CLST         341          1.0000000000
      1022       341  TIP3  H1           -6.1978971445        3.6725764127       10.3535932393  CLST         341          1.0000000000
      1023       341  TIP3  H2           -7.4354712732        3.2685878258        9.5877147206  CLST         341          1.0000000000
      1024       342  TIP3  OH2          -4.3551175887      -10.9256597411       13.8885233650  CLST         342          1.0000000000
      1025       342  TIP3  H1           -5.0098182898      -10.5730090504       13.2505096216  CLST         342          1.0000000000
      1026       342  TIP3  H2           -4.7887478516      -10.7868634425       14.7335591568  CLST         342          1.0000000000
      1027       343  TIP3  OH2           1.2709573253       -8.8602846089       -9.7563617729  CLST         343          1.0000000000
      1028       343  TIP3  H1            1.3813811226       -7.9856118515      -10.1845891149  CLST         343          1.0000000000
      1029       343  TIP3  H2            1.6516900350       -9.4727735451      -10.4188288866  CLST         343          1.0000000000
      1030       344  TIP3  OH2           4.3436750542       -4.6215910261        5.7747172522  CLST         344          1.0000000000
      1031       344  TIP3  H1            4.5388396282       -4.5154347158        6.7386641641  CLST         344          1.0000000000
      1032       344  TIP3  H2            5.1576383076       -5.1183507328        5.5084629617  CLST         344          1.0000000000
      1033       345  TIP3  OH2          12.0077608935        7.4474313763        8.2905314053  CLST         345          1.0000000000
      1034       345  TIP3  H1           11.4752537975        6.8194599158        7.7692124074  CLST         345          1.0000000000
      1035       345  TIP3  H2           11.6702793245        7.2904369484        9.2035860373  CLST         345          1.0000000000
      1036       346  TIP3  OH2           9.7254766525        9.6480584279        1.5081295705  CLST         346          1.0000000000
      1037       346  TIP3  H1            9.8139565594       10.3694355236        2.1797699710  CLST         346          1.0000000000
      1038       346  TIP3  H2            9.1237150337        9.0431848254        1.9765257076  CLST         346          1.0000000000
      1039       347  TIP3  OH2          -6.4187859590        2.5243661356      -10.0866791802  CLST         347          1.0000000000
      1040       347  TIP3  H1           -7.3587381944        2.2881221083      -10.2207587777  CLST         347          1.0000000000
      1041       347  TIP3  H2           -6.4512578308        2.8682088381       -9.1646891346  CLST         347          1.0000000000
      1042       348  TIP3  OH2          -1.2158482746        5.9042345892        5.3083922797  CLST         348          1.0000000000
      1043       348  TIP3  H1           -1.3387693958        5.1565429884        4.6862762715  CLST         348          1.0000000000
      1044       348  TIP3  H2           -0.5595785263        6.4448802569        4.8291353818  CLST         348          1.0000000000
      1045       349  TIP3  OH2          -4.0126238408        5.7468903999       -3.0654525970  CLST         349          1.0000000000
      1046       349  TIP3  H1           -3.7716205359        5.4469028188       -3.9695728368  CLST         349          1.0000000000
      1047       349  TIP3  H2           -3.2513105510        6.3375958242       -2.8836702831  CLST         349          1.0000000000
      1048       350  TIP3  OH2          -2.0992238548        8.6724621471        4.7559042722  CLST         350          1.0000000000
      1049       350  TIP3  H1           -2.7786948505        8.3051340377        4.1504407774  CLST         350          1.0000000000
      1050       350  TIP3  H2           -1.9999937779        7.9358242759        5.3843477310  CLST         350          1.0000000000
      1051       351  TIP3  OH2           4.9057525582       -7.6011314349       -8.0465424599  CLST         351          1.0000000000
      1052       351  TIP3  H1            4.2036611702       -8.2405847674       -7.8029673092  CLST         351          1.0000000000
      1053       351  TIP3  H2            4.7263416230       -7.4937928333       -9.0001537145  CLST         351          1.0000000000
      1054       352  TIP3  OH2         -10.2180871356      -10.7419326007        1.3468672746  CLST         352          1.0000000000
      1055       352  TIP3  H1           -9.2504440175      -10.7134311783        1.2011210541  CLST         352          1.0000000000
      1056       352  TIP3  H2          -10.5344925756       -9.9654517522        0.8485499891  CLST         352          1.0000000000
      1057       353  TIP3  OH2          10.3985563418       -7.7152305003       -8.2280548323  CLST         353          1.0000000000
      1058       353  TIP3  H1            9.7736453624       -8.3355230657       -8.6550581448  CLST         353          1.0000000000
      1059       353  TIP3  H2           10.3614760066       -7.9904813452       -7.2955684154  CLST         353          1.0000000000
      1060       354  TIP3  OH2           6.9192722200      -11.1550697360        3.4832601407  CLST         354          1.0000000000
      1061       354  TIP3  H1            7.5885828457      -11.4498866512        4.1379651255  CLST         354          1.0000000000
      1062       354  TIP3  H2            6.4662832157      -10.4711291010        4.0163165462  CLST         354          1.0000000000
      1063       355  TIP3  OH2          -7.7271499530        8.8941856348       -8.6687696818  CLST         355          1.0000000000
      1064       355  TIP3  H1           -7.4500122760        9.8263965914       -8.8027189379  CLST         355          1.0000000000
      1065       355  TIP3  H2           -8.6677607762        8.9697871833       -8.9312191570  CLST         355          1.0000000000
      1066       356  TIP3  OH2          12.4170113315        0.8974535949       -1.7625485545  CLST         356          1.0000000000
      1067       356  TIP3  H1           11.6805127874        0.5771594401       -2.3257806849  CLST         356          1.0000000000
      1068       356  TIP3  H2           12.3258046960        0.3329482760       -0.9689989702  CLST         356          1.0000000000
      1069       357  TIP3  OH2          -0.9205222618       -0.2483519070       -2.5450670804  CLST         357          1.0000000000
      1070       357  TIP3  H1           -0.1373123887       -0.8360358793       -2.5417607032  CLST         357          1.0000000000
      1071       357  TIP3  H2           -0.9487329261       -0.0035075591       -3.4956107157  CLST         357          1.0000000000
      1072       358  TIP3  OH2          -5.9292302294        7.0616838371       -7.6292904550  CLST         358          1.0000000000
      1073       358  TIP3  H1           -6.5763785578        7.6172348104       -8.1080249162  CLST         358          1.0000000000
      1074       358  TIP3  H2           -6.5286505794        6.4664752604       -7.1273053193  CLST         358          1.0000000000
      1075       359  TIP3  OH2          -5.1779839669       12.4200836898        5.8946499619  CLST         359          1.0000000000
      1076       359  TIP3  H1           -5.6379715061       11.6378109177        5.5401126224  CLST         359          1.0000000000
      1077       359  TIP3  H2           -4.2632215177       12.2250376973        5.6225230334  CLST         359          1.0000000000
      1078       360  TIP3  OH2          -6.7467463039        5.4892240330       -3.5872685133  CLST         360          1.0000000000
      1079       360  TIP3  H1           -7.1863633915        5.7826641475       -2.7592578457  CLST         360          1.0000000000
      1080       360  TIP3  H2           -5.8015109855        5.6235470611       -3.3640404695  CLST         360          1.0000000000
      1081       361  TIP3  OH2          -0.9684238773       -0.5160284592       10.0179651792  CLST         361          1.0000000000
      1082       361  TIP3  H1           -0.8301677003        0.3638113421        9.6246017024  CLST         361          1.0000000000
      1083       361  TIP3  H2           -1.1478902941       -0.2970956211       10.9559969716  CLST         361          1.0000000000
      1084       362  TIP3  OH2         -10.5830313203        3.4848243442        0.7779233192  CLST         362          1.0000000000
      1085       362  TIP3  H1          -10.3824310524        4.4280098597        0.5878595579  CLST         362          1.0000000000
      1086       362  TIP3  H2          -11.3847395068        3.3560108256        0.2361516135  CLST         362          1.0000000000
      1087       363  TIP3  OH2           9.9787246727        2.3510664134       11.2427547539  CLST         363          1.0000000000
      1088       363  TIP3  H1           10.0430162364        1.6625683174       10.5471044607  CLST         363          1.0000000000
      1089       363  TIP3  H2           10.8739456008        2.6944651675       11.2785545232  CLST         363          1.0000000000
      1090       364  TIP3  OH2           7.8949845575       -5.8004312264       -6.2550242902  CLST         364          1.0000000000
      1091       364  TIP3  H1            7.0483510932       -5.4525994200       -6.6135118403  CLST         364          1.0000000000
      1092       364  TIP3  H2            8.5360888285       -5.4028115148       -6.8763708828  CLST         364          1.0000000000
      1093       365  TIP3  OH2          -6.0830324761       -6.5715319354        2.5052972458  CLST         365          1.0000000000
      1094       365  TIP3  H1           -6.7139578647       -6.7438335343        1.7708115908  CLST         365          1.0000000000
      1095       365  TIP3  H2           -6.6833279433       -6.0886913396        3.1120860580  CLST         365          1.0000000000
      1096       366  TIP3  OH2           1.6107749295       -1.3582418949       -2.9678735329  CLST         366          1.0000000000
      1097       366  TIP3  H1            2.5025170991       -1.3067245020       -2.5634824238  CLST         366          1.0000000000
      1098       366  TIP3  H2            1.8456160046       -1.1233261501       -3.8904074503  CLST         366          1.0000000000
      1099       367  TIP3  OH2          -6.0486053450       11.0050698128       12.5801677569  CLST         367          1.0000000000
      1100       367  TIP3  H1           -6.6275722213       11.2489796195       11.8248344824  CLST         367          1.0000000000
      1101       367  TIP3  H2           -6.6036642542       11.2381062800       13.3263186490  CLST         367          1.0000000000
      1102       368  TIP3  OH2          -2.9383198449        6.6383362749        0.9736713412  CLST         368          1.0000000000
      1103       368  TIP3  H1           -3.0689782670        7.4331465653        0.4135122218  CLST         368          1.0000000000
      1104       368  TIP3  H2           -3.2920715080        6.9722648351        1.8283007824  CLST         368          1.0000000000
      1105       369  TIP3  OH2         -11.0311178600       -1.4090302294       -6.7509358007  CLST         369          1.0000000000
      1106       369  TIP3  H1          -10.1169989547       -1.1028887179       -6.8948156570  CLST         369          1.0000000000
      1107       369  TIP3  H2          -11.2274776808       -1.7930666812       -7.6315930981  CLST         369          1.0000000000
      1108       370  TIP3  OH2         -11.7231872902        5.8045576642      -11.7757078734  CLST         370          1.0000000000
      1109       370  TIP3  H1          -12.6591497584        5.7349298141      -11.5732594322  CLST         370          1.0000000000
      1110       370  TIP3  H2          -11.6513526758        5.2936449851      -12.6080817160  CLST         370          1.0000000000
      1111       371  TIP3  OH2           2.1685385337        8.6506638576        5.9338962959  CLST         371          1.0000000000
      1112       371  TIP3  H1            2.0738128589        7.9595997750        6.6236540745  CLST         371          1.0000000000
      1113       371  TIP3  H2            2.5756474785        9.3571382409        6.4691261542  CLST         371          1.0000000000
      1114       372  TIP3  OH2           8.2212409808       -7.6621732743        9.1479321237  CLST         372          1.0000000000
      1115       372  TIP3  H1            8.9849779345       -7.8683651009        8.5820514715  CLST         372          1.0000000000
      1116       372  TIP3  H2            8.6307984228       -7.8385501750       10.0247552210  CLST         372          1.0000000000
      1117       373  TIP3  OH2           9.9097850601       -0.1785508643        6.6353010972  CLST         373          1.0000000000
      1118       373  TIP3  H1           10.2395523868        0.3882968402        5.9107018025  CLST         373          1.0000000000
      1119       373  TIP3  H2            9.0150715999       -0.3564258340        6.3151468969  CLST         373          1.0000000000
      1120       374  TIP3  OH2          -9.2519614686        4.5095403406      -11.9060760731  CLST         374          1.0000000000
      1121       374  TIP3  H1           -9.8746903384        5.1350938734      -11.4890529551  CLST         374          1.0000000000
      1122       374  TIP3  H2           -9.7264886703        4.3790320934      -12.7525392543  CLST         374          1.0000000000
      1123       375  TIP3  OH2          10.1916647993       -5.4721383471       -2.6818064825  CLST         375          1.0000000000
      1124       375  TIP3  H1           10.5541604164       -5.2302098181       -3.5600551376  CLST         375          1.0000000000
      1125       375  TIP3  H2           10.4746891798       -6.4116542808       -2.6377634944  CLST         375          1.0000000000
      1126       376  TIP3  OH2          -2.2339121567      -11.2547099524       12.2299952736  CLST         376          1.0000000000
      1127       376  TIP3  H1           -2.8363158931      -11.2331307849       13.0091287343  CLST         376          1.0000000000
      1128       376  TIP3  H2           -2.9128970822      -11.3294209691       11.5278849364  CLST         376          1.0000000000
      1129       377  TIP3  OH2         -10.2452539183       12.3005890965        9.7125864606  CLST         377          1.0000000000
      1130       377  TIP3  H1           -9.3776781909       12.1554239632       10.1438154584  CLST         377          1.0000000000
      1131       377  TIP3  H2           -9.9596402641       12.6540449294        8.8444745581  CLST         377          1.0000000000
      1132       378  TIP3  OH2           2.2137642810       -8.8640999775        7.7759735927  CLST         378          1.0000000000
      1133       378  TIP3  H1            2.1597157787       -7.9248378702        7.4988097057  CLST         378          1.0000000000
      1134       378  TIP3  H2            1.6141673422       -8.8867386859        8.5559137604  CLST         378          1.0000000000
      1135       379  TIP3  OH2          -9.5877642430        8.8138952474       -1.0150530610  CLST         379          1.0000000000
      1136       379  TIP3  H1           -8.9736730029        9.1478249630       -0.3378493378  CLST         379          1.0000000000
      1137       379  TIP3  H2           -9.8726593298        9.6449224048       -1.4494142173  CLST         379          1.0000000000
      1138       380  TIP3  OH2           2.5473174736       -3.6331560508      -11.2006685678  CLST         380          1.0000000000
      1139       380  TIP3  H1            2.6413527312       -2.6660966726      -11.3205603260  CLST         380          1.0000000000
      1140       380  TIP3  H2            2.4991412656       -3.8719092298      -12.1558789466  CLST         380          1.0000000000
      1141       381  TIP3  OH2          10.2942708460        4.2019348303        3.7716586613  CLST         381          1.0000000000
      1142       381  TIP3  H1            9.4872007175        4.6978075143        3.9892535516  CLST         381          1.0000000000
      1143       381  TIP3  H2           10.9071764257        4.9684672602        3.6708539171  CLST         381          1.0000000000
      1144       382  TIP3  OH2           2.4083857040       -6.5089413964        6.3233951494  CLST         382          1.0000000000
      1145       382  TIP3  H1            3.0037204028       -5.7372352302        6.2702018476  CLST         382          1.0000000000
      1146       382  TIP3  H2            2.8306371201       -7.0683191545        5.6338445397  CLST         382          1.0000000000
      1147       383  TIP3  OH2          10.2981608453        8.7281522910        4.9939904960  CLST         383          1.0000000000
      1148       383  TIP3  H1            9.3639000979        8.9573373752        4.8078534572  CLST         383          1.0000000000
      1149       383  TIP3  H2           10.6568562958        9.6199289223        5.1596406899  CLST         383          1.0000000000
      1150       384  TIP3  OH2          -3.5016107808       -2.1318266406       -8.0394933873  CLST         384          1.0000000000
      1151       384  TIP3  H1           -2.9750097416       -2.9654955595       -8.0016367040  CLST         384          1.0000000000
      1152       384  TIP3  H2           -2.8118638298       -1.5043902983       -7.7172601936  CLST         384          1.0000000000
      1153       385  TIP3  OH2           3.7492958392      -11.7068059530       -0.5296605351  CLST         385          1.0000000000
      1154       385  TIP3  H1            4.6571982667      -12.0150012609       -0.7411111699  CLST         385          1.0000000000
      1155       385  TIP3  H2            3.9704736029      -10.9792055339        0.0924194349  CLST         385          1.0000000000
      1156       386  TIP3  OH2          -4.4690876849        9.1021115243       -6.5104402513  CLST         386          1.0000000000
      1157       386  TIP3  H1           -4.8978197968        8.2916704278       -6.8575592231  CLST         386          1.0000000000
      1158       386  TIP3  H2           -4.1227295984        9.4782095953       -7.3522589897  CLST         386          1.0000000000
      1159       387  TIP3  OH2          -9.6572302952       10.1373848625        2.7439134132  CLST         387          1.0000000000
      1160       387  TIP3  H1          -10.4756360399        9.9047477994        2.2523851763  CLST         387          1.0000000000
      1161       387  TIP3  H2           -8.9851950099        9.9553484559        2.0583855997  CLST         387          1.0000000000
      1162       388  TIP3  OH2          -2.3226210246      -12.5298275530        6.0248582267  CLST         388          1.0000000000
      1163       388  TIP3  H1           -2.8148356784      -11.7807696746        5.6292721038  CLST         388          1.0000000000
      1164       388  TIP3  H2           -2.2178047418      -12.2070310982        6.9482708542  CLST         388          1.0000000000
      1165       389  TIP3  OH2          -8.4649524916        3.3500546886       -3.6344475933  CLST         389          1.0000000000
      1166       389  TIP3  H1           -7.7668912787        4.0379808793       -3.6310564273  CLST         389          1.0000000000
      1167       389  TIP3  H2           -9.2642817299        3.9209201931       -3.5972446121  CLST         389          1.0000000000
      1168       390  TIP3  OH2          -5.3793985239       -3.7094879656        4.3488513106  CLST         390          1.0000000000
      1169       390  TIP3  H1           -4.9935979511       -2.8095640927        4.4542862366  CLST         390          1.0000000000
      1170       390  TIP3  H2           -4.7530878772       -4.1105406856        3.7334216591  CLST         390          1.0000000000
      1171       391  TIP3  OH2          -7.7434266389       -8.1104663389       -6.2653405679  CLST         391          1.0000000000
      1172       391  TIP3  H1           -8.1778189232       -8.9748142716       -6.1089192382  CLST         391          1.0000000000
      1173       391  TIP3  H2           -7.1534637467       -8.0680598872       -5.4877226527  CLST         391          1.0000000000
      1174       392  TIP3  OH2           1.0737883975       -2.3563109856       10.2918307834  CLST         392          1.0000000000
      1175       392  TIP3  H1            0.7160733171       -2.9701328331       10.9510306282  CLST         392          1.0000000000
      1176       392  TIP3  H2            0.3063175848       -1.7716526027       10.1313920161  CLST         392          1.0000000000
      1177       393  TIP3  OH2          10.3819105575      -11.8097016428       -0.8719634618  CLST         393          1.0000000000
      1178       393  TIP3  H1           11.1060829255      -11.1384996941       -0.9250797642  CLST         393          1.0000000000
      1179       393  TIP3  H2           10.6975076735      -12.4694882559       -1.4986294908  CLST         393          1.0000000000
      1180       394  TIP3  OH2           0.5840124315       11.8755340159       -8.3154005437  CLST         394          1.0000000000
      1181       394  TIP3  H1            0.9897231599       12.4558459617       -7.6377370705  CLST         394          1.0000000000
      1182       394  TIP3  H2            0.9153972324       11.0201544536       -7.9679338782  CLST         394          1.0000000000
      1183       395  TIP3  OH2           7.1757994316        7.7101274510       -4.2056884727  CLST         395          1.0000000000
      1184       395  TIP3  H1            6.2714125220        8.0610882572       -4.3602718691  CLST         395          1.0000000000
      1185       395  TIP3  H2            7.2359716125        7.1226475108       -4.9865721334  CLST         395          1.0000000000
      1186       396  TIP3  OH2          -1.2727577434       -8.8255848372       -8.8941805260  CLST         396          1.0000000000
      1187       396  TIP3  H1           -1.3126175365       -9.0448454278       -7.9300334299  CLST         396          1.0000000000
      1188       396  TIP3  H2           -0.3008734575       -8.8644670225       -9.0427323071  CLST         396          1.0000000000
      1189       397  TIP3  OH2          11.2091834658        6.7444371791       -8.9918237992  CLST         397          1.0000000000
      1190       397  TIP3  H1           11.6830029540        6.1655055094       -8.3682366679  CLST         397          1.0000000000
      1191       397  TIP3  H2           10.5425097371        7.1448436644       -8.3993829742  CLST         397          1.0000000000
      1192       398  TIP3  OH2          10.5110859492        7.2832844656       -4.7041015064  CLST         398          1.0000000000
      1193       398  TIP3  H1           10.1082126505        7.8592501249       -4.0247316579  CLST         398          1.0000000000
      1194       398  TIP3  H2           11.2813955218        6.9465633057       -4.1908722292  CLST         398          1.0000000000
      1195       399  TIP3  OH2           3.0456258248       11.3439348710        4.8008411697  CLST         399          1.0000000000
      1196       399  TIP3  H1            2.5804369979       10.5233824870        4.5780020878  CLST         399          1.0000000000
      1197       399  TIP3  H2            2.9732622056       11.3247239068        5.7809951467  CLST         399          1.0000000000
      1198       400  TIP3  OH2           4.0768668405       -3.4092660679       -5.3895176231  CLST         400          1.0000000000
      1199       400  TIP3  H1            4.8148854664       -3.2973174379       -4.7541183646  CLST         400          1.0000000000
      1200       400  TIP3  H2            4.4985524733       -4.0137287249       -6.0372170995  CLST         400          1.0000000000
      1201       401  TIP3  OH2         -15.0197729808       10.2659029467        4.6742729046  CLST         401          1.0000000000
      1202       401  TIP3  H1          -14.2405981304       10.6170245714        5.1551292127  CLST         401          1.0000000000
      1203       401  TIP3  H2          -15.7478829930       10.5357901060        5.2359071628  CLST         401          1.0000000000
      1204       402  TIP3  OH2           0.7585270069       -1.7467887104       13.5491016679  CLST         402          1.0000000000
      1205       402  TIP3  H1            1.7222502233       -1.8454156193       13.6986646342  CLST         402          1.0000000000
      1206       402  TIP3  H2            0.5524926778       -2.6501946882       13.2430342357  CLST         402          1.0000000000
      1207       403  TIP3  OH2          -1.8753686598       -6.8375019166       -0.3730680759  CLST         403          1.0000000000
      1208       403  TIP3  H1           -1.7985708512       -6.2613335790       -1.1438622512  CLST         403          1.0000000000
      1209       403  TIP3  H2           -1.9548529728       -7.7218406221       -0.7916851954  CLST         403          1.0000000000
      1210       404  TIP3  OH2          -4.5429815412       -3.0504247759        8.7977284415  CLST         404          1.0000000000
      1211       404  TIP3  H1           -4.7732150299       -3.5048508878        9.6297439514  CLST         404          1.0000000000
      1212       404  TIP3  H2           -4.9904262193       -3.6325927726        8.1446164219  CLST         404          1.0000000000
      1213       405  TIP3  OH2         -11.8097672620        6.2135535202       11.4219974511  CLST         405          1.0000000000
      1214       405  TIP3  H1          -11.9635677063        5.7026267251       10.5962569366  CLST         405          1.0000000000
      1215       405  TIP3  H2          -11.5930275518        5.5111915629       12.0380867849  CLST         405          1.0000000000
      1216       406  TIP3  OH2           1.0056534450        7.8764867618      -11.7127218624  CLST         406          1.0000000000
      1217       406  TIP3  H1            1.2074241650        8.7567140606      -12.0927855760  CLST         406          1.0000000000
      1218       406  TIP3  H2            1.5505742548        7.9137065982      -10.8969144724  CLST         406          1.0000000000
      1219       407  TIP3  OH2          11.1956801886      -12.9524424976        5.1952910439  CLST         407          1.0000000000
      1220       407  TIP3  H1           11.3893904144      -13.0446597611        4.2524689532  CLST         407          1.0000000000
      1221       407  TIP3  H2           11.8558945681      -12.2642661032        5.4422571747  CLST         407          1.0000000000
      1222       408  TIP3  OH2          -2.7087934970      -11.2036055700        2.4407168413  CLST         408          1.0000000000
      1223       408  TIP3  H1           -2.0741971051      -10.4931138105        2.1992895500  CLST         408          1.0000000000
      1224       408  TIP3  H2           -2.1463883621      -12.0011890859        2.3703272904  CLST         408          1.0000000000
      1225       409  TIP3  OH2           0.3980382852       -9.2880431039        9.7788914768  CLST         409          1.0000000000
      1226       409  TIP3  H1            0.1755496293       -8.9924109619       10.6840195071  CLST         409          1.0000000000
      1227       409  TIP3  H2            0.2893253254      -10.2558612510        9.8980476297  CLST         409          1.0000000000
      1228       410  TIP3  OH2           9.9941167860       -7.4004241399       -5.4210363408  CLST         410          1.0000000000
      1229       410  TIP3  H1            9.1195997432       -7.0260450926       -5.6465919886  CLST         410          1.0000000000
      1230       410  TIP3  H2           10.5126874366       -6.5749475743       -5.3526082111  CLST         410          1.0000000000
      1231       411  TIP3  OH2         -10.0513157760       -2.6054477736       -0.8446193238  CLST         411          1.0000000000
      1232       411  TIP3  H1           -9.4099708324       -2.6518969333       -0.1300332374  CLST         411          1.0000000000
      1233       411  TIP3  H2           -9.5721933340       -3.0206445980       -1.5902283112  CLST         411          1.0000000000
      1234       412  TIP3  OH2           5.9471529014       -9.9747923962      -11.7467175124  CLST         412          1.0000000000
      1235       412  TIP3  H1            5.5097730789      -10.4515578735      -11.0207379383  CLST         412          1.0000000000
      1236       412  TIP3  H2            6.8097844160      -10.4405129860      -11.7728550628  CLST         412          1.0000000000
      1237       413  TIP3  OH2           7.7149739424       12.7150564020        0.9123876238  CLST         413          1.0000000000
      1238       413  TIP3  H1            8.1715508003       12.1975416732        0.2224750190  CLST         413          1.0000000000
      1239       413  TIP3  H2            8.4716280177       13.0967001455        1.3961731602  CLST         413          1.0000000000
      1240       414  TIP3  OH2           2.1471180035       -1.2617111113      -12.5889207448  CLST         414          1.0000000000
      1241       414  TIP3  H1            1.1724297821       -1.2568696821      -12.4513986064  CLST         414          1.0000000000
      1242       414  TIP3  H2            2.2293977130       -1.9077008176      -13.3186237996  CLST         414          1.0000000000
      1243       415  TIP3  OH2           4.7049223759        4.7884360046       -7.3741985251  CLST         415          1.0000000000
      1244       415  TIP3  H1            3.9288349688        4.1845505853       -7.3884640757  CLST         415          1.0000000000
      1245       415  TIP3  H2            5.2786001811        4.3141182578       -8.0127232773  CLST         415          1.0000000000
      1246       416  TIP3  OH2           5.5523843866       12.4094821609       -8.1344337793  CLST         416          1.0000000000
      1247       416  TIP3  H1            5.6117347445       13.3671226385       -8.0330562349  CLST         416          1.0000000000
      1248       416  TIP3  H2            6.4958121383       12.1634059880       -8.2813988548  CLST         416          1.0000000000
      1249       417  TIP3  OH2          11.7864390939      -10.8937552311        3.0127234341  CLST         417          1.0000000000
      1250       417  TIP3  H1           11.0433579127      -11.3612154398        2.5709287685  CLST         417          1.0000000000
      1251       417  TIP3  H2           11.9987156598      -10.2145076244        2.3432846646  CLST         417          1.0000000000
      1252       418  TIP3  OH2          -8.5322453065       -1.2690712086        8.5451027799  CLST         418          1.0000000000
      1253       418  TIP3  H1           -8.3333321496       -0.8389248227        7.6862421512  CLST         418          1.0000000000
      1254       418  TIP3  H2           -8.4927508571       -0.4911564153        9.1258834113  CLST         418          1.0000000000
      1255       419  TIP3  OH2          15.0329531724       -0.0853788720       -5.5338396118  CLST         419          1.0000000000
      1256       419  TIP3  H1           14.6971429593        0.5775982595       -4.8852387968  CLST         419          1.0000000000
      1257       419  TIP3  H2           15.9297083358        0.2309247952       -5.6706058675  CLST         419          1.0000000000
      1258       420  TIP3  OH2          -8.4581023069       -8.8410199461        3.4231094602  CLST         420          1.0000000000
      1259       420  TIP3  H1           -9.1196045809       -8.2940797688        2.9528186747  CLST         420          1.0000000000
      1260       420  TIP3  H2           -8.0913700281       -9.3828019520        2.7004108486  CLST         420          1.0000000000
      1261       421  TIP3  OH2           3.8162227305       -6.2291308099      -13.7021058798  CLST         421          1.0000000000
      1262       421  TIP3  H1            4.7541211143       -6.4661033761      -13.5602892123  CLST         421          1.0000000000
      1263       421  TIP3  H2            3.3922498748       -7.0641350522      -13.4352652426  CLST         421          1.0000000000
      1264       422  TIP3  OH2          -2.1188990157       -9.4974242080       -1.0983684276  CLST         422          1.0000000000
      1265       422  TIP3  H1           -1.7266994651      -10.3888789566       -1.0280401499  CLST         422          1.0000000000
      1266       422  TIP3  H2           -2.9600274679       -9.7115463396       -1.5302820540  CLST         422          1.0000000000
      1267       423  TIP3  OH2           1.3373880715        5.0461701156       -4.0034216318  CLST         423          1.0000000000
      1268       423  TIP3  H1            2.2802132942        5.2568918523       -4.1916739000  CLST         423          1.0000000000
      1269       423  TIP3  H2            1.3288077601        4.8974955212       -3.0294612380  CLST         423          1.0000000000
      1270       424  TIP3  OH2          -8.2493672328        4.6337462350        3.8614798653  CLST         424          1.0000000000
      1271       424  TIP3  H1           -8.1923238712        3.8819893719        3.2317466711  CLST         424          1.0000000000
      1272       424  TIP3  H2           -8.4937871802        5.3646262207        3.2621794885  CLST         424          1.0000000000
      1273       425  TIP3  OH2           8.1459713769      -12.4144984481        7.9893233386  CLST         425          1.0000000000
      1274       425  TIP3  H1            8.1968990028      -12.2392651762        7.0256192002  CLST         425          1.0000000000
      1275       425  TIP3  H2            7.7038449015      -11.5880876904        8.2840735304  CLST         425          1.0000000000
      1276       426  TIP3  OH2           7.8868653005        2.1292652970        8.3373904019  CLST         426          1.0000000000
      1277       426  TIP3  H1            8.6401413561        1.6496141472        8.7506321574  CLST         426          1.0000000000
      1278       426  TIP3  H2            8.2568232099        3.0435536020        8.3222983054  CLST         426          1.0000000000
      1279       427  TIP3  OH2          10.7340375302        7.4630360578       10.6734312206  CLST         427          1.0000000000
      1280       427  TIP3  H1           10.6563780486        8.2016212764       11.3045319599  CLST         427          1.0000000000
      1281       427  TIP3  H2            9.9112728684        6.9662276261       10.8593286657  CLST         427          1.0000000000
      1282       428  TIP3  OH2          11.8243262799        7.9453952565        1.1438329020  CLST         428          1.0000000000
      1283       428  TIP3  H1           12.1180085810        8.0983176914        0.2194800855  CLST         428          1.0000000000
      1284       428  TIP3  H2           11.2498953060        8.7288977757        1.2654441597  CLST         428          1.0000000000
      1285       429  TIP3  OH2          12.1721798242       -9.8212797236       -1.1291680216  CLST         429          1.0000000000
      1286       429  TIP3  H1           12.3635141849       -9.3452949755       -0.2973796746  CLST         429          1.0000000000
      1287       429  TIP3  H2           11.8617689550       -9.1047115529       -1.7134853550  CLST         429          1.0000000000
      1288       430  TIP3  OH2           9.2352548435       -7.2339492857        3.2629086624  CLST         430          1.0000000000
      1289       430  TIP3  H1            9.3117790130       -7.7237407081        2.4118440815  CLST         430          1.0000000000
      1290       430  TIP3  H2           10.1792591624       -7.0191183142        3.4205926651  CLST         430          1.0000000000
      1291       431  TIP3  OH2         -13.1329850394        9.3776982737       -2.6286087352  CLST         431          1.0000000000
      1292       431  TIP3  H1          -13.8956144332        9.5867015392       -3.1771702498  CLST         431          1.0000000000
      1293       431  TIP3  H2          -13.5683056501        9.2160883198       -1.7567216722  CLST         431          1.0000000000
      1294       432  TIP3  OH2           5.6942594602        8.5941136974       -9.6161583628  CLST         432          1.0000000000
      1295       432  TIP3  H1            6.1089319419        8.8094317233       -8.7599467755  CLST         432          1.0000000000
      1296       432  TIP3  H2            5.1955817612        9.4170886015       -9.8010783882  CLST         432          1.0000000000
      1297       433  TIP3  OH2          -0.7362975868        9.1906091431        7.7997989670  CLST         433          1.0000000000
      1298       433  TIP3  H1           -0.8729283798       10.0134507579        7.3051361178  CLST         433          1.0000000000
      1299       433  TIP3  H2           -1.5249202240        9.1921706185        8.3692213969  CLST         433          1.0000000000
      1300       434  TIP3  OH2          -7.4861863954        0.9454889658        3.7702949347  CLST         434          1.0000000000
      1301       434  TIP3  H1           -7.7851527982        1.5875581532        3.0893647641  CLST         434          1.0000000000
      1302       434  TIP3  H2           -8.1163917691        0.2078425773        3.5829818202  CLST         434          1.0000000000
      1303       435  TIP3  OH2           9.0255585515       -0.1858653492       -7.6747435662  CLST         435          1.0000000000
      1304       435  TIP3  H1            8.2568559711       -0.2371568280       -7.0656048719  CLST         435          1.0000000000
      1305       435  TIP3  H2            9.0895827311        0.7736952585       -7.7886510669  CLST         435          1.0000000000
      1306       436  TIP3  OH2           4.0212909324       10.7801941837       -9.7277186271  CLST         436          1.0000000000
      1307       436  TIP3  H1            4.4949665406       11.4076314905       -9.1379828392  CLST         436          1.0000000000
      1308       436  TIP3  H2            3.3443590782       11.3748578592      -10.1112112509  CLST         436          1.0000000000
      1309       437  TIP3  OH2          -8.2735625716       -1.0879622733       -7.3456427660  CLST         437          1.0000000000
      1310       437  TIP3  H1           -8.4676961189       -0.9007231017       -8.2921355966  CLST         437          1.0000000000
      1311       437  TIP3  H2           -7.3454418952       -0.7616801174       -7.3319927702  CLST         437          1.0000000000
      1312       438  TIP3  OH2          -3.5340912577        5.9058718403       -8.2488061232  CLST         438          1.0000000000
      1313       438  TIP3  H1           -4.4307516726        6.2190216653       -8.0005681919  CLST         438          1.0000000000
      1314       438  TIP3  H2           -3.4609790605        6.3872589724       -9.1007656182  CLST         438          1.0000000000
      1315       439  TIP3  OH2          14.1038806744        1.7287254412       -3.7697221318  CLST         439          1.0000000000
      1316       439  TIP3  H1           13.5764319440        2.5101556196       -4.0276029382  CLST         439          1.0000000000
      1317       439  TIP3  H2           13.6296883161        1.4499651269       -2.9599894066  CLST         439          1.0000000000
      1318       440  TIP3  OH2           0.7817456856      -12.8091390930      -10.5459128116  CLST         440          1.0000000000
      1319       440  TIP3  H1            0.0320488026      -12.1757266279      -10.6323948884  CLST         440          1.0000000000
      1320       440  TIP3  H2            0.4463103678      -13.5769014785      -11.0219925883  CLST         440          1.0000000000
      1321       441  TIP3  OH2          -0.8951175217       -4.5441582222        3.3881219366  CLST         441          1.0000000000
      1322       441  TIP3  H1           -0.7207407512       -3.6141427184        3.5575794506  CLST         441          1.0000000000
      1323       441  TIP3  H2           -0.7017923013       -4.9484506074        4.2644119644  CLST         441          1.0000000000
      1324       442  TIP3  OH2           3.0948067837       -9.6189042190       -7.8924066011  CLST         442          1.0000000000
      1325       442  TIP3  H1            3.5223034268      -10.2659268670       -8.4846024546  CLST         442          1.0000000000
      1326       442  TIP3  H2            2.3024039638       -9.3716815512       -8.4143089600  CLST         442          1.0000000000
      1327       443  TIP3  OH2           1.5038171552       10.4441513030      -12.6145949554  CLST         443          1.0000000000
      1328       443  TIP3  H1            1.6790054014       11.1079934886      -11.9101585668  CLST         443          1.0000000000
      1329       443  TIP3  H2            2.1871854239       10.6552448958      -13.2606735874  CLST         443          1.0000000000
      1330       444  TIP3  OH2          -8.0466400465        1.4172923302       -1.7857913452  CLST         444          1.0000000000
      1331       444  TIP3  H1           -8.2463146516        2.0801303875       -2.4818142609  CLST         444          1.0000000000
      1332       444  TIP3  H2           -7.6090682824        2.0009482716       -1.1334289076  CLST         444          1.0000000000
      1333       445  TIP3  OH2         -10.9956587286       -5.2593302922        6.3677198459  CLST         445          1.0000000000
      1334       445  TIP3  H1          -11.2478466560       -4.3252105441        6.2162142329  CLST         445          1.0000000000
      1335       445  TIP3  H2          -10.8492832342       -5.2448142119        7.3389706650  CLST         445          1.0000000000
      1336       446  TIP3  OH2          -3.1136040338        5.1402464699       -5.5772894941  CLST         446          1.0000000000
      1337       446  TIP3  H1           -3.3799558511        5.3106679351       -6.5031787418  CLST         446          1.0000000000
      1338       446  TIP3  H2           -2.1883764702        5.4626611418       -5.6148045588  CLST         446          1.0000000000
      1339       447  TIP3  OH2          -5.2422237747      -12.7880124490       -3.6734388574  CLST         447          1.0000000000
      1340       447  TIP3  H1           -5.7301351296      -13.4991977797       -3.2455895507  CLST         447          1.0000000000
      1341       447  TIP3  H2           -4.7624726654      -12.3981999080       -2.9035624570  CLST         447          1.0000000000
      1342       448  TIP3  OH2           7.5674991391        9.2131181048        4.8480044831  CLST         448          1.0000000000
      1343       448  TIP3  H1            7.5907374988        9.1010429879        5.8224285422  CLST         448          1.0000000000
      1344       448  TIP3  H2            6.9660490251        9.9891352713        4.7955970567  CLST         448          1.0000000000
      1345       449  TIP3  OH2           3.9735227492        4.8701884620        7.6753754501  CLST         449          1.0000000000
      1346       449  TIP3  H1            4.4505465316        4.2696615119        8.2941830884  CLST         449          1.0000000000
      1347       449  TIP3  H2            3.4176043422        4.2272752879        7.1787773560  CLST         449          1.0000000000
      1348       450  TIP3  OH2          -3.7476645796        0.5024774635       -2.8364155253  CLST         450          1.0000000000
      1349       450  TIP3  H1           -3.4878394780        1.2499012452       -3.4090752922  CLST         450          1.0000000000
      1350       450  TIP3  H2           -2.8812686645        0.1524102446       -2.5636628120  CLST         450          1.0000000000
      1351       451  TIP3  OH2          13.1046500929       -1.8776072988       -6.1085772954  CLST         451          1.0000000000
      1352       451  TIP3  H1           13.7148075209       -2.6231721722       -6.1324258612  CLST         451          1.0000000000
      1353       451  TIP3  H2           13.7465219866       -1.1438845592       -5.9378004980  CLST         451          1.0000000000
      1354       452  TIP3  OH2           8.6262721378        4.7830730835        8.3537448494  CLST         452          1.0000000000
      1355       452  TIP3  H1            7.8618481010        5.3910169386        8.2484345835  CLST         452          1.0000000000
      1356       452  TIP3  H2            9.2900119804        5.2561783842        7.8129080031  CLST         452          1.0000000000
      1357       453  TIP3  OH2           7.9627391929        2.5079535396       -7.0979907719  CLST         453          1.0000000000
      1358       453  TIP3  H1            7.3574714359        2.7700637847       -7.8275728389  CLST         453          1.0000000000
      1359       453  TIP3  H2            7.4546206737        1.7600960829       -6.7144461405  CLST         453          1.0000000000
      1360       454  TIP3  OH2           1.1735891472        5.4512431065        2.6059034556  CLST         454          1.0000000000
      1361       454  TIP3  H1            0.5539079475        5.4931921122        1.8504453058  CLST         454          1.0000000000
      1362       454  TIP3  H2            1.0315404292        6.3298233037        3.0242427252  CLST         454          1.0000000000
      1363       455  TIP3  OH2          -0.5516200202        0.8098040034      -10.4240403776  CLST         455          1.0000000000
      1364       455  TIP3  H1            0.2545249010        0.9135571668       -9.8821774056  CLST         455          1.0000000000
      1365       455  TIP3  H2           -0.7635193983        1.7550144774      -10.5844906083  CLST         455          1.0000000000
      1366       456  TIP3  OH2           5.7713161069       11.2040275219        5.2283840833  CLST         456          1.0000000000
      1367       456  TIP3  H1            4.8466321624       11.2668995864        4.9156289611  CLST         456          1.0000000000
      1368       456  TIP3  H2            5.6388540927       11.1153430385        6.1952859077  CLST         456          1.0000000000
      1369       457  TIP3  OH2          -4.8286680546       -8.2046922436        4.3503896688  CLST         457          1.0000000000
      1370       457  TIP3  H1           -5.3286694523       -7.6773899996        3.6978145210  CLST         457          1.0000000000
      1371       457  TIP3  H2           -5.0465314694       -7.7346243887        5.1811474221  CLST         457          1.0000000000
      1372       458  TIP3  OH2           8.4684505367       -6.9567935907      -11.3176979136  CLST         458          1.0000000000
      1373       458  TIP3  H1            9.3828821693       -6.6727525949      -11.5257477838  CLST         458          1.0000000000
      1374       458  TIP3  H2            8.1220389638       -6.1429198377      -10.8852537493  CLST         458          1.0000000000
      1375       459  TIP3  OH2           6.5548475599       -9.8528646097       -7.8667459321  CLST         459          1.0000000000
      1376       459  TIP3  H1            6.1754465836       -8.9601140289       -7.7493659318  CLST         459          1.0000000000
      1377       459  TIP3  H2            7.3553615104       -9.6352182378       -8.3955118001  CLST         459          1.0000000000
      1378       460  TIP3  OH2           8.7649219740       -3.0934175306       -3.0220394306  CLST         460          1.0000000000
      1379       460  TIP3  H1            9.1707241379       -3.9355856136       -2.7324702927  CLST         460          1.0000000000
      1380       460  TIP3  H2            9.4662234836       -2.7737272740       -3.6285179186  CLST         460          1.0000000000
      1381       461  TIP3  OH2          -1.3335110056      -12.2870551997       -5.5519476603  CLST         461          1.0000000000
      1382       461  TIP3  H1           -0.6781539821      -12.6278963234       -6.1944049089  CLST         461          1.0000000000
      1383       461  TIP3  H2           -0.9508786347      -12.5663649323       -4.6887630825  CLST         461          1.0000000000
      1384       462  TIP3  OH2           0.2285875165        5.4073422579      -12.6219619620  CLST         462          1.0000000000
      1385       462  TIP3  H1            0.5187421173        6.2764328485      -12.2658256609  CLST         462          1.0000000000
      1386       462  TIP3  H2            0.6569990301        5.4035748726      -13.4841701949  CLST         462          1.0000000000
      1387       463  TIP3  OH2          -2.0696494376        2.1781159516       -7.8704512157  CLST         463          1.0000000000
      1388       463  TIP3  H1           -1.8044025600        1.2388072870       -7.8944471421  CLST         463          1.0000000000
      1389       463  TIP3  H2           -3.0157927995        2.0888807677       -7.6393424810  CLST         463          1.0000000000
      1390       464  TIP3  OH2          -6.2979964949        6.5449386106        4.3241836017  CLST         464          1.0000000000
      1391       464  TIP3  H1           -6.7600225478        5.6825073124        4.3476761798  CLST         464          1.0000000000
      1392       464  TIP3  H2           -6.6094700721        6.9340759124        5.1714576350  CLST         464          1.0000000000
      1393       465  TIP3  OH2          -5.2013310825      -12.6751059805        6.1669308068  CLST         465          1.0000000000
      1394       465  TIP3  H1           -4.3872863822      -13.1977212455        6.1304317182  CLST         465          1.0000000000
      1395       465  TIP3  H2           -4.8746031425      -11.8555483372        5.7264712195  CLST         465          1.0000000000
      1396       466  TIP3  OH2          -2.5659655144        9.3316992057       -4.5706580125  CLST         466          1.0000000000
      1397       466  TIP3  H1           -3.2455995613        9.2607555177       -5.2788737602  CLST         466          1.0000000000
      1398       466  TIP3  H2           -3.0244043085        9.9212526229       -3.9376577317  CLST         466          1.0000000000
      1399       467  TIP3  OH2           8.0982513445        5.8109379240        4.6115410474  CLST         467          1.0000000000
      1400       467  TIP3  H1            7.2271035377        6.0365534148        5.0070188449  CLST         467          1.0000000000
      1401       467  TIP3  H2            8.1377492043        6.4687861509        3.8829906963  CLST         467          1.0000000000
      1402       468  TIP3  OH2          -0.2878614314      -11.8793181712       10.4196257887  CLST         468          1.0000000000
      1403       468  TIP3  H1           -0.9252665797      -11.7929776979       11.1624730314  CLST         468          1.0000000000
      1404       468  TIP3  H2            0.4215334150      -12.3894505311       10.8704657427  CLST         468          1.0000000000
      1405       469  TIP3  OH2           5.3899280291        7.9667965267       13.4848638969  CLST         469          1.0000000000
      1406       469  TIP3  H1            6.1113605428        8.2913036546       12.9061122143  CLST         469          1.0000000000
      1407       469  TIP3  H2            4.7431205634        8.7040861863       13.4005205505  CLST         469          1.0000000000
      1408       470  TIP3  OH2         -10.6929345668       11.9843301015        0.2811880422  CLST         470          1.0000000000
      1409       470  TIP3  H1          -10.6927933999       11.8121606263       -0.6781596589  CLST         470          1.0000000000
      1410       470  TIP3  H2          -11.1875962655       11.2124414196        0.6111231255  CLST         470          1.0000000000
      1411       471  TIP3  OH2          -3.7110983261        9.8014642583       -9.0245418836  CLST         471          1.0000000000
      1412       471  TIP3  H1           -3.7243053397        8.9514938710       -9.5171108274  CLST         471          1.0000000000
      1413       471  TIP3  H2           -4.2447911738       10.3679892602       -9.6210124658  CLST         471          1.0000000000
      1414       472  TIP3  OH2         -11.7458228768        3.8118420928        3.2443999230  CLST         472          1.0000000000
      1415       472  TIP3  H1          -12.2108867382        2.9521565487        3.3137520722  CLST         472          1.0000000000
      1416       472  TIP3  H2          -11.2374034864        3.6533360354        2.4235943685  CLST         472          1.0000000000
      1417       473  TIP3  OH2           5.3651936307        1.0400829937       10.9072182581  CLST         473          1.0000000000
      1418       473  TIP3  H1            5.0905779589        1.8643714161       10.4661804722  CLST         473          1.0000000000
      1419       473  TIP3  H2            6.0665573507        1.3758551077       11.5091561146  CLST         473          1.0000000000
      1420       474  TIP3  OH2           1.2560868288        1.7693053980        1.2118757754  CLST         474          1.0000000000
      1421       474  TIP3  H1            0.4866805177        1.2865692603        1.5917239195  CLST         474          1.0000000000
      1422       474  TIP3  H2            0.9451990945        1.8497873652        0.2842450104  CLST         474          1.0000000000
      1423       475  TIP3  OH2           6.6372091640       -8.7864256173       12.8049710822  CLST         475          1.0000000000
      1424       475  TIP3  H1            7.4946963632       -8.5944921118       13.2247775204  CLST         475          1.0000000000
      1425       475  TIP3  H2            6.8322294953       -9.6075493481       12.3062481964  CLST         475          1.0000000000
      1426       476  TIP3  OH2         -11.6867737979       -8.6408578663        0.0351111765  CLST         476          1.0000000000
      1427       476  TIP3  H1          -11.6827537649       -8.0753341932       -0.7702689960  CLST         476          1.0000000000
      1428       476  TIP3  H2          -12.4755605496       -9.1713938298       -0.1209577628  CLST         476          1.0000000000
      1429       477  TIP3  OH2         -11.1076002851        4.1959424961      -13.9542622389  CLST         477          1.0000000000
      1430       477  TIP3  H1          -11.0047367908        3.2133293470      -13.9744277580  CLST         477          1.0000000000
      1431       477  TIP3  H2          -11.2525012913        4.3781703431      -14.8896695842  CLST         477          1.0000000000
      1432       478  TIP3  OH2          -3.8183606190        7.4795425163      -10.4978303383  CLST         478          1.0000000000
      1433       478  TIP3  H1           -4.4530713994        7.1602738626      -11.1706728176  CLST         478          1.0000000000
      1434       478  TIP3  H2           -3.0261579625        7.6130225401      -11.0727018073  CLST         478          1.0000000000
      1435       479  TIP3  OH2           8.6341919181       -2.3889452135       -9.3318114047  CLST         479          1.0000000000
      1436       479  TIP3  H1            8.5334002981       -1.5531547771       -8.8382874113  CLST         479          1.0000000000
      1437       479  TIP3  H2            9.5196016981       -2.6420517802       -9.0182302808  CLST         479          1.0000000000
      1438       480  TIP3  OH2          -6.0197352275        7.5282467509       -0.1984504991  CLST         480          1.0000000000
      1439       480  TIP3  H1           -5.2006455340        7.9998974995       -0.4636618550  CLST         480          1.0000000000
      1440       480  TIP3  H2           -5.6774649153        6.6105713066       -0.1816918730  CLST         480          1.0000000000
      1441       481  TIP3  OH2          -2.3157099752        2.3426914405       11.8701235689  CLST         481          1.0000000000
      1442       481  TIP3  H1           -1.5202448624        2.8531941681       11.6250694344  CLST         481          1.0000000000
      1443       481  TIP3  H2           -1.9076719863        1.5323298486       12.2345690209  CLST         481          1.0000000000
      1444       482  TIP3  OH2          -9.4029165411       11.3372967699       -7.2594897258  CLST         482          1.0000000000
      1445       482  TIP3  H1           -9.9070030808       10.8837047775       -7.9644309985  CLST         482          1.0000000000
      1446       482  TIP3  H2           -8.6626688510       11.6954630563       -7.7925537187  CLST         482          1.0000000000
      1447       483  TIP3  OH2           6.7120235120       -6.0031330455       12.7554442453  CLST         483          1.0000000000
      1448       483  TIP3  H1            6.3546950814       -6.9084538840       12.7004890429  CLST         483          1.0000000000
      1449       483  TIP3  H2            6.6074500547       -5.6975586992       11.8327311977  CLST         483          1.0000000000
      1450       484  TIP3  OH2           6.0566355646       -2.6568941293        2.0704249148  CLST         484          1.0000000000
      1451       484  TIP3  H1            5.2330187267       -3.1006383325        2.3719614368  CLST         484          1.0000000000
      1452       484  TIP3  H2            6.1528134683       -1.9606608560        2.7533934065  CLST         484          1.0000000000
      1453       485  TIP3  OH2         -11.9795189642        4.6168285121        9.2240403575  CLST         485          1.0000000000
      1454       485  TIP3  H1          -11.4967262233        3.7675834217        9.3793153668  CLST         485          1.0000000000
      1455       485  TIP3  H2          -12.6583751978        4.3294300061        8.5771490705  CLST         485          1.0000000000
      1456       486  TIP3  OH2           8.8830797188       -7.3223808601       13.7400149966  CLST         486          1.0000000000
      1457       486  TIP3  H1            9.1661448529       -6.9776092142       14.5924361326  CLST         486          1.0000000000
      1458       486  TIP3  H2            8.1864653626       -6.6758878058       13.4819693102  CLST         486          1.0000000000
      1459       487  TIP3  OH2          11.4147044623       -8.3388249743        6.1639022737  CLST         487          1.0000000000
      1460       487  TIP3  H1           10.4814043517       -8.5621486413        5.9576753772  CLST         487          1.0000000000
      1461       487  TIP3  H2           11.3669819384       -8.3418001154        7.1462160447  CLST         487          1.0000000000
      1462       488  TIP3  OH2          14.0127128092        9.3317542407        8.2889180901  CLST         488          1.0000000000
      1463       488  TIP3  H1           14.8441281396        8.8860833331        8.1152117592  CLST         488          1.0000000000
      1464       488  TIP3  H2           13.3729720969        8.5875256247        8.2478559636  CLST         488          1.0000000000
      1465       489  TIP3  OH2          -6.0201346586       -9.8963647436       11.9370539136  CLST         489          1.0000000000
      1466       489  TIP3  H1           -6.6889937217      -10.2666733185       11.3077893743  CLST         489          1.0000000000
      1467       489  TIP3  H2           -6.2916988450       -8.9737409128       11.9640613315  CLST         489          1.0000000000
      1468       490  TIP3  OH2           7.1099392864      -13.2519668808        1.7285368534  CLST         490          1.0000000000
      1469       490  TIP3  H1            6.9091040781      -12.5307326341        2.3663673561  CLST         490          1.0000000000
      1470       490  TIP3  H2            6.7127476772      -14.0169435839        2.1585931458  CLST         490          1.0000000000
      1471       491  TIP3  OH2           3.2390224671      -10.3460132741        3.7022949312  CLST         491          1.0000000000
      1472       491  TIP3  H1            2.7673796204      -10.5131351397        4.5424763683  CLST         491          1.0000000000
      1473       491  TIP3  H2            2.4944528308      -10.5420390348        3.0909562106  CLST         491          1.0000000000
      1474       492  TIP3  OH2          -1.0022165406       -6.5021358734       12.3978980185  CLST         492          1.0000000000
      1475       492  TIP3  H1           -0.8110501166       -7.4613965887       12.4694596183  CLST         492          1.0000000000
      1476       492  TIP3  H2           -1.9042231734       -6.5141556757       12.0215107621  CLST         492          1.0000000000
      1477       493  TIP3  OH2           3.2245746972       10.7195631021        7.4543308618  CLST         493          1.0000000000
      1478       493  TIP3  H1            4.1224839910       10.8270571149        7.8362278744  CLST         493          1.0000000000
      1479       493  TIP3  H2            2.7090726712       10.4426384839        8.2420455738  CLST         493          1.0000000000
      1480       494  TIP3  OH2          -8.0465308849        5.9661619168       -1.2279289425  CLST         494          1.0000000000
      1481       494  TIP3  H1           -7.5445970357        6.7330787279       -0.8888266136  CLST         494          1.0000000000
      1482       494  TIP3  H2           -8.8985050646        6.0866634980       -0.7596227233  CLST         494          1.0000000000
      1483       495  TIP3  OH2           4.3673575826       -7.2887763772       -2.5446379861  CLST         495          1.0000000000
      1484       495  TIP3  H1            4.8003686144       -6.6888306168       -3.1837995115  CLST         495          1.0000000000
      1485       495  TIP3  H2            5.1750403711       -7.6493759716       -2.1204588601  CLST         495          1.0000000000
      1486       496  TIP3  OH2         -12.7858777566      -10.1310105941        7.6724515217  CLST         496          1.0000000000
      1487       496  TIP3  H1          -12.2301527928      -10.7510169340        7.1571868009  CLST         496          1.0000000000
      1488       496  TIP3  H2          -13.6524204026      -10.2562481862        7.2817351656  CLST         496          1.0000000000
      1489       497  TIP3  OH2         -10.1902156676      -12.5531486767       -7.5306659910  CLST         497          1.0000000000
      1490       497  TIP3  H1          -10.5513242264      -13.1599833378       -8.1773237913  CLST         497          1.0000000000
      1491       497  TIP3  H2           -9.8507836789      -11.8287127467       -8.0932618030  CLST         497          1.0000000000
      1492       498  TIP3  OH2          -5.6405794264       -0.0566544066      -10.6945029887  CLST         498          1.0000000000
      1493       498  TIP3  H1           -5.7951648010       -0.1175637794      -11.6645119009  CLST         498          1.0000000000
      1494       498  TIP3  H2           -5.6609122233        0.9180189297      -10.5629541823  CLST         498          1.0000000000
      1495       499  TIP3  OH2          11.3896450225        6.6567879225        3.5219076312  CLST         499          1.0000000000
      1496       499  TIP3  H1           11.7988800975        7.0727882111        2.7349152575  CLST         499          1.0000000000
      1497       499  TIP3  H2           11.1456488014        7.4455425830        4.0442709149  CLST         499          1.0000000000
      1498       500  TIP3  OH2           2.6965291715       -8.5648895254      -12.6056660151  CLST         500          1.0000000000
      1499       500  TIP3  H1            1.8857214864       -8.6769751158      -13.1162953964  CLST         500          1.0000000000
      1500       500  TIP3  H2            2.8333031992       -9.4793098202      -12.2702150987  CLST         500          1.0000000000
      1501       501  TIP3  OH2           1.7805338781      -10.4863195298       13.5064187009  CLST         501          1.0000000000
      1502       501  TIP3  H1            1.9522602589      -10.2258341052       14.4164371027  CLST         501          1.0000000000
      1503       501  TIP3  H2            2.6832118620      -10.3792732657       13.1161319634  CLST         501          1.0000000000
      1504       502  TIP3  OH2           5.5510410805        3.3684864424        9.3281138844  CLST         502          1.0000000000
      1505       502  TIP3  H1            5.8837510248        3.8205362544       10.1386765900  CLST         502          1.0000000000
      1506       502  TIP3  H2            6.3708890567        2.9731637595        8.9741247516  CLST         502          1.0000000000
      1507       503  TIP3  OH2           9.7044084511       -1.7090726204        0.2076395109  CLST         503          1.0000000000
      1508       503  TIP3  H1           10.5346128134       -1.2390406275        0.4207829937  CLST         503          1.0000000000
      1509       503  TIP3  H2            9.3055844697       -1.1167268017       -0.4462720350  CLST         503          1.0000000000
      1510       504  TIP3  OH2           8.4751707728      -13.1012663836       10.6329656779  CLST         504          1.0000000000
      1511       504  TIP3  H1            8.3662311942      -12.9778673089        9.6645857565  CLST         504          1.0000000000
      1512       504  TIP3  H2            8.6888085901      -14.0385762854       10.6892944566  CLST         504          1.0000000000
      1513       505  TIP3  OH2           3.5849119158      -10.7223195973       -5.4745139443  CLST         505          1.0000000000
      1514       505  TIP3  H1            3.3507725019      -10.1922758946       -6.2674097689  CLST         505          1.0000000000
      1515       505  TIP3  H2            3.2574779295      -10.1398505478       -4.7575973466  CLST         505          1.0000000000
      1516       506  TIP3  OH2          -8.7958923518       -3.7414086917       -7.9039906041  CLST         506          1.0000000000
      1517       506  TIP3  H1           -8.5011109054       -2.9097454867       -7.4862727476  CLST         506          1.0000000000
      1518       506  TIP3  H2           -9.5668292798       -3.4123608271       -8.4114362200  CLST         506          1.0000000000
      1519       507  TIP3  OH2          10.8074928553        9.7877572466      -12.7638325711  CLST         507          1.0000000000
      1520       507  TIP3  H1           11.1626844571        9.7319105433      -13.6529530264  CLST         507          1.0000000000
      1521       507  TIP3  H2           10.8809527641        8.8562774684      -12.4552643963  CLST         507          1.0000000000
      1522       508  TIP3  OH2           8.1476417819       12.6286476644        8.1723053544  CLST         508          1.0000000000
      1523       508  TIP3  H1            7.8823632519       12.9956125383        7.2978685289  CLST         508          1.0000000000
      1524       508  TIP3  H2            9.0773723367       12.9336069952        8.1969618659  CLST         508          1.0000000000
      1525       509  TIP3  OH2          -0.5069955071       -1.4533146989      -11.8982483051  CLST         509          1.0000000000
      1526       509  TIP3  H1           -1.3991695691       -1.7043815268      -12.1732450011  CLST         509          1.0000000000
      1527       509  TIP3  H2           -0.6734531358       -0.5985123989      -11.4253053700  CLST         509          1.0000000000
      1528       510  TIP3  OH2           7.5518277042        1.8756177106       12.3481704747  CLST         510          1.0000000000
      1529       510  TIP3  H1            7.6864710737        0.9284660515       12.5815457461  CLST         510          1.0000000000
      1530       510  TIP3  H2            8.4639303642        2.1028617122       12.0538357932  CLST         510          1.0000000000
      1531       511  TIP3  OH2          -9.4080675763       -5.9628063783       -1.4252147665  CLST         511          1.0000000000
      1532       511  TIP3  H1          -10.2827243201       -6.3147611202       -1.6702055855  CLST         511          1.0000000000
      1533       511  TIP3  H2           -9.3373290714       -5.1625113161       -1.9786027800  CLST         511          1.0000000000
      1534       512  TIP3  OH2           9.9497430407        6.4842564692        6.5927507015  CLST         512          1.0000000000
      1535       512  TIP3  H1           10.2553393256        7.2852301770        6.1178210315  CLST         512          1.0000000000
      1536       512  TIP3  H2            9.3745801897        6.1116184554        5.8970521393  CLST         512          1.0000000000
      1537       513  TIP3  OH2         -11.4540677342       10.2425454115        8.3169088060  CLST         513          1.0000000000
      1538       513  TIP3  H1          -11.0759654156       11.0128961189        8.7871762976  CLST         513          1.0000000000
      1539       513  TIP3  H2          -11.5223042546        9.6179430003        9.0712042151  CLST         513          1.0000000000
      1540       514  TIP3  OH2          -4.7318833978        5.1020230926       -0.4910433943  CLST         514          1.0000000000
      1541       514  TIP3  H1           -3.9627138005        5.4104614711        0.0276002869  CLST         514          1.0000000000
      1542       514  TIP3  H2           -4.3973447102        5.1838937704       -1.4111185093  CLST         514          1.0000000000
      1543       515  TIP3  OH2          -0.9616285819        0.8538355802       -5.0102919059  CLST         515          1.0000000000
      1544       515  TIP3  H1           -1.6849308491        1.5154077224       -4.9409489620  CLST         515          1.0000000000
      1545       515  TIP3  H2           -0.1755532928        1.4371882640       -5.1006570444  CLST         515          1.0000000000
      1546       516  TIP3  OH2          -7.9113837521       -9.2610605990        5.9974784101  CLST         516          1.0000000000
      1547       516  TIP3  H1           -8.1083522465       -9.1294065011        5.0383277447  CLST         516          1.0000000000
      1548       516  TIP3  H2           -8.0790623967       -8.3315897831        6.2726397768  CLST         516          1.0000000000
      1549       517  TIP3  OH2           1.2342226738        9.8206705342       11.8814676626  CLST         517          1.0000000000
      1550       517  TIP3  H1            1.3456849275        9.6902004610       10.9175801929  CLST         517          1.0000000000
      1551       517  TIP3  H2            0.3042712654        9.5516269041       12.0139586154  CLST         517          1.0000000000
      1552       518  TIP3  OH2         -11.2665017155       -3.7363370653      -11.6214908806  CLST         518          1.0000000000
      1553       518  TIP3  H1          -11.9384190077       -3.9724853648      -12.2649866316  CLST         518          1.0000000000
      1554       518  TIP3  H2          -10.4434980206       -3.9722641795      -12.0983850173  CLST         518          1.0000000000
      1555       519  TIP3  OH2           2.3122882249        3.1517633297        3.3420563235  CLST         519          1.0000000000
      1556       519  TIP3  H1            1.9944704775        4.0142327695        2.9832681767  CLST         519          1.0000000000
      1557       519  TIP3  H2            2.0084128576        2.5469496308        2.6286977093  CLST         519          1.0000000000
      1558       520  TIP3  OH2         -10.0207471415        5.9235408805        7.8419302962  CLST         520          1.0000000000
      1559       520  TIP3  H1          -10.1349051090        5.3485000701        7.0500028485  CLST         520          1.0000000000
      1560       520  TIP3  H2          -10.7148147154        5.5379890786        8.4220646819  CLST         520          1.0000000000
      1561       521  TIP3  OH2           8.5008868790       -9.1468869975       -9.6455241389  CLST         521          1.0000000000
      1562       521  TIP3  H1            8.5346856209       -9.8934872861      -10.2792014976  CLST         521          1.0000000000
      1563       521  TIP3  H2            8.4622665139       -8.3865898932      -10.2667673270  CLST         521          1.0000000000
      1564       522  TIP3  OH2          -5.3902544810       -7.0851477865        6.7999660039  CLST         522          1.0000000000
      1565       522  TIP3  H1           -5.9121004096       -7.7672260014        7.2404299829  CLST         522          1.0000000000
      1566       522  TIP3  H2           -4.5957784407       -7.0153687170        7.3758935015  CLST         522          1.0000000000
      1567       523  TIP3  OH2          -3.8268156452       11.5453835398      -13.1084902019  CLST         523          1.0000000000
      1568       523  TIP3  H1           -2.9027469051       11.2436753797      -12.9669102050  CLST         523          1.0000000000
      1569       523  TIP3  H2           -3.8126916893       11.7675037813      -14.0419917844  CLST         523          1.0000000000
      1570       524  TIP3  OH2           7.0870328463        4.3030763769       -1.9700643518  CLST         524          1.0000000000
      1571       524  TIP3  H1            7.6703780114        4.2879228004       -2.7540871947  CLST         524          1.0000000000
      1572       524  TIP3  H2            6.2461750153        3.9567178177       -2.3405978920  CLST         524          1.0000000000
      1573       525  TIP3  OH2           0.8141807964        7.6838129884       -3.3170581420  CLST         525          1.0000000000
      1574       525  TIP3  H1            0.6064281632        8.1702733570       -4.1429188464  CLST         525          1.0000000000
      1575       525  TIP3  H2            0.8803420746        6.7685489578       -3.6491030295  CLST         525          1.0000000000
      1576       526  TIP3  OH2           6.3950599713       -6.0136945309       -3.9262732767  CLST         526          1.0000000000
      1577       526  TIP3  H1            6.9855815641       -6.0334680884       -4.7092345195  CLST         526          1.0000000000
      1578       526  TIP3  H2            6.7994546685       -6.6934371010       -3.3499712954  CLST         526          1.0000000000
      1579       527  TIP3  OH2           0.4646162266        7.6912596934        4.0255842704  CLST         527          1.0000000000
      1580       527  TIP3  H1            1.1209135832        8.0624333880        4.6583736410  CLST         527          1.0000000000
      1581       527  TIP3  H2           -0.2705185508        8.3252505568        4.1262842735  CLST         527          1.0000000000
      1582       528  TIP3  OH2          -2.9557974205       10.3470144010        9.1434323883  CLST         528          1.0000000000
      1583       528  TIP3  H1           -3.1601703399       10.1692344156       10.0834083761  CLST         528          1.0000000000
      1584       528  TIP3  H2           -3.8396605233       10.2042710715        8.7418033549  CLST         528          1.0000000000
      1585       529  TIP3  OH2          -7.4801655802       11.5777061557       -9.2551324147  CLST         529          1.0000000000
      1586       529  TIP3  H1           -6.5749932511       11.6853591587       -9.6173127603  CLST         529          1.0000000000
      1587       529  TIP3  H2           -7.9946206932       11.6066714397      -10.0836731200  CLST         529          1.0000000000
      1588       530  TIP3  OH2          -3.7554974441       -5.1365466249      -13.8463403487  CLST         530          1.0000000000
      1589       530  TIP3  H1           -3.8767652169       -6.0987583003      -13.7021698187  CLST         530          1.0000000000
      1590       530  TIP3  H2           -3.0454902487       -4.9485863388      -13.1999920849  CLST         530          1.0000000000
      1591       531  TIP3  OH2         -11.6913705809       -0.0600787929       10.0073165480  CLST         531          1.0000000000
      1592       531  TIP3  H1          -12.4420225035       -0.3458112701       10.5316132113  CLST         531          1.0000000000
      1593       531  TIP3  H2          -11.5670512826       -0.8206265137        9.4029981344  CLST         531          1.0000000000
      1594       532  TIP3  OH2         -11.2057316995       -3.0148563423       -8.9989653794  CLST         532          1.0000000000
      1595       532  TIP3  H1          -11.5138946837       -3.8771170214       -8.6573707322  CLST         532          1.0000000000
      1596       532  TIP3  H2          -11.2807085525       -3.1629177967       -9.9706058946  CLST         532          1.0000000000
      1597       533  TIP3  OH2          -3.1470378533       -6.6927615408        8.3095987182  CLST         533          1.0000000000
      1598       533  TIP3  H1           -2.5829143565       -7.4807833549        8.1179404454  CLST         533          1.0000000000
      1599       533  TIP3  H2           -2.5219159264       -5.9782540215        8.0639288849  CLST         533          1.0000000000
      1600       534  TIP3  OH2           0.1737151741      -13.0025901367       -7.7820595221  CLST         534          1.0000000000
      1601       534  TIP3  H1            0.4598639886      -12.9806610735       -8.7138378984  CLST         534          1.0000000000
      1602       534  TIP3  H2            1.0502835121      -13.0962556687       -7.3468258543  CLST         534          1.0000000000
      1603       535  TIP3  OH2           2.8105717918        2.7987867446       -7.1998476071  CLST         535          1.0000000000
      1604       535  TIP3  H1            3.4118088031        2.1811047703       -6.7245844207  CLST         535          1.0000000000
      1605       535  TIP3  H2            2.0465704280        2.7533180937       -6.5910461287  CLST         535          1.0000000000
      1606       536  TIP3  OH2           7.4253117777      -11.8635958443       -3.5241884060  CLST         536          1.0000000000
      1607       536  TIP3  H1            6.9489913104      -12.0025845439       -4.3672144999  CLST         536          1.0000000000
      1608       536  TIP3  H2            6.8440628488      -12.2722590231       -2.8641188138  CLST         536          1.0000000000
      1609       537  TIP3  OH2          11.2394794062       -1.8176970448       -8.1588401589  CLST         537          1.0000000000
      1610       537  TIP3  H1           10.5905471939       -1.1419149129       -7.8800113691  CLST         537          1.0000000000
      1611       537  TIP3  H2           11.9026392430       -1.7643863616       -7.4387691909  CLST         537          1.0000000000
      1612       538  TIP3  OH2          -4.8259394506      -10.5646123217        0.8728393219  CLST         538          1.0000000000
      1613       538  TIP3  H1           -4.1554735286      -10.8557982653        1.5277551612  CLST         538          1.0000000000
      1614       538  TIP3  H2           -4.6686837964       -9.5952569207        0.8897352127  CLST         538          1.0000000000
      1615       539  TIP3  OH2           2.3727508805       -5.5847816933        1.3952390309  CLST         539          1.0000000000
      1616       539  TIP3  H1            1.5033332586       -5.9870568571        1.5836987656  CLST         539          1.0000000000
      1617       539  TIP3  H2            2.3445506846       -5.5794838591        0.4075601120  CLST         539          1.0000000000
      1618       540  TIP3  OH2           3.8666041277       -7.8035938592        4.4161203797  CLST         540          1.0000000000
      1619       540  TIP3  H1            3.5623019590       -8.7025101910        4.1697998452  CLST         540          1.0000000000
      1620       540  TIP3  H2            4.1073001077       -7.4595673864        3.5301739189  CLST         540          1.0000000000
      1621       541  TIP3  OH2          -5.7248387212        9.9832533175        2.7441713063  CLST         541          1.0000000000
      1622       541  TIP3  H1           -5.9888366160       10.0942729683        3.6804133281  CLST         541          1.0000000000
      1623       541  TIP3  H2           -5.1798990917       10.7965151294        2.6130053579  CLST         541          1.0000000000
      1624       542  TIP3  OH2         -11.4656501902       13.4320333461        5.3088737059  CLST         542          1.0000000000
      1625       542  TIP3  H1          -11.0467210252       13.2065855599        4.4402290873  CLST         542          1.0000000000
      1626       542  TIP3  H2          -11.9474333329       14.2280011922        5.0612410778  CLST         542          1.0000000000
      1627       543  TIP3  OH2         -10.8337678446       10.9036182753       -2.2876213201  CLST         543          1.0000000000
      1628       543  TIP3  H1          -11.6796354581       10.4562409835       -2.4940065400  CLST         543          1.0000000000
      1629       543  TIP3  H2          -10.6269432888       11.3139739045       -3.1577258473  CLST         543          1.0000000000
      1630       544  TIP3  OH2          -0.5083758675        5.9095010697       -5.9250077488  CLST         544          1.0000000000
      1631       544  TIP3  H1           -0.4749262251        5.4389210828       -6.7895970269  CLST         544          1.0000000000
      1632       544  TIP3  H2            0.1666600362        5.4346874084       -5.4004261856  CLST         544          1.0000000000
      1633       545  TIP3  OH2          -8.8827710491        1.8721224790      -11.0805816231  CLST         545          1.0000000000
      1634       545  TIP3  H1           -8.6305343641        1.7246907001      -12.0156689351  CLST         545          1.0000000000
      1635       545  TIP3  H2           -9.2723054438        2.7640644260      -11.1581091023  CLST         545          1.0000000000
      1636       546  TIP3  OH2           4.2878294254       10.7621559335       -2.1701056281  CLST         546          1.0000000000
      1637       546  TIP3  H1            3.8799162845        9.8740085162       -2.1103856345  CLST         546          1.0000000000
      1638       546  TIP3  H2            4.8686999330       10.7496495079       -1.3821217159  CLST         546          1.0000000000
      1639       547  TIP3  OH2          -3.6369641444       -2.1149612980      -10.7819434541  CLST         547          1.0000000000
      1640       547  TIP3  H1           -3.5296437653       -2.1792160934       -9.8099089265  CLST         547          1.0000000000
      1641       547  TIP3  H2           -4.2453791815       -1.3532361813      -10.8263034655  CLST         547          1.0000000000
      1642       548  TIP3  OH2          11.2118622934        2.1033951173        2.0556220251  CLST         548          1.0000000000
      1643       548  TIP3  H1           10.7043327640        1.6087763388        2.7271731767  CLST         548          1.0000000000
      1644       548  TIP3  H2           11.1238990891        2.9944020026        2.4429943570  CLST         548          1.0000000000
