* Geometry rescue: heat segment 1/8 at step 500
*
        1644  EXT
         1         1  TIP3  OH2           4.5006594022       -1.5115565395       -2.2050837171  CLST           1          1.0000000000
         2         1  TIP3  H1            4.8209906330       -1.6157360967       -1.2719889113  CLST           1          1.0000000000
         3         1  TIP3  H2            5.1457158436       -2.1442635405       -2.6107140942  CLST           1          1.0000000000
         4         2  TIP3  OH2          10.6678094246        7.4360569356      -11.7439497940  CLST           2          1.0000000000
         5         2  TIP3  H1           11.0139277052        7.3878730303      -10.8101933213  CLST           2          1.0000000000
         6         2  TIP3  H2            9.7164685043        7.3125579963      -11.5502197366  CLST           2          1.0000000000
         7         3  TIP3  OH2           8.9045564120        5.2788949001       -4.1795727523  CLST           3          1.0000000000
         8         3  TIP3  H1            9.2612762589        5.6267846824       -3.3106364535  CLST           3          1.0000000000
         9         3  TIP3  H2            8.3934873389        6.0514184076       -4.4936735730  CLST           3          1.0000000000
        10         4  TIP3  OH2          -2.8636968952        6.5726002810       10.0748474291  CLST           4          1.0000000000
        11         4  TIP3  H1           -3.6304608198        6.9459614951        9.5431712486  CLST           4          1.0000000000
        12         4  TIP3  H2           -2.9457854072        7.2336002134       10.7848939497  CLST           4          1.0000000000
        13         5  TIP3  OH2           9.0870717459        6.1784526276       10.6861407537  CLST           5          1.0000000000
        14         5  TIP3  H1            8.5288697731        5.6094768944       11.3103682810  CLST           5          1.0000000000
        15         5  TIP3  H2            8.9832033286        5.5224640381        9.9426174894  CLST           5          1.0000000000
        16         6  TIP3  OH2          10.5496365756       -5.9241608517      -11.6636348484  CLST           6          1.0000000000
        17         6  TIP3  H1           11.1240192195       -5.4631488127      -10.9853626702  CLST           6          1.0000000000
        18         6  TIP3  H2           10.5544215068       -5.1672776694      -12.3296108465  CLST           6          1.0000000000
        19         7  TIP3  OH2         -12.3235824270        8.3255509698        5.7340268130  CLST           7          1.0000000000
        20         7  TIP3  H1          -12.7112229181        9.1601955286        6.1054368431  CLST           7          1.0000000000
        21         7  TIP3  H2          -11.5404981466        8.3441127996        6.3585627282  CLST           7          1.0000000000
        22         8  TIP3  OH2          -4.4141217533       -8.3158151843        0.5805536738  CLST           8          1.0000000000
        23         8  TIP3  H1           -4.5664501125       -7.8163319454        1.3822867014  CLST           8          1.0000000000
        24         8  TIP3  H2           -3.5543747514       -7.7634061067        0.2983912406  CLST           8          1.0000000000
        25         9  TIP3  OH2           2.6265859640      -14.1807639703       -4.0533761903  CLST           9          1.0000000000
        26         9  TIP3  H1            1.7000389488      -14.3311321933       -3.7510759092  CLST           9          1.0000000000
        27         9  TIP3  H2            2.7906702581      -13.3889968229       -3.4962735320  CLST           9          1.0000000000
        28        10  TIP3  OH2         -14.1901036951       -1.0852826605       -0.4102533213  CLST          10          1.0000000000
        29        10  TIP3  H1          -13.7259796299       -1.4213847752       -1.2523225516  CLST          10          1.0000000000
        30        10  TIP3  H2          -14.6769422731       -1.7301815947       -0.0781892139  CLST          10          1.0000000000
        31        11  TIP3  OH2           6.9135674414        6.7903508687       -1.8453691356  CLST          11          1.0000000000
        32        11  TIP3  H1            7.1338853837        5.8503017005       -1.6274702063  CLST          11          1.0000000000
        33        11  TIP3  H2            6.8419399939        6.7658739101       -2.8174199027  CLST          11          1.0000000000
        34        12  TIP3  OH2          -8.2724152585        2.5507284103        1.9511849246  CLST          12          1.0000000000
        35        12  TIP3  H1           -7.7026628767        2.7590963439        1.1528617847  CLST          12          1.0000000000
        36        12  TIP3  H2           -9.1477482595        2.5733802334        1.4526317066  CLST          12          1.0000000000
        37        13  TIP3  OH2           7.6810695248        2.4084797511        2.0898679519  CLST          13          1.0000000000
        38        13  TIP3  H1            7.6323942000        3.2979838947        1.6311289117  CLST          13          1.0000000000
        39        13  TIP3  H2            7.5986280473        2.6973262501        3.0312489857  CLST          13          1.0000000000
        40        14  TIP3  OH2          -0.2823234886        2.2033077404        7.8701334437  CLST          14          1.0000000000
        41        14  TIP3  H1            0.0447300949        3.1049585766        7.5855402167  CLST          14          1.0000000000
        42        14  TIP3  H2            0.4312323722        1.7040710594        7.3432985394  CLST          14          1.0000000000
        43        15  TIP3  OH2          -8.9299067070       -3.8748079397      -12.7547233955  CLST          15          1.0000000000
        44        15  TIP3  H1           -8.2097189864       -4.0670399141      -13.3872068182  CLST          15          1.0000000000
        45        15  TIP3  H2           -8.4588013833       -4.4701815621      -12.0630343596  CLST          15          1.0000000000
        46        16  TIP3  OH2          -3.7853609417      -12.7445379506       -6.1982663298  CLST          16          1.0000000000
        47        16  TIP3  H1           -4.3790293761      -12.8523781425       -5.4271719586  CLST          16          1.0000000000
        48        16  TIP3  H2           -2.8925758754      -12.7831101473       -5.7558324723  CLST          16          1.0000000000
        49        17  TIP3  OH2           4.8404673741      -13.3737477540       -8.4818518218  CLST          17          1.0000000000
        50        17  TIP3  H1            5.4699662607      -13.1650575048       -7.7369015117  CLST          17          1.0000000000
        51        17  TIP3  H2            4.0896046935      -13.6089694613       -7.8810848652  CLST          17          1.0000000000
        52        18  TIP3  OH2         -11.7708655149       -6.8231641627       -1.5470296142  CLST          18          1.0000000000
        53        18  TIP3  H1          -12.2076817595       -5.9330648482       -1.7982415603  CLST          18          1.0000000000
        54        18  TIP3  H2          -11.7477565592       -7.1291130155       -2.5239343681  CLST          18          1.0000000000
        55        19  TIP3  OH2          10.9585427307        0.0594031046        9.4385045951  CLST          19          1.0000000000
        56        19  TIP3  H1           10.6050896435       -0.8275996311        9.8187477242  CLST          19          1.0000000000
        57        19  TIP3  H2           11.2521081260       -0.2606091271        8.4338781010  CLST          19          1.0000000000
        58        20  TIP3  OH2         -13.2018248667        1.4681092811        2.7940782868  CLST          20          1.0000000000
        59        20  TIP3  H1          -12.9859366274        1.1798237668        1.8736802686  CLST          20          1.0000000000
        60        20  TIP3  H2          -14.1426833700        1.5004576573        2.7844016266  CLST          20          1.0000000000
        61        21  TIP3  OH2         -10.0761784003       12.5942017860       -5.2852453856  CLST          21          1.0000000000
        62        21  TIP3  H1          -10.2395916478       13.4064544202       -5.6410422300  CLST          21          1.0000000000
        63        21  TIP3  H2           -9.3899109263       12.2456057713       -5.9326942709  CLST          21          1.0000000000
        64        22  TIP3  OH2           2.7808407229       12.1718508040       -6.5611753462  CLST          22          1.0000000000
        65        22  TIP3  H1            3.2207353297       11.3815135029       -6.1753219700  CLST          22          1.0000000000
        66        22  TIP3  H2            3.1925693362       12.7608371681       -5.8040457337  CLST          22          1.0000000000
        67        23  TIP3  OH2           5.6312038904       -1.7379994498       11.5075766615  CLST          23          1.0000000000
        68        23  TIP3  H1            5.3806830770       -2.2756397765       10.7388082470  CLST          23          1.0000000000
        69        23  TIP3  H2            5.3611021066       -0.8449836396       11.1798054616  CLST          23          1.0000000000
        70        24  TIP3  OH2          -0.1734087851        1.1222203949        4.5763525922  CLST          24          1.0000000000
        71        24  TIP3  H1            0.7408316235        0.9738770004        4.8641380797  CLST          24          1.0000000000
        72        24  TIP3  H2           -0.6473317835        0.3503418512        4.9898260684  CLST          24          1.0000000000
        73        25  TIP3  OH2           3.2652650943        2.0828213867       -2.5785165062  CLST          25          1.0000000000
        74        25  TIP3  H1            3.6245205909        1.5109727051       -1.8699592380  CLST          25          1.0000000000
        75        25  TIP3  H2            3.7458035566        2.9336510907       -2.3890533936  CLST          25          1.0000000000
        76        26  TIP3  OH2          11.3469086176        5.3966488554       -6.6340975280  CLST          26          1.0000000000
        77        26  TIP3  H1           10.4772863033        5.0859090040       -7.0019478206  CLST          26          1.0000000000
        78        26  TIP3  H2           10.9785873064        6.1518766311       -6.1048616168  CLST          26          1.0000000000
        79        27  TIP3  OH2         -10.3779295025        7.4304277853       -5.4987785630  CLST          27          1.0000000000
        80        27  TIP3  H1          -10.2338697657        7.9547001432       -4.6870568350  CLST          27          1.0000000000
        81        27  TIP3  H2          -11.0290197123        7.8653426631       -5.9667901674  CLST          27          1.0000000000
        82        28  TIP3  OH2          -4.3004994964      -10.2659053920       -6.7999843234  CLST          28          1.0000000000
        83        28  TIP3  H1           -4.1740251889      -11.2601418227       -6.6768222453  CLST          28          1.0000000000
        84        28  TIP3  H2           -5.0785541120      -10.1307193148       -6.2171422554  CLST          28          1.0000000000
        85        29  TIP3  OH2         -10.7097948338        7.6126620317       -2.5848638978  CLST          29          1.0000000000
        86        29  TIP3  H1          -10.1879275166        8.2499138692       -1.9553124342  CLST          29          1.0000000000
        87        29  TIP3  H2          -11.5033384969        8.2417408028       -2.6121808715  CLST          29          1.0000000000
        88        30  TIP3  OH2           8.9121937116      -10.5671540025       -2.0727929494  CLST          30          1.0000000000
        89        30  TIP3  H1            9.6007923214      -10.9613551978       -1.4044853920  CLST          30          1.0000000000
        90        30  TIP3  H2            8.6579111430      -11.4414095228       -2.5311052731  CLST          30          1.0000000000
        91        31  TIP3  OH2          -9.7725013729       -1.1906753313      -13.0489704539  CLST          31          1.0000000000
        92        31  TIP3  H1           -9.6179608403       -2.1544543185      -12.9120218731  CLST          31          1.0000000000
        93        31  TIP3  H2           -9.5114104719       -0.8407723263      -12.1232182615  CLST          31          1.0000000000
        94        32  TIP3  OH2          -8.7715613532       -6.5622118312        6.9511141168  CLST          32          1.0000000000
        95        32  TIP3  H1           -9.7448406681       -6.4934319915        6.8889230831  CLST          32          1.0000000000
        96        32  TIP3  H2           -8.5718889666       -5.8522653400        6.2606740153  CLST          32          1.0000000000
        97        33  TIP3  OH2          11.7583393964       -8.9627388985        8.8763986009  CLST          33          1.0000000000
        98        33  TIP3  H1           11.6349413500       -9.9516569883        8.9653910601  CLST          33          1.0000000000
        99        33  TIP3  H2           11.3184467137       -8.7777869333        9.7332841417  CLST          33          1.0000000000
       100        34  TIP3  OH2           4.1917682077       -3.8471556800        2.8989584086  CLST          34          1.0000000000
       101        34  TIP3  H1            3.5953517038       -4.0878636358        2.1424019153  CLST          34          1.0000000000
       102        34  TIP3  H2            4.2770148557       -4.7349030530        3.2910331270  CLST          34          1.0000000000
       103        35  TIP3  OH2           6.2111569575       -0.7775401846        4.3768560044  CLST          35          1.0000000000
       104        35  TIP3  H1            5.3007576849       -1.0927891931        4.6816364715  CLST          35          1.0000000000
       105        35  TIP3  H2            6.4794941074       -0.1889418496        5.1108101466  CLST          35          1.0000000000
       106        36  TIP3  OH2          -1.4318149547        1.3896335847        2.1973393200  CLST          36          1.0000000000
       107        36  TIP3  H1           -2.2250907755        0.8663693547        2.0977324813  CLST          36          1.0000000000
       108        36  TIP3  H2           -1.1056093150        1.1440137314        3.1194801365  CLST          36          1.0000000000
       109        37  TIP3  OH2          -4.3123899264       -8.2055630581      -12.9808674211  CLST          37          1.0000000000
       110        37  TIP3  H1           -4.8205152969       -8.5203974825      -12.2041692203  CLST          37          1.0000000000
       111        37  TIP3  H2           -4.0254159273       -9.0725749419      -13.3533436138  CLST          37          1.0000000000
       112        38  TIP3  OH2          -3.1393615598        2.0858414814       -4.4428474776  CLST          38          1.0000000000
       113        38  TIP3  H1           -3.0782801041        3.0719554463       -4.5850143103  CLST          38          1.0000000000
       114        38  TIP3  H2           -3.6747604308        1.8724804038       -5.2365805853  CLST          38          1.0000000000
       115        39  TIP3  OH2           1.7232712940      -10.8342775078        2.1099592390  CLST          39          1.0000000000
       116        39  TIP3  H1            1.4624238860      -11.4433743753        2.8234618610  CLST          39          1.0000000000
       117        39  TIP3  H2            0.7896373980      -10.5180415817        1.8925824404  CLST          39          1.0000000000
       118        40  TIP3  OH2          -6.9903758306       12.5383932905        8.3016682808  CLST          40          1.0000000000
       119        40  TIP3  H1           -7.8815132706       12.7139633030        7.9095171859  CLST          40          1.0000000000
       120        40  TIP3  H2           -6.3711329772       12.7827474292        7.5866386906  CLST          40          1.0000000000
       121        41  TIP3  OH2           9.7157739207       -2.2900210887      -11.1128481802  CLST          41          1.0000000000
       122        41  TIP3  H1            9.0201567780       -2.9069544395      -10.7197820456  CLST          41          1.0000000000
       123        41  TIP3  H2            9.4061949355       -1.5291570762      -10.5854109600  CLST          41          1.0000000000
       124        42  TIP3  OH2           9.6671720693       10.2540818120      -10.6138834050  CLST          42          1.0000000000
       125        42  TIP3  H1           10.4864643148       10.1569977610      -10.0983707580  CLST          42          1.0000000000
       126        42  TIP3  H2           10.1400835079       10.2802555314      -11.5258990417  CLST          42          1.0000000000
       127        43  TIP3  OH2          11.9472676929       12.6680195212        7.6519802757  CLST          43          1.0000000000
       128        43  TIP3  H1           12.4757758609       13.4146446819        7.6992500019  CLST          43          1.0000000000
       129        43  TIP3  H2           12.5006060794       11.9962246220        8.1370420531  CLST          43          1.0000000000
       130        44  TIP3  OH2           7.7910616841        0.9863682736        6.0054696546  CLST          44          1.0000000000
       131        44  TIP3  H1            7.9923825647        1.4979462415        6.8559549235  CLST          44          1.0000000000
       132        44  TIP3  H2            7.4742764699        1.8027728716        5.5255796768  CLST          44          1.0000000000
       133        45  TIP3  OH2           7.8391499094        9.4276737364        7.3808552414  CLST          45          1.0000000000
       134        45  TIP3  H1            7.7832630610        8.4794142022        7.6566031794  CLST          45          1.0000000000
       135        45  TIP3  H2            8.7380114672        9.6545487775        7.7386169483  CLST          45          1.0000000000
       136        46  TIP3  OH2          -5.6424322804       -3.0943814587      -13.0450214698  CLST          46          1.0000000000
       137        46  TIP3  H1           -5.3684695173       -4.0635434472      -13.1962178006  CLST          46          1.0000000000
       138        46  TIP3  H2           -4.8943813954       -2.9383640907      -12.4204881943  CLST          46          1.0000000000
       139        47  TIP3  OH2           1.4466208025       -6.5180002996      -10.9988765199  CLST          47          1.0000000000
       140        47  TIP3  H1            1.8599707123       -5.6187220688      -10.8671359237  CLST          47          1.0000000000
       141        47  TIP3  H2            1.4414826217       -6.5151520138      -11.9803482526  CLST          47          1.0000000000
       142        48  TIP3  OH2           5.0867540640        5.5486188133        1.1206339847  CLST          48          1.0000000000
       143        48  TIP3  H1            6.0098272453        5.2373486855        0.8882898778  CLST          48          1.0000000000
       144        48  TIP3  H2            5.2936157098        6.5442531496        1.0285529717  CLST          48          1.0000000000
       145        49  TIP3  OH2          -3.4259585944      -10.7184849575      -13.7236490693  CLST          49          1.0000000000
       146        49  TIP3  H1           -2.5486741503      -11.0450835522      -13.6726552579  CLST          49          1.0000000000
       147        49  TIP3  H2           -3.8983496881      -11.2357707994      -13.0663336162  CLST          49          1.0000000000
       148        50  TIP3  OH2           2.7332900223        3.8183000939        5.8720465977  CLST          50          1.0000000000
       149        50  TIP3  H1            1.9156760168        4.1374244550        6.3197660240  CLST          50          1.0000000000
       150        50  TIP3  H2            2.4110952318        3.6521106787        4.9404419854  CLST          50          1.0000000000
       151        51  TIP3  OH2          -6.4950571641      -10.0216577121       -4.7051597478  CLST          51          1.0000000000
       152        51  TIP3  H1           -6.5659279371       -9.8429895402       -3.7075832545  CLST          51          1.0000000000
       153        51  TIP3  H2           -6.1608764792      -10.9478485165       -4.5704513009  CLST          51          1.0000000000
       154        52  TIP3  OH2           9.1482581785       -5.6124539908       -0.1250913594  CLST          52          1.0000000000
       155        52  TIP3  H1            9.3366700775       -5.5189557125       -1.0990109872  CLST          52          1.0000000000
       156        52  TIP3  H2            9.1297551573       -4.6554412852        0.1012086868  CLST          52          1.0000000000
       157        53  TIP3  OH2          -9.2245920091        9.8425415714      -12.4547530619  CLST          53          1.0000000000
       158        53  TIP3  H1           -9.5924617183        9.9864639715      -13.3090975423  CLST          53          1.0000000000
       159        53  TIP3  H2           -8.4130236327        9.2587798255      -12.5687944730  CLST          53          1.0000000000
       160        54  TIP3  OH2           0.3958395101       -2.9062406025       -9.4986881783  CLST          54          1.0000000000
       161        54  TIP3  H1            1.1289044931       -3.1654603087      -10.0946482913  CLST          54          1.0000000000
       162        54  TIP3  H2           -0.1170599738       -2.3196256849      -10.1305548987  CLST          54          1.0000000000
       163        55  TIP3  OH2           2.9179164020       -4.0500223071      -14.7710698979  CLST          55          1.0000000000
       164        55  TIP3  H1            2.9962079685       -4.9766632590      -14.3853770108  CLST          55          1.0000000000
       165        55  TIP3  H2            3.1303038360       -4.2709478224      -15.6867223740  CLST          55          1.0000000000
       166        56  TIP3  OH2          -9.9833351670       11.0692347598        5.7850620395  CLST          56          1.0000000000
       167        56  TIP3  H1          -10.2021161265       10.2045663658        6.1902354374  CLST          56          1.0000000000
       168        56  TIP3  H2          -10.1569537879       10.9034312533        4.8406251414  CLST          56          1.0000000000
       169        57  TIP3  OH2           1.6261754333      -13.3055748949        0.3843065913  CLST          57          1.0000000000
       170        57  TIP3  H1            1.9641848619      -12.4892782834        0.8335505816  CLST          57          1.0000000000
       171        57  TIP3  H2            2.4067940010      -13.4730622152       -0.1697785226  CLST          57          1.0000000000
       172        58  TIP3  OH2         -13.1219852618       10.5653426697        6.9412958428  CLST          58          1.0000000000
       173        58  TIP3  H1          -12.6442539927       11.3958650520        6.7459920804  CLST          58          1.0000000000
       174        58  TIP3  H2          -12.8280196701       10.4944883604        7.8876448114  CLST          58          1.0000000000
       175        59  TIP3  OH2         -11.6132732969       -2.7019299908        5.5610425814  CLST          59          1.0000000000
       176        59  TIP3  H1          -11.7299095017       -2.2698462754        6.4494195583  CLST          59          1.0000000000
       177        59  TIP3  H2          -11.6945348248       -1.9252588493        4.9452131632  CLST          59          1.0000000000
       178        60  TIP3  OH2           1.3745508685        9.5167145813        8.5330646977  CLST          60          1.0000000000
       179        60  TIP3  H1            0.6661631088        8.9466832635        8.1315531331  CLST          60          1.0000000000
       180        60  TIP3  H2            1.8980196189        8.7081657590        8.8445911603  CLST          60          1.0000000000
       181        61  TIP3  OH2           2.7257515479       -0.7309126720       -5.4770683724  CLST          61          1.0000000000
       182        61  TIP3  H1            3.2527391485       -1.5916324020       -5.4003993904  CLST          61          1.0000000000
       183        61  TIP3  H2            2.0792576089       -1.0080758051       -6.1899094682  CLST          61          1.0000000000
       184        62  TIP3  OH2           7.9956620441        8.4371386765       12.5155270064  CLST          62          1.0000000000
       185        62  TIP3  H1            8.1052675909        7.7236846293       11.8510138181  CLST          62          1.0000000000
       186        62  TIP3  H2            8.2855002426        9.1923097634       11.9618133963  CLST          62          1.0000000000
       187        63  TIP3  OH2           4.5664950307       -7.0264349393      -10.2615008810  CLST          63          1.0000000000
       188        63  TIP3  H1            3.6869728638       -6.9777187357      -10.6700311999  CLST          63          1.0000000000
       189        63  TIP3  H2            5.1224453403       -7.4985098616      -10.9628917056  CLST          63          1.0000000000
       190        64  TIP3  OH2          -2.4026521779       11.7927972000        5.3191696416  CLST          64          1.0000000000
       191        64  TIP3  H1           -2.3572690314       10.7945142457        5.2877813159  CLST          64          1.0000000000
       192        64  TIP3  H2           -1.7951069054       11.8752790904        6.1138916283  CLST          64          1.0000000000
       193        65  TIP3  OH2          10.9682372142       -4.2804803611       -5.3308528333  CLST          65          1.0000000000
       194        65  TIP3  H1           11.1761596904       -4.0154832502       -6.2869804189  CLST          65          1.0000000000
       195        65  TIP3  H2           11.2571210583       -3.3894141095       -4.9949713630  CLST          65          1.0000000000
       196        66  TIP3  OH2           6.3181271015       -9.9177431726        9.3593865217  CLST          66          1.0000000000
       197        66  TIP3  H1            5.6037982810       -9.9304833467        8.6721605690  CLST          66          1.0000000000
       198        66  TIP3  H2            6.8042414788       -9.1476882871        8.9963618949  CLST          66          1.0000000000
       199        67  TIP3  OH2         -11.5684792916       -7.5855912411       -3.9582925685  CLST          67          1.0000000000
       200        67  TIP3  H1          -10.6718576534       -7.3152118076       -4.3058605881  CLST          67          1.0000000000
       201        67  TIP3  H2          -11.9692991631       -8.0832490680       -4.6593768308  CLST          67          1.0000000000
       202        68  TIP3  OH2          -0.6719006874       -5.4801588316        5.3356010513  CLST          68          1.0000000000
       203        68  TIP3  H1            0.3353059627       -5.3993037643        5.5281954838  CLST          68          1.0000000000
       204        68  TIP3  H2           -0.9385985498       -5.4588224263        6.2893513373  CLST          68          1.0000000000
       205        69  TIP3  OH2           7.9884970060       11.5520244802       -8.7252270442  CLST          69          1.0000000000
       206        69  TIP3  H1            8.3505490337       11.2269907334       -9.5874625060  CLST          69          1.0000000000
       207        69  TIP3  H2            8.9361347799       11.6665951851       -8.2871222781  CLST          69          1.0000000000
       208        70  TIP3  OH2          -0.9796390882      -12.4844831386       -0.5531524794  CLST          70          1.0000000000
       209        70  TIP3  H1            0.0081496869      -12.5067720384       -0.5086197235  CLST          70          1.0000000000
       210        70  TIP3  H2           -1.1258331463      -12.6773703094        0.4078975383  CLST          70          1.0000000000
       211        71  TIP3  OH2         -10.2467679980       -7.4252851103        2.0020173481  CLST          71          1.0000000000
       212        71  TIP3  H1          -10.9605019170       -6.8460092770        2.3801431901  CLST          71          1.0000000000
       213        71  TIP3  H2          -10.7034968501       -7.9740918364        1.3314042183  CLST          71          1.0000000000
       214        72  TIP3  OH2           0.1455890298        2.0584377053       -1.4780486786  CLST          72          1.0000000000
       215        72  TIP3  H1           -0.2708084209        1.1458496792       -1.4789684055  CLST          72          1.0000000000
       216        72  TIP3  H2            0.8642420699        1.8367825700       -2.1323984951  CLST          72          1.0000000000
       217        73  TIP3  OH2          -9.7253508546       13.0606914194        7.5081054961  CLST          73          1.0000000000
       218        73  TIP3  H1           -9.8579730643       12.2744723167        6.8687133838  CLST          73          1.0000000000
       219        73  TIP3  H2          -10.1841748689       13.6894707299        6.8172611395  CLST          73          1.0000000000
       220        74  TIP3  OH2           6.4875063180       -2.7943109947       -3.7147647004  CLST          74          1.0000000000
       221        74  TIP3  H1            6.6460478787       -3.7683061839       -3.9014325543  CLST          74          1.0000000000
       222        74  TIP3  H2            7.4192827521       -2.5231450401       -3.4762256377  CLST          74          1.0000000000
       223        75  TIP3  OH2           2.8245515672      -13.3525208107       -6.6528648121  CLST          75          1.0000000000
       224        75  TIP3  H1            3.0893799558      -12.4479914249       -6.3131725150  CLST          75          1.0000000000
       225        75  TIP3  H2            2.8155231612      -13.7946657987       -5.7524205893  CLST          75          1.0000000000
       226        76  TIP3  OH2           4.0133092369       -9.7418695450        1.2646188853  CLST          76          1.0000000000
       227        76  TIP3  H1            3.9199625009       -8.7983543508        1.5082685629  CLST          76          1.0000000000
       228        76  TIP3  H2            3.1802960577      -10.1395616026        1.6720445517  CLST          76          1.0000000000
       229        77  TIP3  OH2          10.2305482752       -8.2737044221       -2.5819192194  CLST          77          1.0000000000
       230        77  TIP3  H1            9.7856329008       -9.1725901457       -2.5892737151  CLST          77          1.0000000000
       231        77  TIP3  H2           10.1779477347       -8.1514145920       -3.6005284438  CLST          77          1.0000000000
       232        78  TIP3  OH2          10.6451366611       11.7083450331       -7.8326473239  CLST          78          1.0000000000
       233        78  TIP3  H1           11.2994144849       11.0371335711       -8.1517735790  CLST          78          1.0000000000
       234        78  TIP3  H2           11.0702167224       12.3432244409       -7.3132981104  CLST          78          1.0000000000
       235        79  TIP3  OH2          12.6910830353        0.5496570851        1.0719865105  CLST          79          1.0000000000
       236        79  TIP3  H1           13.3390764739        0.5656817016        1.7321528933  CLST          79          1.0000000000
       237        79  TIP3  H2           12.1013274385        1.2841920690        1.3678666335  CLST          79          1.0000000000
       238        80  TIP3  OH2          -7.5010932720       -0.0322163042        6.6627548286  CLST          80          1.0000000000
       239        80  TIP3  H1           -7.4053085754       -0.0029458587        5.6823937566  CLST          80          1.0000000000
       240        80  TIP3  H2           -6.5178275727       -0.1788710103        6.8467713608  CLST          80          1.0000000000
       241        81  TIP3  OH2          -7.5046201819      -10.9333711479        2.1575686174  CLST          81          1.0000000000
       242        81  TIP3  H1           -6.6956158822      -11.0623075152        1.6014197466  CLST          81          1.0000000000
       243        81  TIP3  H2           -7.1115024229      -11.0888726995        3.0516651629  CLST          81          1.0000000000
       244        82  TIP3  OH2          -1.6016194898       -9.9588501990       -6.5911420397  CLST          82          1.0000000000
       245        82  TIP3  H1           -2.5903276277       -9.9080811837       -6.5337239013  CLST          82          1.0000000000
       246        82  TIP3  H2           -1.4583096181      -10.7765357794       -6.0715459673  CLST          82          1.0000000000
       247        83  TIP3  OH2          12.3325504065       -8.6230310020        1.5084428286  CLST          83          1.0000000000
       248        83  TIP3  H1           12.6004260816       -7.9685967393        2.2132867622  CLST          83          1.0000000000
       249        83  TIP3  H2           11.3528878875       -8.5250670682        1.6052726674  CLST          83          1.0000000000
       250        84  TIP3  OH2          -3.6785658923       10.9555483331       -2.1911318295  CLST          84          1.0000000000
       251        84  TIP3  H1           -4.5775279920       10.8710587770       -2.6685775451  CLST          84          1.0000000000
       252        84  TIP3  H2           -3.6878771722       11.7874820710       -1.9508110882  CLST          84          1.0000000000
       253        85  TIP3  OH2           5.8736443767       -2.0330678056        0.0234653607  CLST          85          1.0000000000
       254        85  TIP3  H1            5.9075283398       -1.5366132520        0.8748755342  CLST          85          1.0000000000
       255        85  TIP3  H2            6.6674311214       -2.6113912288        0.1439200422  CLST          85          1.0000000000
       256        86  TIP3  OH2           6.6183657034       -8.4576773451        5.7883746396  CLST          86          1.0000000000
       257        86  TIP3  H1            5.8221099911       -8.4973513191        6.3822367303  CLST          86          1.0000000000
       258        86  TIP3  H2            6.5731414999       -7.5147424068        5.5105339616  CLST          86          1.0000000000
       259        87  TIP3  OH2          -1.4194898210       -3.7039550118       10.7452547170  CLST          87          1.0000000000
       260        87  TIP3  H1           -0.7891456543       -3.9887746631       11.4422253223  CLST          87          1.0000000000
       261        87  TIP3  H2           -2.2346231107       -4.2947170958       10.8891368193  CLST          87          1.0000000000
       262        88  TIP3  OH2          -0.8820298922        4.4761923158       -7.9928221856  CLST          88          1.0000000000
       263        88  TIP3  H1           -0.9881856739        3.4918733416       -7.9396904084  CLST          88          1.0000000000
       264        88  TIP3  H2           -1.8171186713        4.6985568343       -8.2355705604  CLST          88          1.0000000000
       265        89  TIP3  OH2           3.5741686440        0.7954775776      -11.6764018929  CLST          89          1.0000000000
       266        89  TIP3  H1            3.6783598601        1.3339804386      -12.4208635921  CLST          89          1.0000000000
       267        89  TIP3  H2            3.5262226842        0.0196273870      -12.2240963931  CLST          89          1.0000000000
       268        90  TIP3  OH2           5.4872229201       11.1369995240       -5.4422087300  CLST          90          1.0000000000
       269        90  TIP3  H1            4.9537315218       12.4012810579       -5.4205917348  CLST          90          1.0000000000
       270        90  TIP3  H2            5.4045716903       11.9496278099       -6.1335979214  CLST          90          1.0000000000
       271        91  TIP3  OH2           5.9334469979       -7.9233127128      -12.2645231123  CLST          91          1.0000000000
       272        91  TIP3  H1            6.2369943620       -8.8975910681      -12.3171441137  CLST          91          1.0000000000
       273        91  TIP3  H2            6.8317838225       -7.4788934938      -12.0887928571  CLST          91          1.0000000000
       274        92  TIP3  OH2           9.8229006653       11.5903529898        2.4082439946  CLST          92          1.0000000000
       275        92  TIP3  H1           10.1373322400       11.5567682696        3.3591948641  CLST          92          1.0000000000
       276        92  TIP3  H2            9.6684896413       12.5673371258        2.3524213356  CLST          92          1.0000000000
       277        93  TIP3  OH2          -8.7847156651        7.2602541733        2.6828473257  CLST          93          1.0000000000
       278        93  TIP3  H1           -8.5680352041        8.0097675261        2.1046328033  CLST          93          1.0000000000
       279        93  TIP3  H2           -7.9040498036        7.0018307778        2.9929841724  CLST          93          1.0000000000
       280        94  TIP3  OH2         -14.1991926285        6.4876936128        6.4788441414  CLST          94          1.0000000000
       281        94  TIP3  H1          -13.4214774351        7.0558372692        6.1871442407  CLST          94          1.0000000000
       282        94  TIP3  H2          -14.4470251848        6.2763040225        5.5471161629  CLST          94          1.0000000000
       283        95  TIP3  OH2           9.8367529496        5.8313474959       -1.7763753598  CLST          95          1.0000000000
       284        95  TIP3  H1            9.9344871517        6.1670026782       -0.8506194756  CLST          95          1.0000000000
       285        95  TIP3  H2           10.3558805074        4.9848337024       -1.6106497336  CLST          95          1.0000000000
       286        96  TIP3  OH2           9.5745398313      -10.9537727813       11.2584987966  CLST          96          1.0000000000
       287        96  TIP3  H1           10.3868083438      -11.2396200019       10.7526658123  CLST          96          1.0000000000
       288        96  TIP3  H2            9.0485781221      -11.7573616629       11.2474425314  CLST          96          1.0000000000
       289        97  TIP3  OH2          -7.7203007955        6.8786844004        8.5676695817  CLST          97          1.0000000000
       290        97  TIP3  H1           -7.3945282483        5.9714647178        8.9388262353  CLST          97          1.0000000000
       291        97  TIP3  H2           -8.6899609316        6.6398921964        8.4587024486  CLST          97          1.0000000000
       292        98  TIP3  OH2           5.8903813064        0.6648505529       -3.4167258338  CLST          98          1.0000000000
       293        98  TIP3  H1            6.6371678728        0.4489110828       -2.7774538383  CLST          98          1.0000000000
       294        98  TIP3  H2            5.2772878594       -0.0022793309       -3.0403832967  CLST          98          1.0000000000
       295        99  TIP3  OH2          -6.8176528690      -11.5157820688        4.7804366229  CLST          99          1.0000000000
       296        99  TIP3  H1           -7.1980206259      -11.1865861317        5.6219293968  CLST          99          1.0000000000
       297        99  TIP3  H2           -6.0046646150      -11.9523753085        5.1626972483  CLST          99          1.0000000000
       298       100  TIP3  OH2           2.4071306742        0.4364037527       -9.1708006886  CLST         100          1.0000000000
       299       100  TIP3  H1            2.8031815125        0.5865043230      -10.0817562421  CLST         100          1.0000000000
       300       100  TIP3  H2            2.4347841332        1.3524338671       -8.8561378980  CLST         100          1.0000000000
       301       101  TIP3  OH2          12.6460328819       -6.9548455113        3.8277521805  CLST         101          1.0000000000
       302       101  TIP3  H1           12.6651251018       -7.4212124309        4.7189439858  CLST         101          1.0000000000
       303       101  TIP3  H2           13.2827462286       -6.3213935467        3.9641544929  CLST         101          1.0000000000
       304       102  TIP3  OH2         -12.2497841116       10.3767730748        1.3424629497  CLST         102          1.0000000000
       305       102  TIP3  H1          -12.9158915898       10.1957118274        2.0973707109  CLST         102          1.0000000000
       306       102  TIP3  H2          -12.6568516776        9.7272214256        0.7335292620  CLST         102          1.0000000000
       307       103  TIP3  OH2          -0.6979649283       -9.3535236241        7.7336794099  CLST         103          1.0000000000
       308       103  TIP3  H1           -0.0812844467       -9.5253263180        8.5148726363  CLST         103          1.0000000000
       309       103  TIP3  H2           -1.3323018750      -10.0928410952        7.8811197524  CLST         103          1.0000000000
       310       104  TIP3  OH2          -4.3573519426      -12.0370769134       10.0464318810  CLST         104          1.0000000000
       311       104  TIP3  H1           -4.9591910916      -11.6338432925       10.7417307643  CLST         104          1.0000000000
       312       104  TIP3  H2           -4.9753359676      -12.5414677553        9.5056672602  CLST         104          1.0000000000
       313       105  TIP3  OH2          -5.1588987990       10.6386156928      -11.5517530590  CLST         105          1.0000000000
       314       105  TIP3  H1           -4.7184175110       11.1471874237      -12.2777114880  CLST         105          1.0000000000
       315       105  TIP3  H2           -5.8311647141       10.1148732443      -12.0165290609  CLST         105          1.0000000000
       316       106  TIP3  OH2           7.4257759891       -8.1098398512       -1.4626452833  CLST         106          1.0000000000
       317       106  TIP3  H1            8.2925378660       -7.7099029275       -1.6524461188  CLST         106          1.0000000000
       318       106  TIP3  H2            7.6873412397       -9.0531905051       -1.5165020005  CLST         106          1.0000000000
       319       107  TIP3  OH2          -8.3971718444       -4.7906462257        5.1244413888  CLST         107          1.0000000000
       320       107  TIP3  H1           -9.1169630666       -4.3833655272        4.5941295363  CLST         107          1.0000000000
       321       107  TIP3  H2           -7.5579783364       -4.3611402397        4.7736886249  CLST         107          1.0000000000
       322       108  TIP3  OH2         -10.5032623704        2.0906981102        9.5148513238  CLST         108          1.0000000000
       323       108  TIP3  H1           -9.5634874207        1.8137471167        9.3920184518  CLST         108          1.0000000000
       324       108  TIP3  H2          -10.8595662262        1.2512112831       10.0055514654  CLST         108          1.0000000000
       325       109  TIP3  OH2           2.4205505406        7.0638781187        8.8425050556  CLST         109          1.0000000000
       326       109  TIP3  H1            1.6262795561        6.6047744634        9.1680557621  CLST         109          1.0000000000
       327       109  TIP3  H2            3.1445118879        6.3773054358        8.8635053384  CLST         109          1.0000000000
       328       110  TIP3  OH2           1.5464828648       12.3450222221      -11.1181676011  CLST         110          1.0000000000
       329       110  TIP3  H1            1.9519134101       13.1185953392      -11.0358512050  CLST         110          1.0000000000
       330       110  TIP3  H2            1.2709977298       12.0935613590      -10.1696093371  CLST         110          1.0000000000
       331       111  TIP3  OH2          11.7161021423      -11.6927536698        9.4899744657  CLST         111          1.0000000000
       332       111  TIP3  H1           12.6360064823      -11.9245741222        9.6092061353  CLST         111          1.0000000000
       333       111  TIP3  H2           11.4794719633      -12.3474176977        8.8028159850  CLST         111          1.0000000000
       334       112  TIP3  OH2           6.3848261131       -0.0263817532        1.8278086488  CLST         112          1.0000000000
       335       112  TIP3  H1            6.8577523963        0.8632003447        1.9077831919  CLST         112          1.0000000000
       336       112  TIP3  H2            6.4018473098       -0.2818932886        2.7878176077  CLST         112          1.0000000000
       337       113  TIP3  OH2         -12.8558226368        1.0714152837        0.0493367007  CLST         113          1.0000000000
       338       113  TIP3  H1          -13.4503599528        0.2514363646       -0.0899994161  CLST         113          1.0000000000
       339       113  TIP3  H2          -12.3071485274        0.9401069942       -0.7708783572  CLST         113          1.0000000000
       340       114  TIP3  OH2         -13.8712214304        3.5931966113       -0.2672362901  CLST         114          1.0000000000
       341       114  TIP3  H1          -13.7191120051        2.6334222857       -0.1170189225  CLST         114          1.0000000000
       342       114  TIP3  H2          -13.4598180804        3.6375020812       -1.1831908451  CLST         114          1.0000000000
       343       115  TIP3  OH2          -8.9880759033        0.2972176030      -10.8489459484  CLST         115          1.0000000000
       344       115  TIP3  H1           -8.2807459911        0.7692127027      -11.3405169023  CLST         115          1.0000000000
       345       115  TIP3  H2           -9.5502186990        1.0901945923      -10.7999993912  CLST         115          1.0000000000
       346       116  TIP3  OH2           6.8659795861       -5.6648844680        2.2173459533  CLST         116          1.0000000000
       347       116  TIP3  H1            7.3933369051       -5.9775094640        1.4626628086  CLST         116          1.0000000000
       348       116  TIP3  H2            7.0705573507       -4.6955295444        2.1984539749  CLST         116          1.0000000000
       349       117  TIP3  OH2          -0.7585103510        0.0490292914       12.5214109230  CLST         117          1.0000000000
       350       117  TIP3  H1            0.0687123085       -0.4812269548       12.6617635329  CLST         117          1.0000000000
       351       117  TIP3  H2           -0.8331168064        0.5046774086       13.3630140360  CLST         117          1.0000000000
       352       118  TIP3  OH2           0.2110453184       -9.6138157688        5.1024305861  CLST         118          1.0000000000
       353       118  TIP3  H1           -0.2096637485       -9.2978063986        5.9332601455  CLST         118          1.0000000000
       354       118  TIP3  H2           -0.1083699628       -8.9184159416        4.4584194699  CLST         118          1.0000000000
       355       119  TIP3  OH2          -9.2143035664      -10.4671140915       -8.8850374806  CLST         119          1.0000000000
       356       119  TIP3  H1           -9.3768735469      -10.9645130201       -9.8754289221  CLST         119          1.0000000000
       357       119  TIP3  H2           -8.9680701012       -9.6133644741       -9.1613274321  CLST         119          1.0000000000
       358       120  TIP3  OH2           9.5498873374       -7.8954341540        1.3147330347  CLST         120          1.0000000000
       359       120  TIP3  H1            8.7747586810       -8.5220096905        1.2753126895  CLST         120          1.0000000000
       360       120  TIP3  H2            9.3027676287       -7.1883846971        0.6533571583  CLST         120          1.0000000000
       361       121  TIP3  OH2          -5.6460813587       -0.2098104037       -8.1706824223  CLST         121          1.0000000000
       362       121  TIP3  H1           -5.6461440450        0.0348144126       -9.1272382000  CLST         121          1.0000000000
       363       121  TIP3  H2           -4.9391562342       -0.9213391281       -8.1764914665  CLST         121          1.0000000000
       364       122  TIP3  OH2          10.3380305092       11.9740679882        5.2053779268  CLST         122          1.0000000000
       365       122  TIP3  H1            9.4059811115       12.3320207843        5.3667925984  CLST         122          1.0000000000
       366       122  TIP3  H2           10.8237422036       12.4512203737        5.8896971219  CLST         122          1.0000000000
       367       123  TIP3  OH2          -7.4722874008       -5.5553761727      -11.2280669153  CLST         123          1.0000000000
       368       123  TIP3  H1           -6.8085509692       -6.1760579550      -11.5698909365  CLST         123          1.0000000000
       369       123  TIP3  H2           -7.1357851452       -5.4119381026      -10.3250954343  CLST         123          1.0000000000
       370       124  TIP3  OH2          -6.0283715573       -8.6578927378      -10.7306135924  CLST         124          1.0000000000
       371       124  TIP3  H1           -5.2973010852       -8.9784708263      -10.1236298138  CLST         124          1.0000000000
       372       124  TIP3  H2           -6.6832009426       -8.3473232323      -10.0207336545  CLST         124          1.0000000000
       373       125  TIP3  OH2         -13.3721418054        4.0873357780        8.1290704643  CLST         125          1.0000000000
       374       125  TIP3  H1          -12.9722078473        3.4274534063        7.5321602854  CLST         125          1.0000000000
       375       125  TIP3  H2          -13.7008066500        4.7965656037        7.5420476702  CLST         125          1.0000000000
       376       126  TIP3  OH2          -6.9949368401      -10.7694621577      -12.0610667953  CLST         126          1.0000000000
       377       126  TIP3  H1           -6.0720737551      -11.2530291280      -11.9042247334  CLST         126          1.0000000000
       378       126  TIP3  H2           -6.6986148880       -9.7614338817      -11.7327752255  CLST         126          1.0000000000
       379       127  TIP3  OH2          -7.5716371426      -11.6361720396       -7.1582653345  CLST         127          1.0000000000
       380       127  TIP3  H1           -8.1665049388      -12.3567259124       -7.0147362322  CLST         127          1.0000000000
       381       127  TIP3  H2           -8.0585676711      -11.1965913884       -7.9469875336  CLST         127          1.0000000000
       382       128  TIP3  OH2           9.9582945041        0.8223484370       -2.4626600236  CLST         128          1.0000000000
       383       128  TIP3  H1            9.0716739822        0.5125035671       -2.1246790322  CLST         128          1.0000000000
       384       128  TIP3  H2            9.6189418933        1.5979509704       -3.0150097913  CLST         128          1.0000000000
       385       129  TIP3  OH2          -7.7608135898        9.4969767166        1.0215296312  CLST         129          1.0000000000
       386       129  TIP3  H1           -6.9565781856        9.9873006407        1.4178477803  CLST         129          1.0000000000
       387       129  TIP3  H2           -7.1909131919        8.8553735662        0.4978328109  CLST         129          1.0000000000
       388       130  TIP3  OH2          -4.0990619945        3.9981333163       10.0366600529  CLST         130          1.0000000000
       389       130  TIP3  H1           -3.6216923379        4.8708419195       10.1363171866  CLST         130          1.0000000000
       390       130  TIP3  H2           -3.7281797090        3.4762673827       10.8214460760  CLST         130          1.0000000000
       391       131  TIP3  OH2           7.8042455176       -3.7218680781       -9.8689652176  CLST         131          1.0000000000
       392       131  TIP3  H1            7.7597297038       -2.9082943080       -9.2538154151  CLST         131          1.0000000000
       393       131  TIP3  H2            6.8205326641       -3.9043619451       -9.7974519132  CLST         131          1.0000000000
       394       132  TIP3  OH2         -11.4210450897       11.3744126932       12.2093583948  CLST         132          1.0000000000
       395       132  TIP3  H1          -10.9509615861       12.0623021726       11.6137359183  CLST         132          1.0000000000
       396       132  TIP3  H2          -11.9753539690       11.7344645839       12.7514505058  CLST         132          1.0000000000
       397       133  TIP3  OH2          10.3560089487        9.3930813149        8.6554674501  CLST         133          1.0000000000
       398       133  TIP3  H1           10.3998527476        9.0722761836        9.5933639095  CLST         133          1.0000000000
       399       133  TIP3  H2           11.2929924434        9.7442360234        8.6709663083  CLST         133          1.0000000000
       400       134  TIP3  OH2          -7.6617333455        5.7781174854       -6.0004168236  CLST         134          1.0000000000
       401       134  TIP3  H1           -8.6178819814        5.9644384838       -5.9117374521  CLST         134          1.0000000000
       402       134  TIP3  H2           -7.4131486089        5.8367375302       -5.0395303016  CLST         134          1.0000000000
       403       135  TIP3  OH2          10.7471594311      -11.1600475557      -13.1164154878  CLST         135          1.0000000000
       404       135  TIP3  H1           10.8596337564      -10.2674887530      -12.5843902821  CLST         135          1.0000000000
       405       135  TIP3  H2           11.2219019488      -11.0855305193      -13.8134697848  CLST         135          1.0000000000
       406       136  TIP3  OH2          -4.3015241441        1.8585249879       -7.0545774102  CLST         136          1.0000000000
       407       136  TIP3  H1           -4.8323885143        1.0370772830       -7.3715430053  CLST         136          1.0000000000
       408       136  TIP3  H2           -5.0866121463        2.3696304988       -6.7098572341  CLST         136          1.0000000000
       409       137  TIP3  OH2          12.8842969223       10.3505254779        9.1717846577  CLST         137          1.0000000000
       410       137  TIP3  H1           13.1459002286       10.2909309415       10.1053920654  CLST         137          1.0000000000
       411       137  TIP3  H2           13.4383194919        9.6289885843        8.8101442325  CLST         137          1.0000000000
       412       138  TIP3  OH2          -0.7618751689       -9.8581666936        1.5400463142  CLST         138          1.0000000000
       413       138  TIP3  H1           -0.9008636465       -9.2247762397        0.8050354901  CLST         138          1.0000000000
       414       138  TIP3  H2           -0.8272556440       -9.2257654497        2.3016991126  CLST         138          1.0000000000
       415       139  TIP3  OH2          -9.6173859089      -10.7606277757        4.5373259016  CLST         139          1.0000000000
       416       139  TIP3  H1          -10.1431650909      -10.7450485795        3.7118461932  CLST         139          1.0000000000
       417       139  TIP3  H2           -8.9096899378      -11.3716751919        4.2980709610  CLST         139          1.0000000000
       418       140  TIP3  OH2          -7.0322698091        3.4781942098       -0.3151742605  CLST         140          1.0000000000
       419       140  TIP3  H1           -6.2004287193        3.9286537443       -0.0558273076  CLST         140          1.0000000000
       420       140  TIP3  H2           -7.6525499392        4.2186626191       -0.5211339157  CLST         140          1.0000000000
       421       141  TIP3  OH2           2.0729467057       -4.4139219863       -3.5691872528  CLST         141          1.0000000000
       422       141  TIP3  H1            1.7673407960       -3.5123618554       -3.2720639519  CLST         141          1.0000000000
       423       141  TIP3  H2            2.7644362103       -4.0471888717       -4.1687989053  CLST         141          1.0000000000
       424       142  TIP3  OH2         -11.7060152091       -0.0046951557        4.7004016879  CLST         142          1.0000000000
       425       142  TIP3  H1          -11.5091550686        0.6501029811        5.3963823119  CLST         142          1.0000000000
       426       142  TIP3  H2          -12.4555642305        0.3837811434        4.2423688710  CLST         142          1.0000000000
       427       143  TIP3  OH2           9.3999444249       -5.7395856193       -8.2205533026  CLST         143          1.0000000000
       428       143  TIP3  H1            9.5699943032       -5.0864754664       -8.9153815924  CLST         143          1.0000000000
       429       143  TIP3  H2           10.0556707165       -6.4662622291       -8.3923482198  CLST         143          1.0000000000
       430       144  TIP3  OH2           3.2797549886       -2.8538707815        9.0512710759  CLST         144          1.0000000000
       431       144  TIP3  H1            2.4022087625       -2.4420556837        9.3396621212  CLST         144          1.0000000000
       432       144  TIP3  H2            3.6524914115       -2.0338879442        8.6416520583  CLST         144          1.0000000000
       433       145  TIP3  OH2         -10.3079907523       13.4283146263        3.1554728028  CLST         145          1.0000000000
       434       145  TIP3  H1          -10.6869148277       13.5567550477        2.2327043976  CLST         145          1.0000000000
       435       145  TIP3  H2          -10.1618856843       12.4554164965        3.0214317034  CLST         145          1.0000000000
       436       146  TIP3  OH2           9.1913874942        2.7428513795       -4.2520361097  CLST         146          1.0000000000
       437       146  TIP3  H1            9.0887219605        3.7633239270       -4.2431022439  CLST         146          1.0000000000
       438       146  TIP3  H2            8.4737937269        2.5965937833       -4.9112691898  CLST         146          1.0000000000
       439       147  TIP3  OH2         -11.0915501009       -0.3312542642       -4.1858832219  CLST         147          1.0000000000
       440       147  TIP3  H1          -10.1597722618       -0.6243140937       -4.3909454088  CLST         147          1.0000000000
       441       147  TIP3  H2          -11.4721529997       -0.7076913540       -5.0340391261  CLST         147          1.0000000000
       442       148  TIP3  OH2          -7.9619376377        1.3247311528        8.8973070029  CLST         148          1.0000000000
       443       148  TIP3  H1           -7.8560508202        0.9308543279        7.9869411891  CLST         148          1.0000000000
       444       148  TIP3  H2           -6.9742968333        1.5799268626        8.9441358382  CLST         148          1.0000000000
       445       149  TIP3  OH2           8.6319487075       -2.8864415897        0.7437576317  CLST         149          1.0000000000
       446       149  TIP3  H1            9.2534621112       -2.0842052542        0.5731081429  CLST         149          1.0000000000
       447       149  TIP3  H2            8.4952380122       -2.7646212275        1.6929634939  CLST         149          1.0000000000
       448       150  TIP3  OH2          -2.0989316969      -11.5301755004        8.4939401414  CLST         150          1.0000000000
       449       150  TIP3  H1           -2.9282878616      -11.6032475474        9.0351202273  CLST         150          1.0000000000
       450       150  TIP3  H2           -1.4677479194      -11.9232877468        9.1909545264  CLST         150          1.0000000000
       451       151  TIP3  OH2          -9.1888467522       -6.5853243128       -4.9884183689  CLST         151          1.0000000000
       452       151  TIP3  H1           -8.2674005826       -6.5981880984       -4.5774961240  CLST         151          1.0000000000
       453       151  TIP3  H2           -9.0573751935       -7.4140088097       -5.5321429919  CLST         151          1.0000000000
       454       152  TIP3  OH2           4.0763892143       -2.0128761990        5.0766262701  CLST         152          1.0000000000
       455       152  TIP3  H1            4.5269899656       -2.8384903018        5.3593064220  CLST         152          1.0000000000
       456       152  TIP3  H2            3.6842473336       -2.3674483319        4.2316816980  CLST         152          1.0000000000
       457       153  TIP3  OH2          -2.6791108504        4.8561615170      -14.1941996752  CLST         153          1.0000000000
       458       153  TIP3  H1           -1.7294264797        5.0847166256      -14.0573076635  CLST         153          1.0000000000
       459       153  TIP3  H2           -2.7027036759        4.3551796846      -13.3665993557  CLST         153          1.0000000000
       460       154  TIP3  OH2           4.4957787311       -6.9141401631        2.1566843160  CLST         154          1.0000000000
       461       154  TIP3  H1            5.4133835347       -6.5009412207        2.1526661713  CLST         154          1.0000000000
       462       154  TIP3  H2            4.0324954150       -6.3665730368        1.4962271658  CLST         154          1.0000000000
       463       155  TIP3  OH2           9.4287596052       -2.7307904556       10.1985171320  CLST         155          1.0000000000
       464       155  TIP3  H1            8.6543698335       -3.1559474056        9.7076507497  CLST         155          1.0000000000
       465       155  TIP3  H2            9.9056708036       -3.4369318183       10.5464823953  CLST         155          1.0000000000
       466       156  TIP3  OH2          -2.0840253068       11.3392125076       11.6054991075  CLST         156          1.0000000000
       467       156  TIP3  H1           -2.8807016923       11.8956532230       11.6678097272  CLST         156          1.0000000000
       468       156  TIP3  H2           -2.5311949288       10.4951210629       11.7855129513  CLST         156          1.0000000000
       469       157  TIP3  OH2           3.8654299906       -0.7755944592        7.3885387216  CLST         157          1.0000000000
       470       157  TIP3  H1            4.8474032694       -0.7026645616        7.5408453998  CLST         157          1.0000000000
       471       157  TIP3  H2            3.8599326737       -1.3018699400        6.5338427637  CLST         157          1.0000000000
       472       158  TIP3  OH2          10.6200329101        9.0263836596       13.2494531801  CLST         158          1.0000000000
       473       158  TIP3  H1            9.7456278611        8.6467948435       13.4730857852  CLST         158          1.0000000000
       474       158  TIP3  H2           10.2617653093        9.6821823323       12.5919570620  CLST         158          1.0000000000
       475       159  TIP3  OH2           0.4851750135      -12.1385169859        4.3012253843  CLST         159          1.0000000000
       476       159  TIP3  H1           -0.2693871438      -12.3613915913        4.9456798537  CLST         159          1.0000000000
       477       159  TIP3  H2            0.4721678921      -11.1758427213        4.6202740395  CLST         159          1.0000000000
       478       160  TIP3  OH2           7.2408156621       -3.5644164145        8.5084901839  CLST         160          1.0000000000
       479       160  TIP3  H1            6.7446189116       -3.7751593175        7.6387374650  CLST         160          1.0000000000
       480       160  TIP3  H2            6.9056394944       -2.5958013994        8.4778633456  CLST         160          1.0000000000
       481       161  TIP3  OH2          -2.4507401721       -2.3349238047        7.8114718641  CLST         161          1.0000000000
       482       161  TIP3  H1           -2.1848772078       -1.6450955710        8.4747893393  CLST         161          1.0000000000
       483       161  TIP3  H2           -3.3176056490       -2.5367205477        8.2410874530  CLST         161          1.0000000000
       484       162  TIP3  OH2          -0.7034064871        3.6022347697      -10.6959095344  CLST         162          1.0000000000
       485       162  TIP3  H1           -0.5537538543        4.1606183714      -11.4974412813  CLST         162          1.0000000000
       486       162  TIP3  H2           -0.5515617611        4.2288174555       -9.9624350489  CLST         162          1.0000000000
       487       163  TIP3  OH2         -10.1150660404        9.1353913562       11.2346542542  CLST         163          1.0000000000
       488       163  TIP3  H1          -10.7453451220        8.3545196297       11.3157657024  CLST         163          1.0000000000
       489       163  TIP3  H2          -10.5618086581        9.8751844878       11.7371414103  CLST         163          1.0000000000
       490       164  TIP3  OH2           3.9771902325      -10.4842953984       13.0529722784  CLST         164          1.0000000000
       491       164  TIP3  H1            4.6430281120       -9.8168525664       12.7280199677  CLST         164          1.0000000000
       492       164  TIP3  H2            4.6878533992      -11.1941519650       13.0817570901  CLST         164          1.0000000000
       493       165  TIP3  OH2         -12.0160332477       -5.5367341700        3.5940703622  CLST         165          1.0000000000
       494       165  TIP3  H1          -11.8056914908       -5.6367086682        4.5850132919  CLST         165          1.0000000000
       495       165  TIP3  H2          -12.9237093299       -5.3425727744        3.6589768067  CLST         165          1.0000000000
       496       166  TIP3  OH2          -1.4520130330       -6.3584355378      -10.3921281035  CLST         166          1.0000000000
       497       166  TIP3  H1           -0.5054632612       -6.6029405751      -10.4354601501  CLST         166          1.0000000000
       498       166  TIP3  H2           -1.8925891370       -7.2123909492      -10.4710399090  CLST         166          1.0000000000
       499       167  TIP3  OH2           8.0365117778       10.6114906503       -0.8327024844  CLST         167          1.0000000000
       500       167  TIP3  H1            8.5743226734       10.2181949627       -0.0757797825  CLST         167          1.0000000000
       501       167  TIP3  H2            8.3563274598        9.9781545472       -1.5230432695  CLST         167          1.0000000000
       502       168  TIP3  OH2          -0.6239615840      -13.3777942690        2.0772420084  CLST         168          1.0000000000
       503       168  TIP3  H1           -0.1602828072      -13.0124825037        2.8939833421  CLST         168          1.0000000000
       504       168  TIP3  H2            0.1834624283      -13.7360006592        1.6168471951  CLST         168          1.0000000000
       505       169  TIP3  OH2           5.0656143031        4.1133279552        3.3220943500  CLST         169          1.0000000000
       506       169  TIP3  H1            4.2169298025        3.6208986677        3.4157952033  CLST         169          1.0000000000
       507       169  TIP3  H2            4.9345952369        4.5892705393        2.4565683025  CLST         169          1.0000000000
       508       170  TIP3  OH2          -1.1560909210        4.2553380381        1.4953878832  CLST         170          1.0000000000
       509       170  TIP3  H1           -1.8757506380        4.9171027708        1.4479490781  CLST         170          1.0000000000
       510       170  TIP3  H2           -1.5224295925        3.3693745840        1.4862330470  CLST         170          1.0000000000
       511       171  TIP3  OH2          -3.0237944138        1.2659366718        7.3710677038  CLST         171          1.0000000000
       512       171  TIP3  H1           -2.5187359647        0.8486171032        6.6372901201  CLST         171          1.0000000000
       513       171  TIP3  H2           -2.2594370658        1.6595154850        7.8689117249  CLST         171          1.0000000000
       514       172  TIP3  OH2          -6.4075209341      -13.0993958608        8.1061253812  CLST         172          1.0000000000
       515       172  TIP3  H1           -6.7714612812      -13.9080408846        7.8483411385  CLST         172          1.0000000000
       516       172  TIP3  H2           -5.7655330085      -12.8550694781        7.3565170716  CLST         172          1.0000000000
       517       173  TIP3  OH2          10.3222758806      -12.5794459557        1.8998446646  CLST         173          1.0000000000
       518       173  TIP3  H1           10.4865232236      -12.8418626517        0.1896742067  CLST         173          1.0000000000
       519       173  TIP3  H2            9.2167488384      -12.3118691584        1.2151704228  CLST         173          1.0000000000
       520       174  TIP3  OH2           0.0349294305        5.4795573241        9.7393530505  CLST         174          1.0000000000
       521       174  TIP3  H1           -0.2347409852        4.7924981941       10.4020960954  CLST         174          1.0000000000
       522       174  TIP3  H2           -0.7448411895        6.0703683143        9.7938384801  CLST         174          1.0000000000
       523       175  TIP3  OH2          -5.6587241926       10.4042221435       -3.7017390297  CLST         175          1.0000000000
       524       175  TIP3  H1           -5.2235489301       10.0847984606       -4.5216195515  CLST         175          1.0000000000
       525       175  TIP3  H2           -6.5653849822       10.1929827211       -4.0638628250  CLST         175          1.0000000000
       526       176  TIP3  OH2           6.7276282395        9.1441903103       -7.7466372291  CLST         176          1.0000000000
       527       176  TIP3  H1            7.1514815749       10.0774440263       -8.0046128472  CLST         176          1.0000000000
       528       176  TIP3  H2            6.3092596409        9.5326261078       -6.9002273339  CLST         176          1.0000000000
       529       177  TIP3  OH2          -3.8063115061      -11.3556574589       -1.4819139386  CLST         177          1.0000000000
       530       177  TIP3  H1           -3.1080641149      -11.9472975907       -1.1782856219  CLST         177          1.0000000000
       531       177  TIP3  H2           -4.3833839217      -11.2465315096       -0.6433371604  CLST         177          1.0000000000
       532       178  TIP3  OH2          10.8402894318       -8.9615318383      -11.5582992595  CLST         178          1.0000000000
       533       178  TIP3  H1           11.1408173373       -8.7873463975      -10.6464738551  CLST         178          1.0000000000
       534       178  TIP3  H2           10.7623173460       -8.0055385701      -11.8034620906  CLST         178          1.0000000000
       535       179  TIP3  OH2           6.4197041196       -0.9736883651        8.3283608798  CLST         179          1.0000000000
       536       179  TIP3  H1            6.2307652698       -0.3278931212        9.0685109219  CLST         179          1.0000000000
       537       179  TIP3  H2            6.9982844280       -0.3960628749        7.7729406198  CLST         179          1.0000000000
       538       180  TIP3  OH2          -7.5608650223        8.1105446598        6.0241697783  CLST         180          1.0000000000
       539       180  TIP3  H1           -7.4290648235        8.0643195251        7.0037023342  CLST         180          1.0000000000
       540       180  TIP3  H2           -8.5283910155        8.2550495059        6.0807558604  CLST         180          1.0000000000
       541       181  TIP3  OH2           6.0022018774      -13.0308599113       -0.2641525842  CLST         181          1.0000000000
       542       181  TIP3  H1            6.7881917554      -12.9602487788       -0.7933677500  CLST         181          1.0000000000
       543       181  TIP3  H2            6.3629765686      -13.0313988192        0.6998410450  CLST         181          1.0000000000
       544       182  TIP3  OH2          -1.7335016912       10.4884933736      -10.3369851527  CLST         182          1.0000000000
       545       182  TIP3  H1           -1.0996767780       10.9518534751       -9.7500497151  CLST         182          1.0000000000
       546       182  TIP3  H2           -2.5347353260       10.3990434620       -9.7658745033  CLST         182          1.0000000000
       547       183  TIP3  OH2          -5.5238029877        3.6489151680      -12.4134399087  CLST         183          1.0000000000
       548       183  TIP3  H1           -5.2008511380        3.5677972764      -11.4827165087  CLST         183          1.0000000000
       549       183  TIP3  H2           -6.3958415515        3.1444998398      -12.3352324573  CLST         183          1.0000000000
       550       184  TIP3  OH2           2.9468181803        8.3051374888       -2.5119090479  CLST         184          1.0000000000
       551       184  TIP3  H1            3.2524072777        7.6650371008       -1.8231905505  CLST         184          1.0000000000
       552       184  TIP3  H2            1.9715336804        8.0498843358       -2.4369920341  CLST         184          1.0000000000
       553       185  TIP3  OH2           7.4046377872        4.7153363548       12.1220181164  CLST         185          1.0000000000
       554       185  TIP3  H1            7.7247196802        3.7434128119       12.0999551179  CLST         185          1.0000000000
       555       185  TIP3  H2            6.8940300126        4.7702143283       12.9696749547  CLST         185          1.0000000000
       556       186  TIP3  OH2           3.7622472828        5.9374699016       -5.1211464075  CLST         186          1.0000000000
       557       186  TIP3  H1            3.8793949758        6.9214940462       -5.0392549532  CLST         186          1.0000000000
       558       186  TIP3  H2            3.9368639876        5.8157360270       -6.0734130480  CLST         186          1.0000000000
       559       187  TIP3  OH2           3.9813337358        1.6179747038       -5.5558121609  CLST         187          1.0000000000
       560       187  TIP3  H1            4.1109571087        1.6925926706       -4.5740410299  CLST         187          1.0000000000
       561       187  TIP3  H2            3.5807025173        0.6936726257       -5.5683839837  CLST         187          1.0000000000
       562       188  TIP3  OH2          -4.5593086218       -1.6064928281        4.8910496633  CLST         188          1.0000000000
       563       188  TIP3  H1           -4.6949122466       -0.8074521117        4.3285592366  CLST         188          1.0000000000
       564       188  TIP3  H2           -4.7356826139       -1.2035846896        5.7941409346  CLST         188          1.0000000000
       565       189  TIP3  OH2          -5.0295034169        3.5945222400      -15.0715618979  CLST         189          1.0000000000
       566       189  TIP3  H1           -5.1506682460        3.2991324196      -14.1406811469  CLST         189          1.0000000000
       567       189  TIP3  H2           -4.1923330257        4.0720837144      -14.9310669209  CLST         189          1.0000000000
       568       190  TIP3  OH2           7.2512431636       -5.6981997249        5.2008869955  CLST         190          1.0000000000
       569       190  TIP3  H1            7.1907429036       -5.5135393706        4.2338572561  CLST         190          1.0000000000
       570       190  TIP3  H2            8.2174402517       -5.8013480821        5.2642961742  CLST         190          1.0000000000
       571       191  TIP3  OH2         -10.9676855300       -4.9248442015       -6.5578227945  CLST         191          1.0000000000
       572       191  TIP3  H1          -10.3930507059       -4.5814839761       -7.2700161945  CLST         191          1.0000000000
       573       191  TIP3  H2          -10.2843762821       -5.4085415353       -6.0356853871  CLST         191          1.0000000000
       574       192  TIP3  OH2           8.8127396192       14.1898581765        1.9896854317  CLST         192          1.0000000000
       575       192  TIP3  H1            8.2341356964       14.5006404995        2.6786912123  CLST         192          1.0000000000
       576       192  TIP3  H2            9.3394329187       14.9344399758        1.7161885560  CLST         192          1.0000000000
       577       193  TIP3  OH2           6.0842018929      -12.0836657444       11.8119771247  CLST         193          1.0000000000
       578       193  TIP3  H1            6.8100698660      -12.7066463640       11.6190599084  CLST         193          1.0000000000
       579       193  TIP3  H2            6.1113581723      -11.4316978132       11.1042145218  CLST         193          1.0000000000
       580       194  TIP3  OH2          -6.2867456926       -4.4555060367       11.0702235390  CLST         194          1.0000000000
       581       194  TIP3  H1           -6.7938089518       -4.3670443950       11.8218504089  CLST         194          1.0000000000
       582       194  TIP3  H2           -7.0212657777       -4.5620136525       10.3771259083  CLST         194          1.0000000000
       583       195  TIP3  OH2          -7.6079463932        9.2024076583       10.3123620664  CLST         195          1.0000000000
       584       195  TIP3  H1           -8.5576491110        9.1077871224       10.5985471021  CLST         195          1.0000000000
       585       195  TIP3  H2           -7.5061661643        8.2959776462        9.9372068849  CLST         195          1.0000000000
       586       196  TIP3  OH2           6.0868033160      -12.2209373271       -6.0953721663  CLST         196          1.0000000000
       587       196  TIP3  H1            6.4646268070      -11.4162537791       -6.5224038516  CLST         196          1.0000000000
       588       196  TIP3  H2            5.2680756520      -11.7807160497       -5.7685634220  CLST         196          1.0000000000
       589       197  TIP3  OH2           2.1624939327       -9.1588312926       -2.8806530013  CLST         197          1.0000000000
       590       197  TIP3  H1            1.9624747689       -8.2129755969       -2.5802688926  CLST         197          1.0000000000
       591       197  TIP3  H2            3.0301715099       -9.1710479307       -2.4566966385  CLST         197          1.0000000000
       592       198  TIP3  OH2          10.8251360991        1.9286502049        4.8918730533  CLST         198          1.0000000000
       593       198  TIP3  H1            9.8760205635        1.7591924645        5.0158344477  CLST         198          1.0000000000
       594       198  TIP3  H2           10.7174928310        2.8087164044        4.4384006993  CLST         198          1.0000000000
       595       199  TIP3  OH2          -0.0221882556        8.3452538707       -5.8775965756  CLST         199          1.0000000000
       596       199  TIP3  H1           -0.9007891269        8.6114192000       -5.5037308332  CLST         199          1.0000000000
       597       199  TIP3  H2           -0.1029952425        7.3769978226       -5.7260470450  CLST         199          1.0000000000
       598       200  TIP3  OH2          -7.5290854574       11.8285452221       10.8838718779  CLST         200          1.0000000000
       599       200  TIP3  H1           -7.5724731452       10.8737129502       10.5399168449  CLST         200          1.0000000000
       600       200  TIP3  H2           -7.1752904921       12.1986271084       10.0210120844  CLST         200          1.0000000000
       601       201  TIP3  OH2           4.5362560401        0.9662409697       -0.1318217717  CLST         201          1.0000000000
       602       201  TIP3  H1            3.9066422531        1.2122989177        0.5695166295  CLST         201          1.0000000000
       603       201  TIP3  H2            5.1976581220        0.5131733044        0.4601114688  CLST         201          1.0000000000
       604       202  TIP3  OH2          -2.0957665144       -4.3176011905      -12.3273614453  CLST         202          1.0000000000
       605       202  TIP3  H1           -1.8434375860       -4.9302567033      -11.6098437629  CLST         202          1.0000000000
       606       202  TIP3  H2           -2.4858697564       -3.5714374217      -11.8443591925  CLST         202          1.0000000000
       607       203  TIP3  OH2          -0.7131444800       11.4478273087        7.4517377399  CLST         203          1.0000000000
       608       203  TIP3  H1            0.1163261134       11.1144444515        7.8741676305  CLST         203          1.0000000000
       609       203  TIP3  H2           -1.3508841731       10.9988648948        8.0677101363  CLST         203          1.0000000000
       610       204  TIP3  OH2          -5.4297093071        6.4188770312      -13.1583820462  CLST         204          1.0000000000
       611       204  TIP3  H1           -4.7701631864        6.3172322226      -13.8865266749  CLST         204          1.0000000000
       612       204  TIP3  H2           -5.5709539424        5.4475170228      -12.9942501493  CLST         204          1.0000000000
       613       205  TIP3  OH2          -2.3015294170        7.3090724389       -2.5911188761  CLST         205          1.0000000000
       614       205  TIP3  H1           -2.2236894736        7.9642176762       -3.3486395552  CLST         205          1.0000000000
       615       205  TIP3  H2           -1.3270397244        7.0800325938       -2.5185671992  CLST         205          1.0000000000
       616       206  TIP3  OH2           5.0362177295      -11.0792292730       -9.7672462409  CLST         206          1.0000000000
       617       206  TIP3  H1            4.9176824395      -12.0341611331       -9.4529926912  CLST         206          1.0000000000
       618       206  TIP3  H2            5.7930005159      -10.8126027175       -9.1883047544  CLST         206          1.0000000000
       619       207  TIP3  OH2          12.9589797126       10.0798985719       12.3021054423  CLST         207          1.0000000000
       620       207  TIP3  H1           12.2247677978        9.6337270400       12.7549466206  CLST         207          1.0000000000
       621       207  TIP3  H2           13.2822526429       10.3564230561       13.0237738666  CLST         207          1.0000000000
       622       208  TIP3  OH2         -11.6190737560        2.2378475519        6.8083449263  CLST         208          1.0000000000
       623       208  TIP3  H1          -11.2250062198        2.1440824383        7.6973221080  CLST         208          1.0000000000
       624       208  TIP3  H2          -11.2509568562        3.1000197728        6.4898781744  CLST         208          1.0000000000
       625       209  TIP3  OH2           4.5516853353       -9.1918241310        7.3289766608  CLST         209          1.0000000000
       626       209  TIP3  H1            4.1413990308       -9.4474301672        6.4514901142  CLST         209          1.0000000000
       627       209  TIP3  H2            3.7626651811       -8.6384891521        7.5561025711  CLST         209          1.0000000000
       628       210  TIP3  OH2          12.1590412123      -11.2502564674        5.2396206971  CLST         210          1.0000000000
       629       210  TIP3  H1           12.4493101094      -11.2724151258        4.2235655946  CLST         210          1.0000000000
       630       210  TIP3  H2           12.3293013897      -10.2979256246        5.4659495919  CLST         210          1.0000000000
       631       211  TIP3  OH2          -0.2848401163       -9.2631947040       12.1643108907  CLST         211          1.0000000000
       632       211  TIP3  H1            0.1688587614       -9.8365916855       12.8287681233  CLST         211          1.0000000000
       633       211  TIP3  H2           -1.1284226223       -9.7786415077       12.1223270683  CLST         211          1.0000000000
       634       212  TIP3  OH2         -12.3494727008        3.4416481899       -2.4191822430  CLST         212          1.0000000000
       635       212  TIP3  H1          -11.7609432374        4.0647071791       -2.9107965121  CLST         212          1.0000000000
       636       212  TIP3  H2          -11.7856504858        2.6406647125       -2.3092478275  CLST         212          1.0000000000
       637       213  TIP3  OH2          -9.3470105275      -11.4658781981      -11.4659471874  CLST         213          1.0000000000
       638       213  TIP3  H1           -8.7655733172      -11.4107222479      -12.3862107248  CLST         213          1.0000000000
       639       213  TIP3  H2           -8.0933894609      -11.1312871817      -11.4777240811  CLST         213          1.0000000000
       640       214  TIP3  OH2          -6.5348421564        2.2225593011       -5.4372290920  CLST         214          1.0000000000
       641       214  TIP3  H1           -6.3072966094        1.3695966641       -4.9970432009  CLST         214          1.0000000000
       642       214  TIP3  H2           -7.2128697103        2.5445795951       -4.7662591482  CLST         214          1.0000000000
       643       215  TIP3  OH2         -11.8175710415      -12.7775172522        5.6433098228  CLST         215          1.0000000000
       644       215  TIP3  H1          -10.9418025828      -12.3614331573        5.6136348435  CLST         215          1.0000000000
       645       215  TIP3  H2          -11.7932021716      -12.9818303755        4.6617477758  CLST         215          1.0000000000
       646       216  TIP3  OH2         -11.7860704441       -2.2326509855        8.1737623677  CLST         216          1.0000000000
       647       216  TIP3  H1          -10.8162860949       -1.9671053418        8.2372952459  CLST         216          1.0000000000
       648       216  TIP3  H2          -11.6516891540       -3.1885718653        8.3786533000  CLST         216          1.0000000000
       649       217  TIP3  OH2           7.7021968645       -0.3138258322       -1.5810324406  CLST         217          1.0000000000
       650       217  TIP3  H1            8.0153032396       -1.1062283288       -2.0713218481  CLST         217          1.0000000000
       651       217  TIP3  H2            7.0986645332       -0.7351274394       -0.9194358372  CLST         217          1.0000000000
       652       218  TIP3  OH2          -8.2183110314       -4.0595475910        9.2122834125  CLST         218          1.0000000000
       653       218  TIP3  H1           -8.4637368499       -3.1321515138        8.9588837334  CLST         218          1.0000000000
       654       218  TIP3  H2           -7.7393080107       -4.2855045249        8.3922767855  CLST         218          1.0000000000
       655       219  TIP3  OH2         -12.5867020526       -4.5655545304       -2.6991754450  CLST         219          1.0000000000
       656       219  TIP3  H1          -12.6295849272       -3.5683845913       -2.6690331956  CLST         219          1.0000000000
       657       219  TIP3  H2          -12.9455458430       -4.6299669400       -3.6209063099  CLST         219          1.0000000000
       658       220  TIP3  OH2           6.3695158037        6.7245929089        7.6260308936  CLST         220          1.0000000000
       659       220  TIP3  H1            5.8774777264        6.7274933322        6.7484479340  CLST         220          1.0000000000
       660       220  TIP3  H2            5.6578534630        6.1649993336        8.0573969678  CLST         220          1.0000000000
       661       221  TIP3  OH2         -10.4496403141       -7.0589269575       10.1789485157  CLST         221          1.0000000000
       662       221  TIP3  H1           -9.5100268722       -7.0797760300       10.2110079103  CLST         221          1.0000000000
       663       221  TIP3  H2          -10.6152056505       -8.0000347399        9.8707545196  CLST         221          1.0000000000
       664       222  TIP3  OH2          -6.9050666821       -0.8846111630      -13.7651928460  CLST         222          1.0000000000
       665       222  TIP3  H1           -6.4232877511       -1.7718910395      -13.5236626821  CLST         222          1.0000000000
       666       222  TIP3  H2           -7.7954417558       -1.2880196005      -13.7761087594  CLST         222          1.0000000000
       667       223  TIP3  OH2           2.7585903190      -10.8067293141      -11.6754838452  CLST         223          1.0000000000
       668       223  TIP3  H1            2.1535634742      -11.6029795682      -11.4586187406  CLST         223          1.0000000000
       669       223  TIP3  H2            3.5410589533      -11.0159983146      -11.1539123481  CLST         223          1.0000000000
       670       224  TIP3  OH2           7.4917304046        4.6191357624        0.5822716799  CLST         224          1.0000000000
       671       224  TIP3  H1            8.1795052356        5.3018911035        0.5110539985  CLST         224          1.0000000000
       672       224  TIP3  H2            7.4209784661        4.1630816042       -0.3035089798  CLST         224          1.0000000000
       673       225  TIP3  OH2          -0.2269553641        4.6872905245       -1.2028610581  CLST         225          1.0000000000
       674       225  TIP3  H1           -0.4273947606        4.6176463363       -0.2387255717  CLST         225          1.0000000000
       675       225  TIP3  H2           -0.2161109777        3.6845280616       -1.3683751503  CLST         225          1.0000000000
       676       226  TIP3  OH2          -5.7992301393       -4.4357064073        7.6921429931  CLST         226          1.0000000000
       677       226  TIP3  H1           -5.6923306318       -5.4183807617        7.8438237601  CLST         226          1.0000000000
       678       226  TIP3  H2           -5.7181608455       -4.3741128782        6.7312089464  CLST         226          1.0000000000
       679       227  TIP3  OH2          11.6842697727       -4.1263825047       -9.9151167878  CLST         227          1.0000000000
       680       227  TIP3  H1           11.6966774791       -3.5874618887       -9.0439932480  CLST         227          1.0000000000
       681       227  TIP3  H2           11.2697909693       -3.4072791603      -10.4377165024  CLST         227          1.0000000000
       682       228  TIP3  OH2           3.4928430456       12.4273053428        3.2693866234  CLST         228          1.0000000000
       683       228  TIP3  H1            2.7001415148       12.0281874060        3.7821323370  CLST         228          1.0000000000
       684       228  TIP3  H2            3.1770171331       12.5756503041        2.4975677142  CLST         228          1.0000000000
       685       229  TIP3  OH2         -11.4717853856      -13.0574640907        2.8578065166  CLST         229          1.0000000000
       686       229  TIP3  H1          -11.6758706090      -13.5450811639        2.1992216666  CLST         229          1.0000000000
       687       229  TIP3  H2          -11.1627769852      -12.2021681398        2.4200606505  CLST         229          1.0000000000
       688       230  TIP3  OH2          12.3486692891        6.3336814186       -3.3759368539  CLST         230          1.0000000000
       689       230  TIP3  H1           13.2687461893        6.1502743776       -3.1118320471  CLST         230          1.0000000000
       690       230  TIP3  H2           12.0868514371        5.3796342918       -3.3200975108  CLST         230          1.0000000000
       691       231  TIP3  OH2           7.1599062629        3.2980472445        4.7493592632  CLST         231          1.0000000000
       692       231  TIP3  H1            7.5868887207        4.1981032017        4.9069316967  CLST         231          1.0000000000
       693       231  TIP3  H2            6.3233205228        3.6595278006        4.3703312475  CLST         231          1.0000000000
       694       232  TIP3  OH2         -10.4109624361        8.8727043995        7.4037306688  CLST         232          1.0000000000
       695       232  TIP3  H1          -10.8210940539        9.3822433351        8.1459390634  CLST         232          1.0000000000
       696       232  TIP3  H2          -10.3084382582        8.0011843510        7.8666080402  CLST         232          1.0000000000
       697       233  TIP3  OH2           3.6860911135       -5.2685423800        8.1125648642  CLST         233          1.0000000000
       698       233  TIP3  H1            4.2920384213       -5.6674843613        8.7885962241  CLST         233          1.0000000000
       699       233  TIP3  H2            3.5136749907       -4.3624546680        8.5433650712  CLST         233          1.0000000000
       700       234  TIP3  OH2          -3.6357367336        8.5297213012       -0.6668892773  CLST         234          1.0000000000
       701       234  TIP3  H1           -3.0594551620        8.2458848153       -1.4527898768  CLST         234          1.0000000000
       702       234  TIP3  H2           -3.6654073877        9.4962832605       -0.8739588763  CLST         234          1.0000000000
       703       235  TIP3  OH2          -1.9143137821       -4.0060045171       -8.9734349287  CLST         235          1.0000000000
       704       235  TIP3  H1           -1.8521036453       -4.9228126723       -9.3485144447  CLST         235          1.0000000000
       705       235  TIP3  H2           -0.9482472837       -3.7596958724       -9.0093107562  CLST         235          1.0000000000
       706       236  TIP3  OH2          -0.2562582853      -13.5527534621       -3.0825980920  CLST         236          1.0000000000
       707       236  TIP3  H1            0.3416391096      -12.8534438694       -2.7070688768  CLST         236          1.0000000000
       708       236  TIP3  H2           -0.8521577136      -13.5700420238       -2.3181475274  CLST         236          1.0000000000
       709       237  TIP3  OH2          -3.5974442567       -5.1235598178       10.9268617142  CLST         237          1.0000000000
       710       237  TIP3  H1           -4.5130499258       -4.7880898129       11.1049856222  CLST         237          1.0000000000
       711       237  TIP3  H2           -3.8960924760       -5.7597047023       10.2350741968  CLST         237          1.0000000000
       712       238  TIP3  OH2           0.6597083636        4.7150546907        7.2302866015  CLST         238          1.0000000000
       713       238  TIP3  H1           -0.0413006564        5.2270326270        6.7331462993  CLST         238          1.0000000000
       714       238  TIP3  H2            0.4860683299        5.0184038730        8.1666585826  CLST         238          1.0000000000
       715       239  TIP3  OH2         -14.0742648682        5.9917206368        3.6055118840  CLST         239          1.0000000000
       716       239  TIP3  H1          -14.2299596810        6.4502371012        2.7574648731  CLST         239          1.0000000000
       717       239  TIP3  H2          -13.5199368148        5.2665607849        3.2431501415  CLST         239          1.0000000000
       718       240  TIP3  OH2         -13.9512855029        8.8970738724       -0.3230834271  CLST         240          1.0000000000
       719       240  TIP3  H1          -14.6613176350        9.1636151200        0.2727979699  CLST         240          1.0000000000
       720       240  TIP3  H2          -13.8232668154        7.9450176787        0.0047790738  CLST         240          1.0000000000
       721       241  TIP3  OH2          -7.6162511367       -7.8397643669       -8.6524923742  CLST         241          1.0000000000
       722       241  TIP3  H1           -7.8938293040       -8.1058852751       -7.7398478361  CLST         241          1.0000000000
       723       241  TIP3  H2           -7.5655459869       -6.8504915710       -8.5342371514  CLST         241          1.0000000000
       724       242  TIP3  OH2           6.0797567393       -5.7105946150        9.7557062932  CLST         242          1.0000000000
       725       242  TIP3  H1            6.4716231775       -4.8553255674        9.4145309988  CLST         242          1.0000000000
       726       242  TIP3  H2            6.8357051404       -6.3165196182        9.4627933025  CLST         242          1.0000000000
       727       243  TIP3  OH2          -6.6632647139       -7.1569772426       -4.2211666148  CLST         243          1.0000000000
       728       243  TIP3  H1           -6.5364124003       -7.9070063199       -4.8438289731  CLST         243          1.0000000000
       729       243  TIP3  H2           -6.5420128057       -7.7005140986       -3.3828787771  CLST         243          1.0000000000
       730       244  TIP3  OH2           4.8648348605        5.8636895905        5.4037014079  CLST         244          1.0000000000
       731       244  TIP3  H1            5.0643904807        5.4468479521        4.5214808764  CLST         244          1.0000000000
       732       244  TIP3  H2            4.1112631271        5.2540248424        5.6254239566  CLST         244          1.0000000000
       733       245  TIP3  OH2          -7.0740690962        3.6705392138       -7.6946560786  CLST         245          1.0000000000
       734       245  TIP3  H1           -7.0485028888        3.0074052431       -6.9498892101  CLST         245          1.0000000000
       735       245  TIP3  H2           -7.2883360810        4.4498391221       -7.0871354109  CLST         245          1.0000000000
       736       246  TIP3  OH2           2.1827346429       -6.5812556538       -1.9580503270  CLST         246          1.0000000000
       737       246  TIP3  H1            1.9656346579       -5.8534777407       -2.5975982145  CLST         246          1.0000000000
       738       246  TIP3  H2            3.1909863197       -6.5674865425       -2.0574796253  CLST         246          1.0000000000
       739       247  TIP3  OH2           6.0026357812        7.9951250045        0.6524688801  CLST         247          1.0000000000
       740       247  TIP3  H1            6.5094736331        7.7989754266       -0.1716680119  CLST         247          1.0000000000
       741       247  TIP3  H2            5.5087350951        8.7943337399        0.3762859623  CLST         247          1.0000000000
       742       248  TIP3  OH2          -2.4297721379        8.3481224154      -11.8555800854  CLST         248          1.0000000000
       743       248  TIP3  H1           -2.3457683081        8.8871899578      -12.6494919695  CLST         248          1.0000000000
       744       248  TIP3  H2           -1.9711449122        8.9726537607      -11.2466964856  CLST         248          1.0000000000
       745       249  TIP3  OH2           8.8865990151        4.7334554739       -7.6640506989  CLST         249          1.0000000000
       746       249  TIP3  H1            8.2028366609        5.4477380711       -7.5123529590  CLST         249          1.0000000000
       747       249  TIP3  H2            8.4740736363        3.9984892576       -7.1855598910  CLST         249          1.0000000000
       748       250  TIP3  OH2          -7.5915779414        9.7366637524       -5.4873995557  CLST         250          1.0000000000
       749       250  TIP3  H1           -7.9305352338        8.9860039940       -5.9913418111  CLST         250          1.0000000000
       750       250  TIP3  H2           -7.5547447902       10.4212460862       -6.2056261312  CLST         250          1.0000000000
       751       251  TIP3  OH2          -3.6498671687       12.3075342901        2.9762926983  CLST         251          1.0000000000
       752       251  TIP3  H1           -3.1102855477       12.8116939904        2.5156732812  CLST         251          1.0000000000
       753       251  TIP3  H2           -3.0878490154       12.1421520522        3.7961263800  CLST         251          1.0000000000
       754       252  TIP3  OH2           5.9837485880        5.3189742731       14.5206885756  CLST         252          1.0000000000
       755       252  TIP3  H1            5.8180431435        6.2808483108       14.3827575321  CLST         252          1.0000000000
       756       252  TIP3  H2            5.6140811883        5.1342791118       15.3252339545  CLST         252          1.0000000000
       757       253  TIP3  OH2           6.1542559883       13.9313236002        3.2999653521  CLST         253          1.0000000000
       758       253  TIP3  H1            5.2561700547       13.5532147068        3.4405335175  CLST         253          1.0000000000
       759       253  TIP3  H2            6.3140725030       13.6011214150        2.4050780323  CLST         253          1.0000000000
       760       254  TIP3  OH2          -4.1697991505        8.0868184081        3.0491042721  CLST         254          1.0000000000
       761       254  TIP3  H1           -4.6223789849        8.6796728954        2.4099416288  CLST         254          1.0000000000
       762       254  TIP3  H2           -4.8659335339        7.5379408993        3.4195806740  CLST         254          1.0000000000
       763       255  TIP3  OH2          -6.9894944942       10.5068803888        4.2580881698  CLST         255          1.0000000000
       764       255  TIP3  H1           -7.9152985680       10.8594908070        4.2002686866  CLST         255          1.0000000000
       765       255  TIP3  H2           -7.1333173433        9.7648854656        4.8848723843  CLST         255          1.0000000000
       766       256  TIP3  OH2          11.4844914188        3.7872653025       -1.3719985479  CLST         256          1.0000000000
       767       256  TIP3  H1           11.9724949977        2.9957074786       -1.7241083199  CLST         256          1.0000000000
       768       256  TIP3  H2           11.3335902527        3.4568871768       -0.4609162160  CLST         256          1.0000000000
       769       257  TIP3  OH2          -8.6000929971       -1.2007713912       -5.0253002605  CLST         257          1.0000000000
       770       257  TIP3  H1           -7.7360874279       -0.8689302794       -4.6716790220  CLST         257          1.0000000000
       771       257  TIP3  H2           -8.4954599249       -1.0289586195       -5.9888425107  CLST         257          1.0000000000
       772       258  TIP3  OH2          -5.3163945265       10.2158855500        7.9035872496  CLST         258          1.0000000000
       773       258  TIP3  H1           -5.1526259769       10.7488672650        7.0636557070  CLST         258          1.0000000000
       774       258  TIP3  H2           -6.0602188548       10.7839949122        8.2287619760  CLST         258          1.0000000000
       775       259  TIP3  OH2          10.1105798956        6.1129104689        0.9045423712  CLST         259          1.0000000000
       776       259  TIP3  H1           11.0120423092        6.5068461198        0.8083037605  CLST         259          1.0000000000
       777       259  TIP3  H2            9.9036803677        6.5838869077        1.7354975130  CLST         259          1.0000000000
       778       260  TIP3  OH2          -5.0233151124        7.7815887943        8.8997533965  CLST         260          1.0000000000
       779       260  TIP3  H1           -5.0840537299        8.6839420265        8.5113984408  CLST         260          1.0000000000
       780       260  TIP3  H2           -5.8301367897        7.3728958598        8.5459073693  CLST         260          1.0000000000
       781       261  TIP3  OH2           0.8338457931       -4.3453985547       12.4844979632  CLST         261          1.0000000000
       782       261  TIP3  H1            0.3272656795       -5.2672427352       12.5550728432  CLST         261          1.0000000000
       783       261  TIP3  H2            1.6064506549       -4.6418653340       12.9913674902  CLST         261          1.0000000000
       784       262  TIP3  OH2         -11.0134892005        4.7323454981        6.0129053982  CLST         262          1.0000000000
       785       262  TIP3  H1          -10.1761301973        4.6246584324        5.4468906554  CLST         262          1.0000000000
       786       262  TIP3  H2          -11.5904215331        5.0151739571        5.2769752445  CLST         262          1.0000000000
       787       263  TIP3  OH2           1.8086664845        1.0145539260        6.7227353021  CLST         263          1.0000000000
       788       263  TIP3  H1            2.4053844035        1.7656431849        6.5911024232  CLST         263          1.0000000000
       789       263  TIP3  H2            2.3882136787        0.2784004728        6.9727150663  CLST         263          1.0000000000
       790       264  TIP3  OH2           5.2120008985       -4.4005119094       -9.6590457104  CLST         264          1.0000000000
       791       264  TIP3  H1            5.2580014703       -5.3673286984       -9.9482606855  CLST         264          1.0000000000
       792       264  TIP3  H2            4.3694114450       -4.2092576548      -10.1674210353  CLST         264          1.0000000000
       793       265  TIP3  OH2           7.6410748619        4.9471728738      -10.2732294224  CLST         265          1.0000000000
       794       265  TIP3  H1            7.6863224251        5.9185758714      -10.3896165619  CLST         265          1.0000000000
       795       265  TIP3  H2            8.3729497975        4.8079308012       -9.6387066609  CLST         265          1.0000000000
       796       266  TIP3  OH2          -8.0108766264       -8.8151217296       -0.0164374488  CLST         266          1.0000000000
       797       266  TIP3  H1           -7.7283814496       -9.1780371833        0.8374559426  CLST         266          1.0000000000
       798       266  TIP3  H2           -8.1865263841       -7.8431645254        0.1207829668  CLST         266          1.0000000000
       799       267  TIP3  OH2           1.2021323533        2.5800292769       -5.2144374101  CLST         267          1.0000000000
       800       267  TIP3  H1            1.2893356906        3.4362069942       -4.7187255842  CLST         267          1.0000000000
       801       267  TIP3  H2            2.1145924250        2.2273351274       -5.1312002913  CLST         267          1.0000000000
       802       268  TIP3  OH2           5.1660341952       -4.5234005015       -6.9468262825  CLST         268          1.0000000000
       803       268  TIP3  H1            5.1953934054       -4.2776383246       -7.9105339758  CLST         268          1.0000000000
       804       268  TIP3  H2            4.8702710960       -5.4621396010       -7.0631613337  CLST         268          1.0000000000
       805       269  TIP3  OH2           5.5098200122       10.7035850582       -0.1439048556  CLST         269          1.0000000000
       806       269  TIP3  H1            6.4350562406       10.5986557758       -0.5605319986  CLST         269          1.0000000000
       807       269  TIP3  H2            5.7495490726       11.5582148641        0.3122087649  CLST         269          1.0000000000
       808       270  TIP3  OH2           1.2873063377        9.3529100407       -7.9604371320  CLST         270          1.0000000000
       809       270  TIP3  H1            1.1939669173        8.5404346879       -8.4835577486  CLST         270          1.0000000000
       810       270  TIP3  H2            0.8433978844        9.0107957470       -7.1080491372  CLST         270          1.0000000000
       811       271  TIP3  OH2          -6.4806032464       -9.1035150108       -2.2172355172  CLST         271          1.0000000000
       812       271  TIP3  H1           -5.6561214165       -9.0967475815       -1.6980386024  CLST         271          1.0000000000
       813       271  TIP3  H2           -7.1114469282       -9.0460636473       -1.4338977654  CLST         271          1.0000000000
       814       272  TIP3  OH2           9.4496096407       -8.2135834109        5.7993134146  CLST         272          1.0000000000
       815       272  TIP3  H1            8.4771420845       -8.3786417919        5.8841827984  CLST         272          1.0000000000
       816       272  TIP3  H2            9.4594871564       -7.6372735494        4.9895612141  CLST         272          1.0000000000
       817       273  TIP3  OH2         -13.9325453399        9.3321936500        3.1942028771  CLST         273          1.0000000000
       818       273  TIP3  H1          -14.5482634495        9.6459180212        3.9576555467  CLST         273          1.0000000000
       819       273  TIP3  H2          -13.4014403485        8.7428631558        3.8002436432  CLST         273          1.0000000000
       820       274  TIP3  OH2           4.3000684872       12.9688878277       -4.2745319042  CLST         274          1.0000000000
       821       274  TIP3  H1            3.6719448528       11.8858330940       -2.1210876766  CLST         274          1.0000000000
       822       274  TIP3  H2            3.9529984789       13.4123570287       -3.3406575388  CLST         274          1.0000000000
       823       275  TIP3  OH2           8.7835890113      -11.2214733277        5.9407031234  CLST         275          1.0000000000
       824       275  TIP3  H1            9.4165839127      -10.4790909384        5.8322123796  CLST         275          1.0000000000
       825       275  TIP3  H2            9.3303986988      -11.9582764019        5.5203862766  CLST         275          1.0000000000
       826       276  TIP3  OH2          -0.2427215579       -5.8511034255        1.3807593410  CLST         276          1.0000000000
       827       276  TIP3  H1           -0.9873236671       -6.1030293697        0.6634148882  CLST         276          1.0000000000
       828       276  TIP3  H2           -0.7786365176       -5.1397031738        1.9292768504  CLST         276          1.0000000000
       829       277  TIP3  OH2           6.4842343417        6.4328891378       -6.9581385428  CLST         277          1.0000000000
       830       277  TIP3  H1            5.6763599545        6.1567275867       -7.4337788497  CLST         277          1.0000000000
       831       277  TIP3  H2            6.6394858246        7.2955851267       -7.3943622887  CLST         277          1.0000000000
       832       278  TIP3  OH2          -0.7222097749       -7.5723120421        3.4226800322  CLST         278          1.0000000000
       833       278  TIP3  H1           -0.4712782894       -6.9740197138        2.6317704160  CLST         278          1.0000000000
       834       278  TIP3  H2           -0.9567867235       -6.8358373305        4.0543353032  CLST         278          1.0000000000
       835       279  TIP3  OH2         -13.5311855484        6.4129389157        0.4758786077  CLST         279          1.0000000000
       836       279  TIP3  H1          -13.6388178296        5.4705633587        0.2149597476  CLST         279          1.0000000000
       837       279  TIP3  H2          -12.6046904074        6.4409441442        0.7797712156  CLST         279          1.0000000000
       838       280  TIP3  OH2          -3.3107918872      -10.0795392477        5.4667138929  CLST         280          1.0000000000
       839       280  TIP3  H1           -3.6883520415       -9.1646801152        5.6200359724  CLST         280          1.0000000000
       840       280  TIP3  H2           -3.5436505430      -10.0385300671        4.4917799810  CLST         280          1.0000000000
       841       281  TIP3  OH2           8.0860240472        7.7863906765      -10.7647976227  CLST         281          1.0000000000
       842       281  TIP3  H1            8.4667272264        8.6881537633      -10.6289532839  CLST         281          1.0000000000
       843       281  TIP3  H2            7.1088063334        8.0004392012      -10.7446711362  CLST         281          1.0000000000
       844       282  TIP3  OH2          -7.7304278919      -11.9089914092       10.0021418761  CLST         282          1.0000000000
       845       282  TIP3  H1           -8.5374526733      -11.6469299069        9.5702665041  CLST         282          1.0000000000
       846       282  TIP3  H2           -7.2620147754      -12.3616879715        9.2458755122  CLST         282          1.0000000000
       847       283  TIP3  OH2           4.5149596079        8.6204887389       -4.6724858338  CLST         283          1.0000000000
       848       283  TIP3  H1            4.6509881793        9.6266789091       -4.8469006669  CLST         283          1.0000000000
       849       283  TIP3  H2            3.8660568496        8.6083396814       -3.8909458671  CLST         283          1.0000000000
       850       284  TIP3  OH2          11.9510911452        8.3569195493       -1.3709450517  CLST         284          1.0000000000
       851       284  TIP3  H1           11.8609251018        7.5425074733       -1.9217660471  CLST         284          1.0000000000
       852       284  TIP3  H2           11.1341368433        8.8245782195       -1.6649380360  CLST         284          1.0000000000
       853       285  TIP3  OH2          -5.3753622290        2.0534398212        8.8233172224  CLST         285          1.0000000000
       854       285  TIP3  H1           -4.6960966057        1.8923953316        8.1267175580  CLST         285          1.0000000000
       855       285  TIP3  H2           -4.8344353442        2.7263304505        9.3468269212  CLST         285          1.0000000000
       856       286  TIP3  OH2           2.9529865712        5.8201722723       -0.5828915168  CLST         286          1.0000000000
       857       286  TIP3  H1            2.0884625617        5.5762601204       -0.2007756903  CLST         286          1.0000000000
       858       286  TIP3  H2            3.5581724130        5.5986758548        0.1889576851  CLST         286          1.0000000000
       859       287  TIP3  OH2          -4.2559825665        9.2978146047       11.2021137589  CLST         287          1.0000000000
       860       287  TIP3  H1           -4.7111768047       10.0549785111       11.6249575472  CLST         287          1.0000000000
       861       287  TIP3  H2           -4.9992961929        8.8446910238       10.7493250071  CLST         287          1.0000000000
       862       288  TIP3  OH2           5.6685631801        3.5220451225       -9.5154476405  CLST         288          1.0000000000
       863       288  TIP3  H1            5.6225990851        2.7503834850      -10.0199886701  CLST         288          1.0000000000
       864       288  TIP3  H2            6.4588863900        4.0628006372       -9.9506196558  CLST         288          1.0000000000
       865       289  TIP3  OH2          -7.1353515476       -5.1655858835       -8.3116977463  CLST         289          1.0000000000
       866       289  TIP3  H1           -7.8749265261       -4.4948702838       -8.2283866915  CLST         289          1.0000000000
       867       289  TIP3  H2           -6.4495515507       -4.9159492207       -7.8407560913  CLST         289          1.0000000000
       868       290  TIP3  OH2           2.1422845340      -12.0204614785       11.1059111195  CLST         290          1.0000000000
       869       290  TIP3  H1            2.9434967701      -12.5937315951       11.1293834225  CLST         290          1.0000000000
       870       290  TIP3  H2            2.4653662232      -11.4433453376       11.8255122377  CLST         290          1.0000000000
       871       291  TIP3  OH2         -10.2784537734       -3.5478989872        2.8501272488  CLST         291          1.0000000000
       872       291  TIP3  H1          -10.9252056758       -4.2057629297        3.2308833777  CLST         291          1.0000000000
       873       291  TIP3  H2          -10.4412716303       -3.7858039166        1.9345662037  CLST         291          1.0000000000
       874       292  TIP3  OH2          12.1442032127        3.4563432025       -4.6429146698  CLST         292          1.0000000000
       875       292  TIP3  H1           11.2466657987        3.0810489765       -4.5404283722  CLST         292          1.0000000000
       876       292  TIP3  H2           11.9709850750        4.1613525298       -5.3113140898  CLST         292          1.0000000000
       877       293  TIP3  OH2           9.0632930701       10.6432934802       11.1175142913  CLST         293          1.0000000000
       878       293  TIP3  H1            8.7790609785       11.5031892421       11.4742604513  CLST         293          1.0000000000
       879       293  TIP3  H2            9.2701030570       11.0090680637       10.2134904941  CLST         293          1.0000000000
       880       294  TIP3  OH2           4.2600544802        4.5049318318       -2.4403687049  CLST         294          1.0000000000
       881       294  TIP3  H1            3.7895776035        5.1274393260       -1.8013439633  CLST         294          1.0000000000
       882       294  TIP3  H2            4.4027600693        5.1132684617       -3.2045172874  CLST         294          1.0000000000
       883       295  TIP3  OH2          -2.4166955959      -13.4283532126       -8.7004054484  CLST         295          1.0000000000
       884       295  TIP3  H1           -3.1191260460      -13.3839516855       -8.0303020500  CLST         295          1.0000000000
       885       295  TIP3  H2           -1.6616243690      -13.6557348720       -8.1235024009  CLST         295          1.0000000000
       886       296  TIP3  OH2          -1.5670600431       11.4508376715      -13.0144058988  CLST         296          1.0000000000
       887       296  TIP3  H1           -0.6083933000       11.1812873370      -13.1058583396  CLST         296          1.0000000000
       888       296  TIP3  H2           -1.6213797489       11.2206365823      -12.0486683992  CLST         296          1.0000000000
       889       297  TIP3  OH2           8.0693869071       -0.5180673498       11.4539176877  CLST         297          1.0000000000
       890       297  TIP3  H1            8.6394456110       -1.2476108952       11.0789884202  CLST         297          1.0000000000
       891       297  TIP3  H2            7.2516109769       -1.0789002330       11.5619486433  CLST         297          1.0000000000
       892       298  TIP3  OH2           1.0210081162       -1.2226412708       -7.5321174334  CLST         298          1.0000000000
       893       298  TIP3  H1            1.4395187576       -0.5558108217       -8.1666698006  CLST         298          1.0000000000
       894       298  TIP3  H2            0.8285371110       -1.9007250188       -8.2756278412  CLST         298          1.0000000000
       895       299  TIP3  OH2           2.9582430950       10.1474032152       12.8589184383  CLST         299          1.0000000000
       896       299  TIP3  H1            2.3123797892       10.6453185791       12.3200918365  CLST         299          1.0000000000
       897       299  TIP3  H2            2.2643130969        9.5262129006       13.0711393967  CLST         299          1.0000000000
       898       300  TIP3  OH2         -10.7529077253        5.2075640514       -3.7621451053  CLST         300          1.0000000000
       899       300  TIP3  H1          -10.8487130557        5.6165945078       -4.6483717436  CLST         300          1.0000000000
       900       300  TIP3  H2          -10.7594115546        6.0880397580       -3.2812612805  CLST         300          1.0000000000
       901       301  TIP3  OH2           9.5970796993       -8.2942750632       11.2436455092  CLST         301          1.0000000000
       902       301  TIP3  H1            9.3093047243       -7.8639341568       12.1023506314  CLST         301          1.0000000000
       903       301  TIP3  H2            9.5332458257       -9.2704117249       11.5031714770  CLST         301          1.0000000000
       904       302  TIP3  OH2           7.8347964709       12.8357703744        5.4459444638  CLST         302          1.0000000000
       905       302  TIP3  H1            7.2789964556       13.3755202415        4.8387379284  CLST         302          1.0000000000
       906       302  TIP3  H2            7.0989392650       12.2624156425        5.7466881914  CLST         302          1.0000000000
       907       303  TIP3  OH2         -10.9880951581        1.2463155803       -2.0484059208  CLST         303          1.0000000000
       908       303  TIP3  H1          -10.0873771518        1.0130963974       -1.7468136422  CLST         303          1.0000000000
       909       303  TIP3  H2          -11.0817935604        0.6820287086       -2.8674087744  CLST         303          1.0000000000
       910       304  TIP3  OH2          -8.0615695912        1.0791174760      -15.0199140905  CLST         304          1.0000000000
       911       304  TIP3  H1           -7.5348391518        0.3407264150      -14.5327798018  CLST         304          1.0000000000
       912       304  TIP3  H2           -7.4016486582        1.3629073670      -15.6583047859  CLST         304          1.0000000000
       913       305  TIP3  OH2           3.4830287245       -3.9555247449       13.9501736535  CLST         305          1.0000000000
       914       305  TIP3  H1            4.4171212103       -3.9918965093       13.7311535128  CLST         305          1.0000000000
       915       305  TIP3  H2            3.3619459526       -3.0322458889       13.6667329947  CLST         305          1.0000000000
       916       306  TIP3  OH2           8.8673553249      -11.8725432018      -11.3233412929  CLST         306          1.0000000000
       917       306  TIP3  H1            9.5420031028      -11.7389523254      -12.0915143430  CLST         306          1.0000000000
       918       306  TIP3  H2            9.1098710077      -12.6120289805      -10.9698141017  CLST         306          1.0000000000
       919       307  TIP3  OH2           9.3534385998        7.9250919437       -7.4976079001  CLST         307          1.0000000000
       920       307  TIP3  H1            8.4506639976        8.3134177517       -7.5695563539  CLST         307          1.0000000000
       921       307  TIP3  H2            9.6978883692        8.2914839551       -6.6696154108  CLST         307          1.0000000000
       922       308  TIP3  OH2         -10.9105685409       -4.7541408348        8.8649799374  CLST         308          1.0000000000
       923       308  TIP3  H1          -11.0082994742       -5.5773221862        9.4380278305  CLST         308          1.0000000000
       924       308  TIP3  H2           -9.9686414809       -4.5403959398        9.1184882247  CLST         308          1.0000000000
       925       309  TIP3  OH2          -1.9478947761       -0.4955038475        5.5216334394  CLST         309          1.0000000000
       926       309  TIP3  H1           -2.7811672330       -0.7334886292        5.0607416492  CLST         309          1.0000000000
       927       309  TIP3  H2           -2.0474480480       -1.1487000150        6.2548394807  CLST         309          1.0000000000
       928       310  TIP3  OH2          -5.0330515022       -0.6184326416        7.2262738957  CLST         310          1.0000000000
       929       310  TIP3  H1           -4.2627472738       -0.0491520507        7.4796755520  CLST         310          1.0000000000
       930       310  TIP3  H2           -5.0350822706       -1.2727038515        7.9860085886  CLST         310          1.0000000000
       931       311  TIP3  OH2          -7.2013279378        8.3363006169      -12.3798291116  CLST         311          1.0000000000
       932       311  TIP3  H1           -6.5297691620        7.5923966659      -12.4393335502  CLST         311          1.0000000000
       933       311  TIP3  H2           -7.3012397504        8.3470616463      -11.3449851961  CLST         311          1.0000000000
       934       312  TIP3  OH2           6.5035446248       -0.9242523658       -6.3946090024  CLST         312          1.0000000000
       935       312  TIP3  H1            5.9557030882       -0.1953690613       -6.0371661771  CLST         312          1.0000000000
       936       312  TIP3  H2            6.4907041942       -1.5348801754       -5.6381649340  CLST         312          1.0000000000
       937       313  TIP3  OH2          -8.9511149268      -10.5451136388        7.1708769127  CLST         313          1.0000000000
       938       313  TIP3  H1           -8.3650427465       -9.7411513200        7.0916333748  CLST         313          1.0000000000
       939       313  TIP3  H2           -9.3040702995      -10.5148704085        6.2321242254  CLST         313          1.0000000000
       940       314  TIP3  OH2          -1.3023758994      -12.1017319107      -10.7308519955  CLST         314          1.0000000000
       941       314  TIP3  H1           -1.2144564357      -11.2649533844      -10.1851204653  CLST         314          1.0000000000
       942       314  TIP3  H2           -1.7507689913      -12.6217117437       -9.9926374619  CLST         314          1.0000000000
       943       315  TIP3  OH2          -1.3064809206       -0.5900039844       -6.5237378433  CLST         315          1.0000000000
       944       315  TIP3  H1           -0.3789213796       -0.8784119298       -6.8068608089  CLST         315          1.0000000000
       945       315  TIP3  H2           -1.1583955214       -0.2978456921       -5.5863058206  CLST         315          1.0000000000
       946       316  TIP3  OH2         -13.2387858762       -3.8945015792       -5.4912288550  CLST         316          1.0000000000
       947       316  TIP3  H1          -12.4099922732       -4.3625304790       -5.8496142380  CLST         316          1.0000000000
       948       316  TIP3  H2          -12.9164236540       -3.0363027935       -5.8442521090  CLST         316          1.0000000000
       949       317  TIP3  OH2          -6.2301258460       -0.0419314033       -3.7396477548  CLST         317          1.0000000000
       950       317  TIP3  H1           -5.3786535311       -0.0719570457       -3.2101906584  CLST         317          1.0000000000
       951       317  TIP3  H2           -6.7315062615        0.4605582586       -3.0422868757  CLST         317          1.0000000000
       952       318  TIP3  OH2          -3.9210878374       -9.6341078903       -9.3481808166  CLST         318          1.0000000000
       953       318  TIP3  H1           -4.1726996728       -9.8219984027       -8.3855981778  CLST         318          1.0000000000
       954       318  TIP3  H2           -2.9376510231       -9.7185202223       -9.2233728547  CLST         318          1.0000000000
       955       319  TIP3  OH2           5.7031777795       10.7969668323        8.6001992760  CLST         319          1.0000000000
       956       319  TIP3  H1            6.4262741416       10.2332614669        8.2648628145  CLST         319          1.0000000000
       957       319  TIP3  H2            6.1847322888       11.2436520786        9.2797527169  CLST         319          1.0000000000
       958       320  TIP3  OH2         -10.6588172152        1.0380775813      -14.5198200404  CLST         320          1.0000000000
       959       320  TIP3  H1           -9.7464717280        1.2410424736      -14.8834704105  CLST         320          1.0000000000
       960       320  TIP3  H2          -10.3661536965        0.1770428608      -14.0700128756  CLST         320          1.0000000000
       961       321  TIP3  OH2          -9.6520814069       10.1500508695       -9.8196015073  CLST         321          1.0000000000
       962       321  TIP3  H1          -10.2995336112       10.1290326225      -10.9872713893  CLST         321          1.0000000000
       963       321  TIP3  H2           -9.3925020561       10.1773154931      -10.8819338416  CLST         321          1.0000000000
       964       322  TIP3  OH2         -12.6724082154       -1.8393015374       -2.3713992400  CLST         322          1.0000000000
       965       322  TIP3  H1          -12.3002447008       -1.2908442223       -3.1061941038  CLST         322          1.0000000000
       966       322  TIP3  H2          -11.8234711785       -1.9133953749       -1.8512730070  CLST         322          1.0000000000
       967       323  TIP3  OH2          -1.0627230778        4.0164494391        4.3148350749  CLST         323          1.0000000000
       968       323  TIP3  H1           -0.8483412554        3.1100530009        4.6530934326  CLST         323          1.0000000000
       969       323  TIP3  H2           -0.9534213884        3.8909665454        3.3534301223  CLST         323          1.0000000000
       970       324  TIP3  OH2         -10.9522698873        6.2403467262        1.4936258111  CLST         324          1.0000000000
       971       324  TIP3  H1          -11.0884255893        5.4055682522        2.0188633625  CLST         324          1.0000000000
       972       324  TIP3  H2          -10.2529605656        6.6227866172        2.1289420389  CLST         324          1.0000000000
       973       325  TIP3  OH2          -4.6774522134        0.7394526376        3.6654981626  CLST         325          1.0000000000
       974       325  TIP3  H1           -5.7219660463        0.7816735022        3.6418489966  CLST         325          1.0000000000
       975       325  TIP3  H2           -4.4574384549        1.6512182229        3.5506561955  CLST         325          1.0000000000
       976       326  TIP3  OH2           9.0450797168        8.7293317206       -2.7254054991  CLST         326          1.0000000000
       977       326  TIP3  H1            8.7753968500        7.8508186387       -2.3737183008  CLST         326          1.0000000000
       978       326  TIP3  H2            8.3894502760        8.7554276116       -3.4801003394  CLST         326          1.0000000000
       979       327  TIP3  OH2          10.3852733960       -3.7232941115      -13.1034665081  CLST         327          1.0000000000
       980       327  TIP3  H1           10.4646422669       -3.2050583225      -13.8073699594  CLST         327          1.0000000000
       981       327  TIP3  H2           10.0789748261       -3.0327269504      -12.4248418103  CLST         327          1.0000000000
       982       328  TIP3  OH2           2.2464985518        7.1722478406       -9.7837235817  CLST         328          1.0000000000
       983       328  TIP3  H1            2.3802451115        6.2555184018       -9.4915151912  CLST         328          1.0000000000
       984       328  TIP3  H2            3.2166845148        7.3787325132       -9.8391466801  CLST         328          1.0000000000
       985       329  TIP3  OH2           1.4131236143      -11.7017471707       -2.3003609750  CLST         329          1.0000000000
       986       329  TIP3  H1            1.5383885965      -10.7595658288       -2.6629002250  CLST         329          1.0000000000
       987       329  TIP3  H2            2.2179757770      -11.6702798035       -1.7094059783  CLST         329          1.0000000000
       988       330  TIP3  OH2          -9.3422348606       -0.9405548457        3.3781140136  CLST         330          1.0000000000
       989       330  TIP3  H1           -9.6422201841       -1.8657393995        3.1829839191  CLST         330          1.0000000000
       990       330  TIP3  H2          -10.1432992242       -0.5728583274        3.8165329778  CLST         330          1.0000000000
       991       331  TIP3  OH2          12.2097193766        9.7597986551       -9.1009956268  CLST         331          1.0000000000
       992       331  TIP3  H1           12.9420413832        9.8111347798       -9.5969879236  CLST         331          1.0000000000
       993       331  TIP3  H2           12.1127933166        8.7403313903       -8.9926060886  CLST         331          1.0000000000
       994       332  TIP3  OH2          11.3384948681       -1.3110614141       -4.4921531588  CLST         332          1.0000000000
       995       332  TIP3  H1           12.1983856403       -1.4647838654       -5.0481879982  CLST         332          1.0000000000
       996       332  TIP3  H2           11.6810997676       -0.5260199662       -4.0230004036  CLST         332          1.0000000000
       997       333  TIP3  OH2          10.5546272000      -14.1704772366        7.9610000368  CLST         333          1.0000000000
       998       333  TIP3  H1            9.6511638841      -13.8821186447        8.1090045123  CLST         333          1.0000000000
       999       333  TIP3  H2           10.6159128433      -14.1137183661        6.9852915201  CLST         333          1.0000000000
      1000       334  TIP3  OH2         -10.6409758629       -9.6506686738        9.1286998055  CLST         334          1.0000000000
      1001       334  TIP3  H1          -11.5227854335       -9.8363983407        8.6350782888  CLST         334          1.0000000000
      1002       334  TIP3  H2          -10.0894501481      -10.0987000023        8.4395432424  CLST         334          1.0000000000
      1003       335  TIP3  OH2           6.9065698208       -9.9605344184        1.4592137951  CLST         335          1.0000000000
      1004       335  TIP3  H1            6.9206204264      -10.3225897061        2.3817264876  CLST         335          1.0000000000
      1005       335  TIP3  H2            5.9245346429       -9.8873703330        1.3462502870  CLST         335          1.0000000000
      1006       336  TIP3  OH2          -9.2974067614       -3.6269372633       -3.5243000003  CLST         336          1.0000000000
      1007       336  TIP3  H1           -9.4358523368       -4.3368217044       -4.1546975370  CLST         336          1.0000000000
      1008       336  TIP3  H2           -8.8479092363       -2.9550234615       -4.0724792026  CLST         336          1.0000000000
      1009       337  TIP3  OH2          -1.5567163650       -4.9604987936        8.1122177920  CLST         337          1.0000000000
      1010       337  TIP3  H1           -1.2102796390       -4.7729500002        9.0184850037  CLST         337          1.0000000000
      1011       337  TIP3  H2           -1.8202481155       -4.0092125589        7.9377632533  CLST         337          1.0000000000
      1012       338  TIP3  OH2          -0.4282583717        2.7545168343       10.6722317149  CLST         338          1.0000000000
      1013       338  TIP3  H1           -0.4446142983        2.5739594958        9.6816822565  CLST         338          1.0000000000
      1014       338  TIP3  H2            0.1059034045        2.0048854649       10.9309696171  CLST         338          1.0000000000
      1015       339  TIP3  OH2           7.8619624443        7.9955923181        2.8163656064  CLST         339          1.0000000000
      1016       339  TIP3  H1            7.5309857534        8.6922200131        3.4642233017  CLST         339          1.0000000000
      1017       339  TIP3  H2            7.1818187163        8.0493924445        2.0951653374  CLST         339          1.0000000000
      1018       340  TIP3  OH2          -4.6686387129      -11.7100769324      -11.2141495628  CLST         340          1.0000000000
      1019       340  TIP3  H1           -4.3393602004      -11.0586367115      -10.5437531048  CLST         340          1.0000000000
      1020       340  TIP3  H2           -4.3379449944      -12.5312124131      -10.8630146292  CLST         340          1.0000000000
      1021       341  TIP3  OH2          -6.7631270226        4.7063586238        9.3755069608  CLST         341          1.0000000000
      1022       341  TIP3  H1           -5.8282861338        4.5686179298        9.6826406630  CLST         341          1.0000000000
      1023       341  TIP3  H2           -7.0064501626        3.8033610865        9.1446079328  CLST         341          1.0000000000
      1024       342  TIP3  OH2          -4.4852160991      -11.0167460774       13.8354630100  CLST         342          1.0000000000
      1025       342  TIP3  H1           -5.2095714933      -10.9535284202       13.1348063360  CLST         342          1.0000000000
      1026       342  TIP3  H2           -4.8344246093      -11.0008899077       14.5957459852  CLST         342          1.0000000000
      1027       343  TIP3  OH2           1.4701992392       -9.0395039770       -9.9258318580  CLST         343          1.0000000000
      1028       343  TIP3  H1            1.4089840099       -8.1080105138      -10.2904600038  CLST         343          1.0000000000
      1029       343  TIP3  H2            1.9087597235       -9.4783123382      -10.6773763179  CLST         343          1.0000000000
      1030       344  TIP3  OH2           5.5125991010       -4.0430927019        6.3480435432  CLST         344          1.0000000000
      1031       344  TIP3  H1            4.8810571929       -4.6532279740        6.8281463205  CLST         344          1.0000000000
      1032       344  TIP3  H2            6.1008255584       -4.6743074842        5.8459812217  CLST         344          1.0000000000
      1033       345  TIP3  OH2          13.0976175019        7.3247227031        8.8921057434  CLST         345          1.0000000000
      1034       345  TIP3  H1           12.7120605262        6.5295198002        8.5162259006  CLST         345          1.0000000000
      1035       345  TIP3  H2           12.5060703274        7.4168684984        9.7013851503  CLST         345          1.0000000000
      1036       346  TIP3  OH2           9.4670408055        9.4272050476        0.9344437411  CLST         346          1.0000000000
      1037       346  TIP3  H1            9.7361964709       10.2340386435        1.5194053730  CLST         346          1.0000000000
      1038       346  TIP3  H2            9.0956383035        8.8903534193        1.6660455566  CLST         346          1.0000000000
      1039       347  TIP3  OH2          -5.0876189529        2.8880946744       -9.6939991968  CLST         347          1.0000000000
      1040       347  TIP3  H1           -5.8119625636        3.3515009885       -9.2032216468  CLST         347          1.0000000000
      1041       347  TIP3  H2           -4.4706047449        2.8187018535       -8.9259698460  CLST         347          1.0000000000
      1042       348  TIP3  OH2          -1.2481999729        6.1425313880        5.7486910652  CLST         348          1.0000000000
      1043       348  TIP3  H1           -1.3953718059        5.2568060966        5.2622794553  CLST         348          1.0000000000
      1044       348  TIP3  H2           -0.6997144083        6.5019796379        4.9808400949  CLST         348          1.0000000000
      1045       349  TIP3  OH2          -4.1495503398        5.2359561174       -2.5396477693  CLST         349          1.0000000000
      1046       349  TIP3  H1           -3.7802602046        4.9168027448       -3.4025776629  CLST         349          1.0000000000
      1047       349  TIP3  H2           -3.5125150655        6.0190745205       -2.4708917263  CLST         349          1.0000000000
      1048       350  TIP3  OH2          -2.5906697300        8.9785383427        5.1677770355  CLST         350          1.0000000000
      1049       350  TIP3  H1           -3.1884831844        8.6439439673        4.4539574292  CLST         350          1.0000000000
      1050       350  TIP3  H2           -2.2549066874        8.1910866669        5.6040262266  CLST         350          1.0000000000
      1051       351  TIP3  OH2           4.7566845519       -7.5226573570       -7.6612855278  CLST         351          1.0000000000
      1052       351  TIP3  H1            4.1054520893       -8.2576022159       -7.6141655334  CLST         351          1.0000000000
      1053       351  TIP3  H2            4.7383877045       -7.3812935482       -8.6533720642  CLST         351          1.0000000000
      1054       352  TIP3  OH2         -10.3605544215      -10.9362474330        1.8525787778  CLST         352          1.0000000000
      1055       352  TIP3  H1           -9.3862264935      -10.9778583992        1.7535635380  CLST         352          1.0000000000
      1056       352  TIP3  H2          -10.5850317829      -10.2682842522        1.1923387110  CLST         352          1.0000000000
      1057       353  TIP3  OH2          10.8059504610       -8.1206682766       -8.6359875421  CLST         353          1.0000000000
      1058       353  TIP3  H1            9.9090362675       -8.4818362937       -8.8789743120  CLST         353          1.0000000000
      1059       353  TIP3  H2           10.9082801640       -8.3095745551       -7.7093363151  CLST         353          1.0000000000
      1060       354  TIP3  OH2           6.8527608327      -10.5898515172        4.0722722737  CLST         354          1.0000000000
      1061       354  TIP3  H1            7.4953166610      -10.9296065211        4.7895974594  CLST         354          1.0000000000
      1062       354  TIP3  H2            6.6619380815       -9.7455764822        4.5665632326  CLST         354          1.0000000000
      1063       355  TIP3  OH2          -7.2084121204        8.9904554291       -8.8716192933  CLST         355          1.0000000000
      1064       355  TIP3  H1           -6.7210176319        9.8111882479       -8.7768445548  CLST         355          1.0000000000
      1065       355  TIP3  H2           -8.0933639044        9.3509116874       -9.2720356760  CLST         355          1.0000000000
      1066       356  TIP3  OH2          12.4202941641        1.0513005705       -2.0029365708  CLST         356          1.0000000000
      1067       356  TIP3  H1           11.4621550414        0.8429605496       -2.1842365040  CLST         356          1.0000000000
      1068       356  TIP3  H2           12.5712153088        0.6828333382       -1.1156982469  CLST         356          1.0000000000
      1069       357  TIP3  OH2          -0.5474539889       -0.4996929054       -1.9476781855  CLST         357          1.0000000000
      1070       357  TIP3  H1            0.2657116833       -1.0218999393       -2.2234833568  CLST         357          1.0000000000
      1071       357  TIP3  H2           -0.6950750024       -0.1392089556       -2.8706247700  CLST         357          1.0000000000
      1072       358  TIP3  OH2          -5.5652280583        7.0913456191       -7.5609465211  CLST         358          1.0000000000
      1073       358  TIP3  H1           -6.2167570630        7.5494838493       -8.1262969285  CLST         358          1.0000000000
      1074       358  TIP3  H2           -6.2027454083        6.5849533710       -6.9993702856  CLST         358          1.0000000000
      1075       359  TIP3  OH2          -5.0814867177       12.1462870956        6.1130543215  CLST         359          1.0000000000
      1076       359  TIP3  H1           -5.4229874012       11.9166869015        5.2377599841  CLST         359          1.0000000000
      1077       359  TIP3  H2           -4.1261403495       12.2378814399        5.9078582872  CLST         359          1.0000000000
      1078       360  TIP3  OH2          -6.9071623664        5.7049365773       -3.2890450999  CLST         360          1.0000000000
      1079       360  TIP3  H1           -7.1323334368        6.3981724859       -2.6367613079  CLST         360          1.0000000000
      1080       360  TIP3  H2           -5.9536162154        5.5307914639       -3.0305327826  CLST         360          1.0000000000
      1081       361  TIP3  OH2          -1.5859088461       -1.0098080160       10.0286775645  CLST         361          1.0000000000
      1082       361  TIP3  H1           -1.4406108868       -0.5676583894       10.9238988247  CLST         361          1.0000000000
      1083       361  TIP3  H2           -1.7073351704       -1.9294849441       10.3835785459  CLST         361          1.0000000000
      1084       362  TIP3  OH2         -10.5804740824        2.8188263810        0.6262556871  CLST         362          1.0000000000
      1085       362  TIP3  H1          -10.5769217980        3.4716279305       -0.1121578655  CLST         362          1.0000000000
      1086       362  TIP3  H2          -11.3843395141        2.2831305422        0.4013447013  CLST         362          1.0000000000
      1087       363  TIP3  OH2          10.3990685993        2.0860167116        9.9583499049  CLST         363          1.0000000000
      1088       363  TIP3  H1           10.3593995272        1.2341836864        9.5432627010  CLST         363          1.0000000000
      1089       363  TIP3  H2           11.1852632933        2.1286728917       10.5356569992  CLST         363          1.0000000000
      1090       364  TIP3  OH2           7.6573862603       -5.6104500211       -6.2290067957  CLST         364          1.0000000000
      1091       364  TIP3  H1            6.8623607415       -5.1746393362       -6.6011098224  CLST         364          1.0000000000
      1092       364  TIP3  H2            8.2896274214       -5.5930359171       -7.0271025335  CLST         364          1.0000000000
      1093       365  TIP3  OH2          -6.1360053589       -6.8163102372        2.7270136679  CLST         365          1.0000000000
      1094       365  TIP3  H1           -6.6211410222       -5.9910629167        2.5544186025  CLST         365          1.0000000000
      1095       365  TIP3  H2           -6.9292489539       -7.3908540532        2.9852336358  CLST         365          1.0000000000
      1096       366  TIP3  OH2           1.7975114050       -1.4372918058       -2.8816739698  CLST         366          1.0000000000
      1097       366  TIP3  H1            2.7320466607       -1.4216372527       -2.5552450846  CLST         366          1.0000000000
      1098       366  TIP3  H2            1.9763828347       -1.0500936113       -3.7673503358  CLST         366          1.0000000000
      1099       367  TIP3  OH2          -5.2729195845       11.6903497806       12.2994307089  CLST         367          1.0000000000
      1100       367  TIP3  H1           -6.2180286556       11.6825269353       11.8680261642  CLST         367          1.0000000000
      1101       367  TIP3  H2           -5.3261788756       12.1916683171       12.9812174961  CLST         367          1.0000000000
      1102       368  TIP3  OH2          -2.6767252736        6.5019159341        1.1558034089  CLST         368          1.0000000000
      1103       368  TIP3  H1           -2.8157278604        7.2234188978        0.4713093380  CLST         368          1.0000000000
      1104       368  TIP3  H2           -2.9412726352        7.0784909235        1.9200476397  CLST         368          1.0000000000
      1105       369  TIP3  OH2         -11.6279036206       -1.8255866589       -6.3974066116  CLST         369          1.0000000000
      1106       369  TIP3  H1          -10.7472541335       -2.2164375570       -6.2472497617  CLST         369          1.0000000000
      1107       369  TIP3  H2          -11.7701319658       -2.0332273251       -7.3589816169  CLST         369          1.0000000000
      1108       370  TIP3  OH2         -12.0235395376        5.4515122223      -11.7319038895  CLST         370          1.0000000000
      1109       370  TIP3  H1          -12.4453845024        4.8043774678      -12.4046283831  CLST         370          1.0000000000
      1110       370  TIP3  H2          -12.5495033502        6.0573769724      -11.4224517564  CLST         370          1.0000000000
      1111       371  TIP3  OH2           2.1391459758        7.8540357801        5.8265802012  CLST         371          1.0000000000
      1112       371  TIP3  H1            2.2179252554        7.5061743327        6.7469660578  CLST         371          1.0000000000
      1113       371  TIP3  H2            3.0701398467        8.0584600963        5.6713465107  CLST         371          1.0000000000
      1114       372  TIP3  OH2           8.1294442907       -7.4393870680        9.1421863382  CLST         372          1.0000000000
      1115       372  TIP3  H1            8.7367927488       -7.5095881172        8.3834664820  CLST         372          1.0000000000
      1116       372  TIP3  H2            8.7468480771       -7.7563538323        9.8805500139  CLST         372          1.0000000000
      1117       373  TIP3  OH2          11.0201090683       -0.3109428279        6.6151316184  CLST         373          1.0000000000
      1118       373  TIP3  H1           11.2472822625        0.4518804454        6.0252553429  CLST         373          1.0000000000
      1119       373  TIP3  H2           10.0733655952       -0.3348159306        6.4249053652  CLST         373          1.0000000000
      1120       374  TIP3  OH2          -9.4867717818        4.7335051150      -12.2855764003  CLST         374          1.0000000000
      1121       374  TIP3  H1           -9.5996918774        5.5386774467      -12.8142796701  CLST         374          1.0000000000
      1122       374  TIP3  H2          -10.3759956953        4.8536798666      -11.8731571155  CLST         374          1.0000000000
      1123       375  TIP3  OH2           9.7851642571       -5.4540824209       -2.7080224581  CLST         375          1.0000000000
      1124       375  TIP3  H1           10.2014179758       -5.0933176939       -3.5115806018  CLST         375          1.0000000000
      1125       375  TIP3  H2           10.1014235415       -6.3818531315       -2.7676798266  CLST         375          1.0000000000
      1126       376  TIP3  OH2          -2.2952293961      -11.1649690495       12.0432752205  CLST         376          1.0000000000
      1127       376  TIP3  H1           -2.8930412663      -11.3034701559       12.8405741170  CLST         376          1.0000000000
      1128       376  TIP3  H2           -2.9450284236      -11.4208675599       11.3619393686  CLST         376          1.0000000000
      1129       377  TIP3  OH2         -10.1350383667       12.8388794936       10.4951189951  CLST         377          1.0000000000
      1130       377  TIP3  H1           -9.2035439298       12.5223922574       10.6235699767  CLST         377          1.0000000000
      1131       377  TIP3  H2          -10.0544615369       13.3858961506        9.6973257700  CLST         377          1.0000000000
      1132       378  TIP3  OH2           2.1656171433       -8.0104150888        7.3371231901  CLST         378          1.0000000000
      1133       378  TIP3  H1            2.0112343620       -7.0658662012        7.3841861440  CLST         378          1.0000000000
      1134       378  TIP3  H2            1.6728042914       -8.4219070467        8.0563223220  CLST         378          1.0000000000
      1135       379  TIP3  OH2          -9.4666049874        9.3831693198       -1.1341192372  CLST         379          1.0000000000
      1136       379  TIP3  H1           -9.0091267850        9.5473531062       -0.2919068671  CLST         379          1.0000000000
      1137       379  TIP3  H2           -9.6872717188       10.2937705934       -1.4791952626  CLST         379          1.0000000000
      1138       380  TIP3  OH2           2.9798009039       -4.1848328873      -11.2818987792  CLST         380          1.0000000000
      1139       380  TIP3  H1            2.5138721581       -3.4043784462      -11.7248377840  CLST         380          1.0000000000
      1140       380  TIP3  H2            3.4108665051       -4.5046807757      -12.1124786780  CLST         380          1.0000000000
      1141       381  TIP3  OH2          10.2621567607        4.2248426515        3.4586337543  CLST         381          1.0000000000
      1142       381  TIP3  H1            9.5614318882        4.8324511098        3.8519296562  CLST         381          1.0000000000
      1143       381  TIP3  H2           10.9407197467        4.9636586631        3.4011906077  CLST         381          1.0000000000
      1144       382  TIP3  OH2           1.9629261133       -5.3862736143        5.7636762613  CLST         382          1.0000000000
      1145       382  TIP3  H1            2.6429208177       -5.2948765608        6.4793166521  CLST         382          1.0000000000
      1146       382  TIP3  H2            2.5271032031       -5.9680498996        5.1722274345  CLST         382          1.0000000000
      1147       383  TIP3  OH2          10.2464047968        8.9181067002        4.8554948699  CLST         383          1.0000000000
      1148       383  TIP3  H1            9.3332261780        9.0816853184        4.5214496755  CLST         383          1.0000000000
      1149       383  TIP3  H2           10.4368413439        9.8454516690        5.1059398710  CLST         383          1.0000000000
      1150       384  TIP3  OH2          -3.3022681099       -1.8424661769       -8.2313581365  CLST         384          1.0000000000
      1151       384  TIP3  H1           -2.7841171518       -2.6891233527       -8.3503144963  CLST         384          1.0000000000
      1152       384  TIP3  H2           -2.7023967984       -1.3645437040       -7.6004537247  CLST         384          1.0000000000
      1153       385  TIP3  OH2           3.6758483563      -11.7575765999       -0.7446565445  CLST         385          1.0000000000
      1154       385  TIP3  H1            4.5594826147      -12.2341127652       -0.5752987879  CLST         385          1.0000000000
      1155       385  TIP3  H2            3.8853176995      -10.9555457926       -0.2050603195  CLST         385          1.0000000000
      1156       386  TIP3  OH2          -4.2808400444        9.3020958499       -6.2350263207  CLST         386          1.0000000000
      1157       386  TIP3  H1           -4.6719547202        8.4113784226       -6.5227617599  CLST         386          1.0000000000
      1158       386  TIP3  H2           -4.2756782352        9.6444956934       -7.1516107540  CLST         386          1.0000000000
      1159       387  TIP3  OH2          -9.7762946007       10.6649684470        2.8120668176  CLST         387          1.0000000000
      1160       387  TIP3  H1          -10.5897215175       10.3539274331        2.3602740507  CLST         387          1.0000000000
      1161       387  TIP3  H2           -9.1303580739       10.3719321722        2.1099135644  CLST         387          1.0000000000
      1162       388  TIP3  OH2          -1.7513371536      -12.3200704554        5.9645957195  CLST         388          1.0000000000
      1163       388  TIP3  H1           -2.1196604841      -11.4166036310        5.7398510131  CLST         388          1.0000000000
      1164       388  TIP3  H2           -1.8025080444      -12.2154220804        6.9622940116  CLST         388          1.0000000000
      1165       389  TIP3  OH2          -8.1583640181        3.3829190599       -3.5940370567  CLST         389          1.0000000000
      1166       389  TIP3  H1           -7.6599438867        4.2282730686       -3.3930508788  CLST         389          1.0000000000
      1167       389  TIP3  H2           -9.0723872425        3.7776490676       -3.6139921670  CLST         389          1.0000000000
      1168       390  TIP3  OH2          -5.9365186404       -3.9509058117        4.5115058562  CLST         390          1.0000000000
      1169       390  TIP3  H1           -5.4763214033       -3.0255096900        4.5486312476  CLST         390          1.0000000000
      1170       390  TIP3  H2           -5.1680345262       -4.4209506451        4.1991867553  CLST         390          1.0000000000
      1171       391  TIP3  OH2          -8.7937350390       -8.8401282355       -6.2141427165  CLST         391          1.0000000000
      1172       391  TIP3  H1           -9.1725700493       -9.5361376142       -6.7797927465  CLST         391          1.0000000000
      1173       391  TIP3  H2           -8.0968488646       -9.4189963523       -5.8118700669  CLST         391          1.0000000000
      1174       392  TIP3  OH2           0.9317062196       -1.9945604697       10.1059409598  CLST         392          1.0000000000
      1175       392  TIP3  H1            0.5511602628       -2.8934885061       10.1839394173  CLST         392          1.0000000000
      1176       392  TIP3  H2            0.0906447654       -1.5176847261        9.8719411850  CLST         392          1.0000000000
      1177       393  TIP3  OH2          10.7146041788      -12.4798123074       -0.7174838117  CLST         393          1.0000000000
      1178       393  TIP3  H1           12.2586045458      -10.6797932380       -1.0640807954  CLST         393          1.0000000000
      1179       393  TIP3  H2           12.0750943906      -11.5412624406       -1.1992682451  CLST         393          1.0000000000
      1180       394  TIP3  OH2           0.5337333466       11.7747225346       -8.6055980355  CLST         394          1.0000000000
      1181       394  TIP3  H1            0.9222459501       12.0952822046       -7.7324953912  CLST         394          1.0000000000
      1182       394  TIP3  H2            0.7972123078       10.8160584191       -8.4093378477  CLST         394          1.0000000000
      1183       395  TIP3  OH2           6.8772339573        7.5103765002       -4.4355907719  CLST         395          1.0000000000
      1184       395  TIP3  H1            6.0664339979        8.0880254401       -4.4196374478  CLST         395          1.0000000000
      1185       395  TIP3  H2            6.6450418736        7.0672135792       -5.2810475469  CLST         395          1.0000000000
      1186       396  TIP3  OH2          -1.0785274394       -9.8568469426       -9.0817931482  CLST         396          1.0000000000
      1187       396  TIP3  H1           -1.0819216309       -9.8833589465       -8.0659684151  CLST         396          1.0000000000
      1188       396  TIP3  H2           -0.1354814470       -9.5580760029       -9.2310632564  CLST         396          1.0000000000
      1189       397  TIP3  OH2          11.4047788523        7.2567508799       -9.0248093649  CLST         397          1.0000000000
      1190       397  TIP3  H1           11.4862037395        6.4508797263       -8.4446964314  CLST         397          1.0000000000
      1191       397  TIP3  H2           10.5147035532        7.5139310050       -8.5888664577  CLST         397          1.0000000000
      1192       398  TIP3  OH2          10.7255550216        7.7627407787       -4.8309726587  CLST         398          1.0000000000
      1193       398  TIP3  H1           10.3578837551        8.2679246667       -4.0678736155  CLST         398          1.0000000000
      1194       398  TIP3  H2           11.4115275904        7.2500153881       -4.2949700530  CLST         398          1.0000000000
      1195       399  TIP3  OH2           1.8709253341       11.1158843011        4.8525886264  CLST         399          1.0000000000
      1196       399  TIP3  H1            1.0360415965       10.7691358939        5.2335674243  CLST         399          1.0000000000
      1197       399  TIP3  H2            2.4063307734       10.9381749205        5.6824698642  CLST         399          1.0000000000
      1198       400  TIP3  OH2           3.9954933682       -2.9804916009       -5.0825096909  CLST         400          1.0000000000
      1199       400  TIP3  H1            4.8111668134       -2.9531389463       -4.5445680213  CLST         400          1.0000000000
      1200       400  TIP3  H2            4.4051469772       -3.5177738423       -5.8537009358  CLST         400          1.0000000000
      1201       401  TIP3  OH2         -15.2401345012       10.0071475354        5.4324058873  CLST         401          1.0000000000
      1202       401  TIP3  H1          -14.5854592752       10.3550332391        6.1123068700  CLST         401          1.0000000000
      1203       401  TIP3  H2          -15.6938323467        9.4158106192        6.0771526310  CLST         401          1.0000000000
      1204       402  TIP3  OH2           1.7136056696       -1.6595787951       12.7887648156  CLST         402          1.0000000000
      1205       402  TIP3  H1            1.2981276855       -2.5683510687       12.8496122838  CLST         402          1.0000000000
      1206       402  TIP3  H2            1.7072141087       -1.6907091006       11.7979389225  CLST         402          1.0000000000
      1207       403  TIP3  OH2          -2.1001402785       -6.9315192535       -0.3234920571  CLST         403          1.0000000000
      1208       403  TIP3  H1           -1.8066865213       -7.1259559538       -1.3369876285  CLST         403          1.0000000000
      1209       403  TIP3  H2           -1.6595108976       -8.4433990704       -2.1278808503  CLST         403          1.0000000000
      1210       404  TIP3  OH2          -4.8968911570       -2.4541465698        9.1397609212  CLST         404          1.0000000000
      1211       404  TIP3  H1           -5.1399413789       -2.7251131254       10.0535388153  CLST         404          1.0000000000
      1212       404  TIP3  H2           -5.3473618979       -3.2113147219        8.6684943988  CLST         404          1.0000000000
      1213       405  TIP3  OH2         -11.9006423494        7.1279283093       11.2631872496  CLST         405          1.0000000000
      1214       405  TIP3  H1          -11.7911586098        6.1492216600       10.9546937027  CLST         405          1.0000000000
      1215       405  TIP3  H2          -12.6385264190        7.0177736496       11.7596005312  CLST         405          1.0000000000
      1216       406  TIP3  OH2           1.0300518436        7.7381888493      -12.1950038030  CLST         406          1.0000000000
      1217       406  TIP3  H1            1.1279415673        8.7369050732      -12.3302085697  CLST         406          1.0000000000
      1218       406  TIP3  H2            1.4201531436        7.7036720214      -11.2641953849  CLST         406          1.0000000000
      1219       407  TIP3  OH2          10.4958203737      -13.2063166819        5.1894130118  CLST         407          1.0000000000
      1220       407  TIP3  H1           10.4169425639      -13.3573320448        4.2451467640  CLST         407          1.0000000000
      1221       407  TIP3  H2           11.2973892011      -12.5417525456        5.2087493035  CLST         407          1.0000000000
      1222       408  TIP3  OH2          -2.9140720265      -11.5127944372        1.8776485604  CLST         408          1.0000000000
      1223       408  TIP3  H1           -2.1220423022      -10.9416506055        1.7234125217  CLST         408          1.0000000000
      1224       408  TIP3  H2           -2.4801031221      -12.3012428233        2.2598171502  CLST         408          1.0000000000
      1225       409  TIP3  OH2           1.0419107171       -9.5738013336        9.7012397059  CLST         409          1.0000000000
      1226       409  TIP3  H1            0.6371499919       -9.2132578333       10.5236438805  CLST         409          1.0000000000
      1227       409  TIP3  H2            1.4220859640      -10.3868705669       10.1244896798  CLST         409          1.0000000000
      1228       410  TIP3  OH2           9.8331872356       -7.1400401194       -5.2086196404  CLST         410          1.0000000000
      1229       410  TIP3  H1            8.9264622190       -6.8160046273       -5.3920414990  CLST         410          1.0000000000
      1230       410  TIP3  H2           10.3088034052       -6.3398321985       -5.5340171467  CLST         410          1.0000000000
      1231       411  TIP3  OH2         -10.0329037466       -2.2764651132       -1.4416989740  CLST         411          1.0000000000
      1232       411  TIP3  H1           -9.1842407730       -1.8704892103       -1.2966207300  CLST         411          1.0000000000
      1233       411  TIP3  H2           -9.7473852655       -2.9383295649       -2.1220582615  CLST         411          1.0000000000
      1234       412  TIP3  OH2           6.7227033171      -10.4993047625      -12.0045098242  CLST         412          1.0000000000
      1235       412  TIP3  H1            6.0286233656      -10.8620719491      -11.4022249003  CLST         412          1.0000000000
      1236       412  TIP3  H2            7.5109113083      -11.0757078349      -11.7588888658  CLST         412          1.0000000000
      1237       413  TIP3  OH2           7.0063823125       13.0865130358        0.3317073434  CLST         413          1.0000000000
      1238       413  TIP3  H1            7.5392032544       12.4349918468       -0.1849970403  CLST         413          1.0000000000
      1239       413  TIP3  H2            7.7763674967       13.5210441970        0.8461700949  CLST         413          1.0000000000
      1240       414  TIP3  OH2           1.4558209163       -2.4180380406      -12.4809697521  CLST         414          1.0000000000
      1241       414  TIP3  H1            0.5707591428       -2.0617353076      -12.2156282752  CLST         414          1.0000000000
      1242       414  TIP3  H2            1.4657027428       -2.5742195020      -13.4226415466  CLST         414          1.0000000000
      1243       415  TIP3  OH2           4.2038863542        5.2382955260       -8.1802585792  CLST         415          1.0000000000
      1244       415  TIP3  H1            3.5311990712        4.5365438644       -7.9286333698  CLST         415          1.0000000000
      1245       415  TIP3  H2            4.8024233823        4.5581969348       -8.6500541066  CLST         415          1.0000000000
      1246       416  TIP3  OH2           5.8687312673       12.2326320258       -7.7691828374  CLST         416          1.0000000000
      1247       416  TIP3  H1            5.4318987824       12.9241774078       -8.1885760525  CLST         416          1.0000000000
      1248       416  TIP3  H2            6.7268335935       12.2483943368       -8.2209271623  CLST         416          1.0000000000
      1249       417  TIP3  OH2          12.6567124781      -11.1498964189        2.6942959709  CLST         417          1.0000000000
      1250       417  TIP3  H1           11.8247944040      -11.6155535802        2.3163822115  CLST         417          1.0000000000
      1251       417  TIP3  H2           12.6849849087      -10.3036576917        2.2436425667  CLST         417          1.0000000000
      1252       418  TIP3  OH2          -9.1836212422       -1.6447495104        8.3234223362  CLST         418          1.0000000000
      1253       418  TIP3  H1           -8.7073726659       -1.2747564140        7.5491847035  CLST         418          1.0000000000
      1254       418  TIP3  H2           -9.0592182652       -0.9068564397        8.9413822208  CLST         418          1.0000000000
      1255       419  TIP3  OH2          15.0511228340        0.2976152570       -6.2825348950  CLST         419          1.0000000000
      1256       419  TIP3  H1           15.5942181801        1.4038567674       -4.9031759633  CLST         419          1.0000000000
      1257       419  TIP3  H2           15.6232313808        1.0011748963       -6.2835093403  CLST         419          1.0000000000
      1258       420  TIP3  OH2          -8.2301746251       -8.2026303669        3.6062829600  CLST         420          1.0000000000
      1259       420  TIP3  H1           -8.9712147849       -7.6747413545        3.1570798714  CLST         420          1.0000000000
      1260       420  TIP3  H2           -8.6568878423       -9.0823709066        3.4401144918  CLST         420          1.0000000000
      1261       421  TIP3  OH2           3.5389797313       -6.3642189287      -13.3255219193  CLST         421          1.0000000000
      1262       421  TIP3  H1            4.4721530837       -6.7087305116      -13.2478111204  CLST         421          1.0000000000
      1263       421  TIP3  H2            3.1100020974       -7.3035331024      -13.3721598279  CLST         421          1.0000000000
      1264       422  TIP3  OH2          -1.8408452322       -9.6815491121       -1.7745218183  CLST         422          1.0000000000
      1265       422  TIP3  H1           -1.3339157733      -10.5043173795       -1.5069137447  CLST         422          1.0000000000
      1266       422  TIP3  H2           -2.7595493424      -10.1300818908       -1.7034504412  CLST         422          1.0000000000
      1267       423  TIP3  OH2           1.6884563558        4.8719047721       -3.9877780321  CLST         423          1.0000000000
      1268       423  TIP3  H1            2.5122490899        5.2316059923       -4.4512983208  CLST         423          1.0000000000
      1269       423  TIP3  H2            2.0774412368        4.4706150534       -3.1901258740  CLST         423          1.0000000000
      1270       424  TIP3  OH2          -8.9995203296        4.4032422065        4.4144065136  CLST         424          1.0000000000
      1271       424  TIP3  H1           -8.8387912687        3.7305234526        3.7287466061  CLST         424          1.0000000000
      1272       424  TIP3  H2           -8.3115047208        5.0534761372        4.2468872750  CLST         424          1.0000000000
      1273       425  TIP3  OH2           8.0934049525      -12.7044768258        8.3742978604  CLST         425          1.0000000000
      1274       425  TIP3  H1            8.2908888256      -12.4056804326        7.4599173828  CLST         425          1.0000000000
      1275       425  TIP3  H2            7.3513562869      -12.0451608625        8.4878529519  CLST         425          1.0000000000
      1276       426  TIP3  OH2           8.3179856167        2.3193388573        8.2191376265  CLST         426          1.0000000000
      1277       426  TIP3  H1            9.0477314052        2.1513542588        8.8660190966  CLST         426          1.0000000000
      1278       426  TIP3  H2            8.4808126006        3.2901219776        8.0904438757  CLST         426          1.0000000000
      1279       427  TIP3  OH2          11.4508078095        7.5011575271       10.8511899879  CLST         427          1.0000000000
      1280       427  TIP3  H1           11.3877185979        7.8798712732       11.7570599974  CLST         427          1.0000000000
      1281       427  TIP3  H2           10.6204740689        6.9486653640       10.7879622640  CLST         427          1.0000000000
      1282       428  TIP3  OH2          12.4731033045        7.6152642265        1.1023764171  CLST         428          1.0000000000
      1283       428  TIP3  H1           12.2251605745        8.1164685681        0.2237597951  CLST         428          1.0000000000
      1284       428  TIP3  H2           13.3867030188        7.7466817658        1.0334621152  CLST         428          1.0000000000
      1285       429  TIP3  OH2          11.9998391899       -9.8151912929       -0.7656955234  CLST         429          1.0000000000
      1286       429  TIP3  H1           12.0759222816       -9.3659220496        0.1352021185  CLST         429          1.0000000000
      1287       429  TIP3  H2           11.3820829035       -9.1709779915       -1.1739014366  CLST         429          1.0000000000
      1288       430  TIP3  OH2           9.9370227162       -6.7562621048        3.6959980965  CLST         430          1.0000000000
      1289       430  TIP3  H1            9.8411016570       -7.1707845352        2.7687923772  CLST         430          1.0000000000
      1290       430  TIP3  H2           10.9157379312       -6.6170401677        3.6532125692  CLST         430          1.0000000000
      1291       431  TIP3  OH2         -12.7258184540        9.3745259525       -2.5498579232  CLST         431          1.0000000000
      1292       431  TIP3  H1          -13.4682667314        9.5324166019       -3.1055005164  CLST         431          1.0000000000
      1293       431  TIP3  H2          -13.2081355653        9.2051119247       -1.6769255713  CLST         431          1.0000000000
      1294       432  TIP3  OH2           5.4331846396        8.5330747145      -10.0304819726  CLST         432          1.0000000000
      1295       432  TIP3  H1            5.8349904707        8.7856628930       -9.1550488559  CLST         432          1.0000000000
      1296       432  TIP3  H2            4.7445274444        9.2731972380      -10.0148999840  CLST         432          1.0000000000
      1297       433  TIP3  OH2          -0.7555045122        8.1216517797        7.8133950370  CLST         433          1.0000000000
      1298       433  TIP3  H1           -1.5532679140        8.5986928489        8.1196903871  CLST         433          1.0000000000
      1299       433  TIP3  H2           -1.0962142481        7.4031390014        7.2567859184  CLST         433          1.0000000000
      1300       434  TIP3  OH2          -7.2735917285        0.7228806606        3.7625178775  CLST         434          1.0000000000
      1301       434  TIP3  H1           -7.6802896166        1.4328319557        3.1982565389  CLST         434          1.0000000000
      1302       434  TIP3  H2           -7.9395194787       -0.0101063722        3.5109389945  CLST         434          1.0000000000
      1303       435  TIP3  OH2           9.8975609866       -0.4522948814       -7.2366932621  CLST         435          1.0000000000
      1304       435  TIP3  H1           10.1718563278       -0.6980402754       -6.3407001634  CLST         435          1.0000000000
      1305       435  TIP3  H2            9.9902188523        0.4951554350       -7.2540256020  CLST         435          1.0000000000
      1306       436  TIP3  OH2           3.7198968648       10.4617158280       -8.9949166666  CLST         436          1.0000000000
      1307       436  TIP3  H1            4.0242825507       11.2187354573       -8.4277931063  CLST         436          1.0000000000
      1308       436  TIP3  H2            2.8954650415       10.1578876123       -8.5880899300  CLST         436          1.0000000000
      1309       437  TIP3  OH2          -8.3099520469       -0.9211823052       -7.9640200550  CLST         437          1.0000000000
      1310       437  TIP3  H1           -8.5742999538       -0.4932995236       -8.8161040989  CLST         437          1.0000000000
      1311       437  TIP3  H2           -7.3545925448       -0.6182782646       -7.9374967130  CLST         437          1.0000000000
      1312       438  TIP3  OH2          -3.3663960956        5.5116429745       -8.1844159809  CLST         438          1.0000000000
      1313       438  TIP3  H1           -4.2354153175        5.9817841496       -7.9793431430  CLST         438          1.0000000000
      1314       438  TIP3  H2           -3.3886189042        5.8920122741       -9.1147425592  CLST         438          1.0000000000
      1315       439  TIP3  OH2          14.2028479638        1.7290443683       -3.9820683960  CLST         439          1.0000000000
      1316       439  TIP3  H1           13.4233538398        2.3560476878       -4.1967817358  CLST         439          1.0000000000
      1317       439  TIP3  H2           13.7459501798        1.3485298634       -3.1880975123  CLST         439          1.0000000000
      1318       440  TIP3  OH2           1.1221473914      -12.8063505210      -11.2399700294  CLST         440          1.0000000000
      1319       440  TIP3  H1            0.0512095529      -12.5209435957      -11.1536889775  CLST         440          1.0000000000
      1320       440  TIP3  H2            1.1185937157      -13.5922145180      -11.6068725111  CLST         440          1.0000000000
      1321       441  TIP3  OH2          -1.4021654155       -4.2637015162        3.0998694255  CLST         441          1.0000000000
      1322       441  TIP3  H1           -1.8593157096       -3.5226336133        3.2226227893  CLST         441          1.0000000000
      1323       441  TIP3  H2           -1.1199184433       -4.6130366697        3.9974052848  CLST         441          1.0000000000
      1324       442  TIP3  OH2           3.2771637932       -9.7884172083       -7.9680403709  CLST         442          1.0000000000
      1325       442  TIP3  H1            3.9189754409      -10.1414781495       -8.6377736462  CLST         442          1.0000000000
      1326       442  TIP3  H2            2.5291095325       -9.5041264882       -8.5651668220  CLST         442          1.0000000000
      1327       443  TIP3  OH2           1.1976272666       10.3811649625      -12.8273637642  CLST         443          1.0000000000
      1328       443  TIP3  H1            1.4840025322       11.1260831269      -12.2090865128  CLST         443          1.0000000000
      1329       443  TIP3  H2            1.6040211637       10.4240329482      -13.5606073278  CLST         443          1.0000000000
      1330       444  TIP3  OH2          -7.8931230209        1.3827144630       -1.8814990057  CLST         444          1.0000000000
      1331       444  TIP3  H1           -8.0566722201        2.1929658376       -2.4475868137  CLST         444          1.0000000000
      1332       444  TIP3  H2           -7.4656009706        1.8668910058       -1.1453966901  CLST         444          1.0000000000
      1333       445  TIP3  OH2         -11.4618252387       -5.2603354917        6.1677510034  CLST         445          1.0000000000
      1334       445  TIP3  H1          -11.5814537113       -4.2659825169        5.9664528654  CLST         445          1.0000000000
      1335       445  TIP3  H2          -11.3720136632       -5.1499905093        7.1404156026  CLST         445          1.0000000000
      1336       446  TIP3  OH2          -2.9309664457        4.6658734657       -5.2658931346  CLST         446          1.0000000000
      1337       446  TIP3  H1           -3.1060129515        4.9061980566       -6.1901154272  CLST         446          1.0000000000
      1338       446  TIP3  H2           -2.0290821021        5.0789796102       -5.2236943834  CLST         446          1.0000000000
      1339       447  TIP3  OH2          -5.0687772921      -12.5510566203       -3.7683111657  CLST         447          1.0000000000
      1340       447  TIP3  H1           -5.5744835163      -13.2767156608       -3.4629575552  CLST         447          1.0000000000
      1341       447  TIP3  H2           -4.6694153266      -12.1508745034       -2.9498842568  CLST         447          1.0000000000
      1342       448  TIP3  OH2           7.2966113645        9.5913689554        4.7867193531  CLST         448          1.0000000000
      1343       448  TIP3  H1            7.4663479444        9.5685847141        5.7784610499  CLST         448          1.0000000000
      1344       448  TIP3  H2            6.5506386916       10.2712613346        4.8520591139  CLST         448          1.0000000000
      1345       449  TIP3  OH2           4.2198951810        5.1775362956        8.5757373750  CLST         449          1.0000000000
      1346       449  TIP3  H1            4.8041587418        4.5532750913        9.1271800670  CLST         449          1.0000000000
      1347       449  TIP3  H2            3.9972270143        4.6321119303        7.8159591553  CLST         449          1.0000000000
      1348       450  TIP3  OH2          -4.0605989163        0.4502635791       -2.0988542039  CLST         450          1.0000000000
      1349       450  TIP3  H1           -3.6371573143        1.1023959178       -2.6869693479  CLST         450          1.0000000000
      1350       450  TIP3  H2           -3.2922733880        0.0249105653       -1.6815294278  CLST         450          1.0000000000
      1351       451  TIP3  OH2          13.4718187848       -1.8939695084       -5.8296722558  CLST         451          1.0000000000
      1352       451  TIP3  H1           14.8746657814       -1.9878783184       -5.6791270816  CLST         451          1.0000000000
      1353       451  TIP3  H2           14.6485672068       -1.1417093455       -6.1834072426  CLST         451          1.0000000000
      1354       452  TIP3  OH2           8.3898398483        4.9622803903        8.0042760691  CLST         452          1.0000000000
      1355       452  TIP3  H1            7.6185833003        5.6019107446        7.8577562878  CLST         452          1.0000000000
      1356       452  TIP3  H2            9.0842297183        5.5140602034        7.6160070634  CLST         452          1.0000000000
      1357       453  TIP3  OH2           7.0333651316        2.7641720428       -6.1434434310  CLST         453          1.0000000000
      1358       453  TIP3  H1            6.2887658933        2.4478447723       -5.5828267118  CLST         453          1.0000000000
      1359       453  TIP3  H2            6.5060780427        2.7844470185       -6.9630286957  CLST         453          1.0000000000
      1360       454  TIP3  OH2           1.1771670129        5.4873043329        1.9307187442  CLST         454          1.0000000000
      1361       454  TIP3  H1            0.2715903075        5.0728731725        1.8424828306  CLST         454          1.0000000000
      1362       454  TIP3  H2            0.9313080076        6.1559353097        2.6283623260  CLST         454          1.0000000000
      1363       455  TIP3  OH2          -1.1203158275        0.8920386518      -10.3289221411  CLST         455          1.0000000000
      1364       455  TIP3  H1           -1.5362941634        1.1899848562       -9.4950853621  CLST         455          1.0000000000
      1365       455  TIP3  H2           -0.8425837192        1.8403061429      -10.5521947887  CLST         455          1.0000000000
      1366       456  TIP3  OH2           5.3381369191       11.2789986024        5.2421476129  CLST         456          1.0000000000
      1367       456  TIP3  H1            4.7300162123       11.4900661194        4.5002413433  CLST         456          1.0000000000
      1368       456  TIP3  H2            4.6992396433       11.2017107926        5.9908151218  CLST         456          1.0000000000
      1369       457  TIP3  OH2          -4.8759345710       -7.7218035755        4.8825398086  CLST         457          1.0000000000
      1370       457  TIP3  H1           -5.6554695811       -7.9005453301        5.4396816902  CLST         457          1.0000000000
      1371       457  TIP3  H2           -5.2790636893       -7.2213253520        4.1218756950  CLST         457          1.0000000000
      1372       458  TIP3  OH2           8.0505468013       -6.5182774297      -11.2148806243  CLST         458          1.0000000000
      1373       458  TIP3  H1            8.9866793422       -6.3498873172      -11.5087568079  CLST         458          1.0000000000
      1374       458  TIP3  H2            7.9298329910       -5.6227293781      -10.8188785918  CLST         458          1.0000000000
      1375       459  TIP3  OH2           6.5701124888       -9.8869803236       -7.9393047805  CLST         459          1.0000000000
      1376       459  TIP3  H1            6.1234187792       -9.0662246107       -7.6374891368  CLST         459          1.0000000000
      1377       459  TIP3  H2            7.3276772231       -9.4404341944       -8.4748131913  CLST         459          1.0000000000
      1378       460  TIP3  OH2           9.1128872923       -2.1050474350       -2.8656479965  CLST         460          1.0000000000
      1379       460  TIP3  H1            9.6707335985       -2.7503315651       -2.3788691906  CLST         460          1.0000000000
      1380       460  TIP3  H2            9.8285746802       -1.6501475445       -3.4007323400  CLST         460          1.0000000000
      1381       461  TIP3  OH2          -1.3987441942      -12.8410879255       -5.3662303403  CLST         461          1.0000000000
      1382       461  TIP3  H1           -0.6419770824      -12.9115542309       -5.9872429969  CLST         461          1.0000000000
      1383       461  TIP3  H2           -0.9279135899      -13.1649847781       -4.5334164634  CLST         461          1.0000000000
      1384       462  TIP3  OH2          -0.0189300411        5.4157241935      -12.7475291719  CLST         462          1.0000000000
      1385       462  TIP3  H1            0.2468495397        6.3778996952      -12.5253395656  CLST         462          1.0000000000
      1386       462  TIP3  H2            0.8325550250        5.2492652054      -13.1579703052  CLST         462          1.0000000000
      1387       463  TIP3  OH2          -1.7463132419        1.8322458010       -7.7644702775  CLST         463          1.0000000000
      1388       463  TIP3  H1           -1.5684371986        0.9364852728       -7.3128583698  CLST         463          1.0000000000
      1389       463  TIP3  H2           -2.7010103147        1.8835797395       -7.4558527005  CLST         463          1.0000000000
      1390       464  TIP3  OH2          -6.5601892678        6.3195826875        4.3480061439  CLST         464          1.0000000000
      1391       464  TIP3  H1           -6.2371617243        5.6490420916        4.9205928669  CLST         464          1.0000000000
      1392       464  TIP3  H2           -6.9454631088        6.9833793105        5.0193951963  CLST         464          1.0000000000
      1393       465  TIP3  OH2          -4.6573325852      -12.4336916097        6.2512028927  CLST         465          1.0000000000
      1394       465  TIP3  H1           -3.7950950378      -12.9105976119        6.2052882930  CLST         465          1.0000000000
      1395       465  TIP3  H2           -4.2725232744      -11.5231294852        6.3541557796  CLST         465          1.0000000000
      1396       466  TIP3  OH2          -2.4139391261        9.2194192354       -4.3325739073  CLST         466          1.0000000000
      1397       466  TIP3  H1           -3.0931073587        9.2579435295       -5.0803870628  CLST         466          1.0000000000
      1398       466  TIP3  H2           -2.6633885112       10.0420138869       -3.8632072253  CLST         466          1.0000000000
      1399       467  TIP3  OH2           8.2609528362        5.9019159190        4.6111871112  CLST         467          1.0000000000
      1400       467  TIP3  H1            8.6613882049        6.4009983501        5.3588935345  CLST         467          1.0000000000
      1401       467  TIP3  H2            8.0021809199        6.6546932961        4.0059105286  CLST         467          1.0000000000
      1402       468  TIP3  OH2          -0.5444781410      -12.3329586646       10.3866418428  CLST         468          1.0000000000
      1403       468  TIP3  H1           -0.9615634485      -11.9401656300       11.1675594515  CLST         468          1.0000000000
      1404       468  TIP3  H2            0.4211016997      -12.3281195643       10.5896136687  CLST         468          1.0000000000
      1405       469  TIP3  OH2           5.5471596345        8.2893436219       14.2184528962  CLST         469          1.0000000000
      1406       469  TIP3  H1            6.4082770633        8.5326561587       13.8503620717  CLST         469          1.0000000000
      1407       469  TIP3  H2            5.0014473546        8.9272032784       13.7451267667  CLST         469          1.0000000000
      1408       470  TIP3  OH2         -11.1970290208       12.7936970991        0.6514710736  CLST         470          1.0000000000
      1409       470  TIP3  H1          -10.9948291996       12.7526035959       -0.2825266797  CLST         470          1.0000000000
      1410       470  TIP3  H2          -11.5643518673       11.9268737815        0.8765147399  CLST         470          1.0000000000
      1411       471  TIP3  OH2          -4.2352817867        9.7480648359       -9.1354117440  CLST         471          1.0000000000
      1412       471  TIP3  H1           -4.4828693022        8.7956926327       -9.2075039018  CLST         471          1.0000000000
      1413       471  TIP3  H2           -4.5957497777       10.0126823947      -10.0296549360  CLST         471          1.0000000000
      1414       472  TIP3  OH2         -11.8553928406        3.8680820676        2.8066554771  CLST         472          1.0000000000
      1415       472  TIP3  H1          -12.2304084680        3.0216271052        3.1739779856  CLST         472          1.0000000000
      1416       472  TIP3  H2          -11.5181034115        3.4828388624        1.9657624668  CLST         472          1.0000000000
      1417       473  TIP3  OH2           5.3766800221        0.7377920897       10.1865760239  CLST         473          1.0000000000
      1418       473  TIP3  H1            5.9245562699        1.4960199792       10.4765758731  CLST         473          1.0000000000
      1419       473  TIP3  H2            4.5178324428        1.1377035255       10.0768083933  CLST         473          1.0000000000
      1420       474  TIP3  OH2           1.2492419452        1.5618256081        1.5119537977  CLST         474          1.0000000000
      1421       474  TIP3  H1            0.2611330401        1.4480998872        1.6584167822  CLST         474          1.0000000000
      1422       474  TIP3  H2            1.2073678408        1.4259363221        0.5510896472  CLST         474          1.0000000000
      1423       475  TIP3  OH2           6.0588297007       -8.7263833136       12.0103067869  CLST         475          1.0000000000
      1424       475  TIP3  H1            7.0106856852       -8.7292313113       12.2421063671  CLST         475          1.0000000000
      1425       475  TIP3  H2            6.0804289098       -9.0341386445       11.0707593416  CLST         475          1.0000000000
      1426       476  TIP3  OH2         -11.5203535286       -8.9353658179       -0.0198721099  CLST         476          1.0000000000
      1427       476  TIP3  H1          -11.7812392084       -8.0879088703       -0.5698467756  CLST         476          1.0000000000
      1428       476  TIP3  H2          -10.9052056051       -9.1828416005       -0.7211462861  CLST         476          1.0000000000
      1429       477  TIP3  OH2         -12.5691374241        3.7256024740      -13.4842895476  CLST         477          1.0000000000
      1430       477  TIP3  H1          -13.0209853861        2.9220182739      -13.4257349273  CLST         477          1.0000000000
      1431       477  TIP3  H2          -11.8317786217        3.4324750031      -14.0100860442  CLST         477          1.0000000000
      1432       478  TIP3  OH2          -3.9746394783        6.6072251891      -10.6487637262  CLST         478          1.0000000000
      1433       478  TIP3  H1           -4.5821091821        6.5889119967      -11.4261505754  CLST         478          1.0000000000
      1434       478  TIP3  H2           -3.2672925520        7.1730532771      -11.0697507740  CLST         478          1.0000000000
      1435       479  TIP3  OH2           7.8413157573       -1.4684881295       -8.5702640649  CLST         479          1.0000000000
      1436       479  TIP3  H1            8.6218085009       -1.1647661597       -7.9866447333  CLST         479          1.0000000000
      1437       479  TIP3  H2            7.1433186775       -1.1594522224       -7.8925026059  CLST         479          1.0000000000
      1438       480  TIP3  OH2          -6.0895367680        7.6302520999       -0.0717849432  CLST         480          1.0000000000
      1439       480  TIP3  H1           -5.1846214573        7.9319589016       -0.3882629451  CLST         480          1.0000000000
      1440       480  TIP3  H2           -5.8777009032        6.6794596347        0.1148498350  CLST         480          1.0000000000
      1441       481  TIP3  OH2          -3.0044704571        2.5253446600       11.8832436342  CLST         481          1.0000000000
      1442       481  TIP3  H1           -2.0687466829        2.4305661571       11.5833574745  CLST         481          1.0000000000
      1443       481  TIP3  H2           -3.1741488837        1.6957727458       12.3099949818  CLST         481          1.0000000000
      1444       482  TIP3  OH2          -8.0707103084       11.6503808246       -7.5935787846  CLST         482          1.0000000000
      1445       482  TIP3  H1           -8.7107651487       11.3677743000       -8.3046194419  CLST         482          1.0000000000
      1446       482  TIP3  H2           -7.3353467918       12.0652947118       -8.2746324534  CLST         482          1.0000000000
      1447       483  TIP3  OH2           6.3328831001       -5.9507668475       12.6017099701  CLST         483          1.0000000000
      1448       483  TIP3  H1            6.0167747459       -6.8973610066       12.4946258743  CLST         483          1.0000000000
      1449       483  TIP3  H2            6.1826411666       -5.7492937291       11.6483757785  CLST         483          1.0000000000
      1450       484  TIP3  OH2           6.7807830903       -3.0889436240        2.9880702906  CLST         484          1.0000000000
      1451       484  TIP3  H1            5.7926288554       -3.3072063435        2.9957394689  CLST         484          1.0000000000
      1452       484  TIP3  H2            6.7350377309       -2.2404571771        3.5186346811  CLST         484          1.0000000000
      1453       485  TIP3  OH2         -11.7183334001        4.6137080815       10.0344187090  CLST         485          1.0000000000
      1454       485  TIP3  H1          -11.2441490583        3.7418453688        9.9502377716  CLST         485          1.0000000000
      1455       485  TIP3  H2          -12.4639053726        4.3746568358        9.3597773137  CLST         485          1.0000000000
      1456       486  TIP3  OH2           8.4425632637       -7.1663544885       13.5519031809  CLST         486          1.0000000000
      1457       486  TIP3  H1            8.6487970279       -6.8339339583       14.3578651817  CLST         486          1.0000000000
      1458       486  TIP3  H2            7.7430924230       -6.4533772455       13.2985248901  CLST         486          1.0000000000
      1459       487  TIP3  OH2          12.1787540711       -8.4677048794        6.0624053975  CLST         487          1.0000000000
      1460       487  TIP3  H1           11.2038150647       -8.3968936414        5.9116370609  CLST         487          1.0000000000
      1461       487  TIP3  H2           12.0714135229       -8.5437294994        7.0694398387  CLST         487          1.0000000000
      1462       488  TIP3  OH2          15.1605512490        8.3851192104        7.7521131035  CLST         488          1.0000000000
      1463       488  TIP3  H1           15.7816604506        7.7533355206        7.4434515609  CLST         488          1.0000000000
      1464       488  TIP3  H2           14.4687037976        7.8246200838        8.2549425442  CLST         488          1.0000000000
      1465       489  TIP3  OH2          -6.1305862299      -10.8497263189       11.8232076474  CLST         489          1.0000000000
      1466       489  TIP3  H1           -6.3684391812       -9.9339407658       11.7245883553  CLST         489          1.0000000000
      1467       489  TIP3  H2           -6.8897147521      -11.2470377877       11.2023037602  CLST         489          1.0000000000
      1468       490  TIP3  OH2           6.8742439445      -13.0143851091        2.2843688323  CLST         490          1.0000000000
      1469       490  TIP3  H1            6.7710163538      -12.2220304815        2.8049159058  CLST         490          1.0000000000
      1470       490  TIP3  H2            6.8133203149      -13.6739065044        2.9516609115  CLST         490          1.0000000000
      1471       491  TIP3  OH2           3.0534841995       -9.2253184727        5.0751892639  CLST         491          1.0000000000
      1472       491  TIP3  H1            2.2177476763       -9.1059754529        5.5841045084  CLST         491          1.0000000000
      1473       491  TIP3  H2            2.7055238532       -9.7433680918        4.3296726379  CLST         491          1.0000000000
      1474       492  TIP3  OH2          -0.6065779307       -6.5455063875       12.3674801975  CLST         492          1.0000000000
      1475       492  TIP3  H1           -0.4415889873       -7.5410936936       12.3969148525  CLST         492          1.0000000000
      1476       492  TIP3  H2           -1.5109186562       -6.5631630808       12.0878068219  CLST         492          1.0000000000
      1477       493  TIP3  OH2           3.4512954979       10.6809257583        7.1797530972  CLST         493          1.0000000000
      1478       493  TIP3  H1            4.1977819423       10.6321828774        7.8873931140  CLST         493          1.0000000000
      1479       493  TIP3  H2            2.7045691209       10.3612596727        7.7649488918  CLST         493          1.0000000000
      1480       494  TIP3  OH2          -9.1686506965        5.4264290200       -0.7336045339  CLST         494          1.0000000000
      1481       494  TIP3  H1           -9.5221149314        5.9199403535       -1.4920292011  CLST         494          1.0000000000
      1482       494  TIP3  H2           -9.5985454233        5.9146303731        0.0253926603  CLST         494          1.0000000000
      1483       495  TIP3  OH2           5.0205598045       -6.9191054155       -1.9832718273  CLST         495          1.0000000000
      1484       495  TIP3  H1            5.7403642433       -6.3743460793       -2.4386860308  CLST         495          1.0000000000
      1485       495  TIP3  H2            5.7486138067       -7.5010300630       -1.5762454017  CLST         495          1.0000000000
      1486       496  TIP3  OH2         -12.7693118075      -10.8206193917        7.6143061666  CLST         496          1.0000000000
      1487       496  TIP3  H1          -13.6060074932      -11.1321157632        7.8892769115  CLST         496          1.0000000000
      1488       496  TIP3  H2          -12.6149499309      -11.4562133798        6.8936812223  CLST         496          1.0000000000
      1489       497  TIP3  OH2          -9.6676797556      -13.3749771686       -7.3445651626  CLST         497          1.0000000000
      1490       497  TIP3  H1           -9.8986131018      -14.2192984907       -7.5360223510  CLST         497          1.0000000000
      1491       497  TIP3  H2           -9.9617865094      -12.8214706501       -8.0394349755  CLST         497          1.0000000000
      1492       498  TIP3  OH2          -5.6210146626        0.4564420998      -11.1303558448  CLST         498          1.0000000000
      1493       498  TIP3  H1           -5.9013701517        0.5378923844      -12.0516000383  CLST         498          1.0000000000
      1494       498  TIP3  H2           -5.5038083032        1.3736228948      -10.8158776864  CLST         498          1.0000000000
      1495       499  TIP3  OH2          11.4781984906        6.6143259459        3.6144198995  CLST         499          1.0000000000
      1496       499  TIP3  H1           11.8981998618        7.0274675857        2.8398044844  CLST         499          1.0000000000
      1497       499  TIP3  H2           11.2729088184        7.3870493725        4.1713707313  CLST         499          1.0000000000
      1498       500  TIP3  OH2           2.3396433890       -8.7406296878      -13.3276872225  CLST         500          1.0000000000
      1499       500  TIP3  H1            1.9227638746       -9.2545855234      -13.9933608259  CLST         500          1.0000000000
      1500       500  TIP3  H2            2.5460035354       -9.5364455583      -12.7349686478  CLST         500          1.0000000000
      1501       501  TIP3  OH2           1.2623349634      -10.8793388050       13.9665741578  CLST         501          1.0000000000
      1502       501  TIP3  H1            1.1994057608      -11.7486777634       14.2496146627  CLST         501          1.0000000000
      1503       501  TIP3  H2            2.2220244757      -10.6937642016       13.8463623283  CLST         501          1.0000000000
      1504       502  TIP3  OH2           6.0750587408        3.7292747624        9.7121670235  CLST         502          1.0000000000
      1505       502  TIP3  H1            6.5139972070        4.0693742227       10.5145076936  CLST         502          1.0000000000
      1506       502  TIP3  H2            6.8173801989        3.2689015538        9.2727931037  CLST         502          1.0000000000
      1507       503  TIP3  OH2          10.3874293073       -0.9162255638        0.3051528040  CLST         503          1.0000000000
      1508       503  TIP3  H1           11.1549148972       -0.4597590470        0.7025547781  CLST         503          1.0000000000
      1509       503  TIP3  H2           10.1231943541       -0.2799207970       -0.4010218947  CLST         503          1.0000000000
      1510       504  TIP3  OH2           8.2594526850      -13.6696542204       10.8513362018  CLST         504          1.0000000000
      1511       504  TIP3  H1            8.3167293224      -13.4868072117        9.8697790921  CLST         504          1.0000000000
      1512       504  TIP3  H2            8.5815478584      -14.4972066081       10.9616912416  CLST         504          1.0000000000
      1513       505  TIP3  OH2           3.6213886951      -10.9510560029       -5.6042522188  CLST         505          1.0000000000
      1514       505  TIP3  H1            3.4946561502      -10.3702324213       -6.4259590870  CLST         505          1.0000000000
      1515       505  TIP3  H2            3.1402288310      -10.3670061364       -4.9860210794  CLST         505          1.0000000000
      1516       506  TIP3  OH2          -9.0966801039       -3.4511235185       -8.1608179627  CLST         506          1.0000000000
      1517       506  TIP3  H1           -8.7533374714       -2.4934706605       -8.1143795433  CLST         506          1.0000000000
      1518       506  TIP3  H2           -9.9316776994       -3.2736665890       -8.6372245100  CLST         506          1.0000000000
      1519       507  TIP3  OH2          11.1370089724        9.7504415056      -12.7792474838  CLST         507          1.0000000000
      1520       507  TIP3  H1           11.4635661529        9.6679509622      -13.5700845532  CLST         507          1.0000000000
      1521       507  TIP3  H2           10.9992461660        8.7510875477      -12.4574146231  CLST         507          1.0000000000
      1522       508  TIP3  OH2           9.3182542748       12.2243967854        8.9392018051  CLST         508          1.0000000000
      1523       508  TIP3  H1            8.9235770626       12.2995158555        8.0472185191  CLST         508          1.0000000000
      1524       508  TIP3  H2           10.2350697761       12.4163289380        8.6424730643  CLST         508          1.0000000000
      1525       509  TIP3  OH2          -0.7442046140       -1.4681558242      -11.3454961108  CLST         509          1.0000000000
      1526       509  TIP3  H1           -1.7023666489       -1.6225758492      -11.4618350500  CLST         509          1.0000000000
      1527       509  TIP3  H2           -0.7748018995       -0.5150759132      -10.9947362899  CLST         509          1.0000000000
      1528       510  TIP3  OH2           8.2055462976        2.2337552210       11.6473547551  CLST         510          1.0000000000
      1529       510  TIP3  H1            8.1306643562        1.2291917931       11.6713854217  CLST         510          1.0000000000
      1530       510  TIP3  H2            9.1791732314        2.2562255480       11.2143840979  CLST         510          1.0000000000
      1531       511  TIP3  OH2          -8.7295639129       -5.9749902788       -0.7969563763  CLST         511          1.0000000000
      1532       511  TIP3  H1           -9.6826387629       -6.1378011883       -0.8973999762  CLST         511          1.0000000000
      1533       511  TIP3  H2           -8.6965834583       -5.2305383727       -1.4173536745  CLST         511          1.0000000000
      1534       512  TIP3  OH2          10.0320319052        7.0568785248        6.9368903365  CLST         512          1.0000000000
      1535       512  TIP3  H1           10.2069050535        7.7027262591        7.6718506422  CLST         512          1.0000000000
      1536       512  TIP3  H2           10.3305016779        7.6827799732        6.2119366056  CLST         512          1.0000000000
      1537       513  TIP3  OH2         -11.7545297359       10.4321347116        9.1510943145  CLST         513          1.0000000000
      1538       513  TIP3  H1          -11.2949101774       11.2520361869        9.4465333040  CLST         513          1.0000000000
      1539       513  TIP3  H2          -11.7304396751        9.9608082552       10.0138875634  CLST         513          1.0000000000
      1540       514  TIP3  OH2          -4.8235255991        5.0497367351        0.1726808481  CLST         514          1.0000000000
      1541       514  TIP3  H1           -4.0237587973        5.5047019236        0.5311130301  CLST         514          1.0000000000
      1542       514  TIP3  H2           -4.6004067955        5.0186379959       -0.7970991414  CLST         514          1.0000000000
      1543       515  TIP3  OH2          -0.8023044730        0.9051206343       -4.2399128055  CLST         515          1.0000000000
      1544       515  TIP3  H1           -1.6171719372        1.4601577403       -4.3873387100  CLST         515          1.0000000000
      1545       515  TIP3  H2           -0.0733082639        1.4478791602       -4.6374187150  CLST         515          1.0000000000
      1546       516  TIP3  OH2          -7.3187537962       -8.5032305351        6.3747650037  CLST         516          1.0000000000
      1547       516  TIP3  H1           -7.6027403353       -8.6070001202        5.4276622901  CLST         516          1.0000000000
      1548       516  TIP3  H2           -7.9157066039       -7.6857045490        6.5688730741  CLST         516          1.0000000000
      1549       517  TIP3  OH2           0.5448286241       11.0552190887       11.4812610972  CLST         517          1.0000000000
      1550       517  TIP3  H1            0.5055598675       10.7172749416       10.5843124363  CLST         517          1.0000000000
      1551       517  TIP3  H2           -0.4371802736       11.2824343559       11.5044872538  CLST         517          1.0000000000
      1552       518  TIP3  OH2         -11.6932809732       -3.4990412412      -11.4156774084  CLST         518          1.0000000000
      1553       518  TIP3  H1          -12.0902629442       -3.1529416829      -12.1878646528  CLST         518          1.0000000000
      1554       518  TIP3  H2          -10.7946983929       -3.6677299339      -11.7981857136  CLST         518          1.0000000000
      1555       519  TIP3  OH2           2.1626212521        3.4022218676        3.3431947732  CLST         519          1.0000000000
      1556       519  TIP3  H1            1.9137017766        4.1996922598        2.7792400347  CLST         519          1.0000000000
      1557       519  TIP3  H2            1.8408423461        2.7171142812        2.7096841249  CLST         519          1.0000000000
      1558       520  TIP3  OH2         -10.2821095229        6.2914799885        8.0883672339  CLST         520          1.0000000000
      1559       520  TIP3  H1          -10.5346844912        5.7310092029        7.2950215710  CLST         520          1.0000000000
      1560       520  TIP3  H2          -10.8792426326        5.8527702992        8.7572365569  CLST         520          1.0000000000
      1561       521  TIP3  OH2           8.4587332410       -8.8727103724       -9.5379225560  CLST         521          1.0000000000
      1562       521  TIP3  H1            8.6858508735       -9.4928577889      -10.2583342851  CLST         521          1.0000000000
      1563       521  TIP3  H2            8.2600661227       -8.0550443135      -10.0568884842  CLST         521          1.0000000000
      1564       522  TIP3  OH2          -5.5015990952       -7.0092791152        8.0968842683  CLST         522          1.0000000000
      1565       522  TIP3  H1           -6.0994761932       -7.6839984723        7.8035707284  CLST         522          1.0000000000
      1566       522  TIP3  H2           -4.5843987054       -7.3470330476        8.2018274793  CLST         522          1.0000000000
      1567       523  TIP3  OH2          -4.0062459008       12.0189628493      -13.5658109693  CLST         523          1.0000000000
      1568       523  TIP3  H1           -3.0153666446       11.8048323427      -13.3723977676  CLST         523          1.0000000000
      1569       523  TIP3  H2           -3.9279599985       12.5665642790      -14.2258860991  CLST         523          1.0000000000
      1570       524  TIP3  OH2           6.8967757208        3.8407856787       -1.7813411015  CLST         524          1.0000000000
      1571       524  TIP3  H1            7.2147449328        3.1220811810       -2.3529765553  CLST         524          1.0000000000
      1572       524  TIP3  H2            5.9439758017        3.9119954639       -2.0160054598  CLST         524          1.0000000000
      1573       525  TIP3  OH2           0.4239115911        6.8404373939       -2.5190635709  CLST         525          1.0000000000
      1574       525  TIP3  H1            0.8255636605        6.4371771185       -3.3150367520  CLST         525          1.0000000000
      1575       525  TIP3  H2            0.2279916958        5.9536360734       -2.0655926205  CLST         525          1.0000000000
      1576       526  TIP3  OH2           7.0147304652       -5.4599437374       -3.6240723784  CLST         526          1.0000000000
      1577       526  TIP3  H1            7.1832199245       -5.7729112421       -4.5434484931  CLST         526          1.0000000000
      1578       526  TIP3  H2            7.9292173962       -5.3923670221       -3.2623723480  CLST         526          1.0000000000
      1579       527  TIP3  OH2           0.3612473260        7.1558798623        4.0029878849  CLST         527          1.0000000000
      1580       527  TIP3  H1            1.1030182322        7.2643472432        4.7362032030  CLST         527          1.0000000000
      1581       527  TIP3  H2            0.3691886688        8.1304754534        3.8733610899  CLST         527          1.0000000000
      1582       528  TIP3  OH2          -2.7054259384        9.9196691174        8.7665158271  CLST         528          1.0000000000
      1583       528  TIP3  H1           -3.1369592093        9.5706759704        9.5904974454  CLST         528          1.0000000000
      1584       528  TIP3  H2           -3.5498362998       10.2293204095        8.3343134514  CLST         528          1.0000000000
      1585       529  TIP3  OH2          -6.1238857497       12.3127364339       -9.4141576526  CLST         529          1.0000000000
      1586       529  TIP3  H1           -5.2072287791       12.3410582292       -9.1720020704  CLST         529          1.0000000000
      1587       529  TIP3  H2           -6.0373536305       12.2370876248      -10.3642201579  CLST         529          1.0000000000
      1588       530  TIP3  OH2          -4.4137931346       -5.5258458642      -13.1253682971  CLST         530          1.0000000000
      1589       530  TIP3  H1           -4.3510376333       -6.5397179042      -13.0623284694  CLST         530          1.0000000000
      1590       530  TIP3  H2           -3.4773281367       -5.2564032660      -13.0525605134  CLST         530          1.0000000000
      1591       531  TIP3  OH2         -11.5694774772       -0.1540047192       10.4065362418  CLST         531          1.0000000000
      1592       531  TIP3  H1          -12.1045529327       -0.3661140243       11.1234436959  CLST         531          1.0000000000
      1593       531  TIP3  H2          -11.8004817111       -0.7868500443        9.7029880134  CLST         531          1.0000000000
      1594       532  TIP3  OH2         -12.0045134223       -3.0392733939       -8.8489622069  CLST         532          1.0000000000
      1595       532  TIP3  H1          -12.5199197711       -3.7601089324       -8.4933252027  CLST         532          1.0000000000
      1596       532  TIP3  H2          -12.0271644243       -3.2625231485       -9.8568572470  CLST         532          1.0000000000
      1597       533  TIP3  OH2          -2.9275244693       -7.2295440515        8.6726327399  CLST         533          1.0000000000
      1598       533  TIP3  H1           -2.2808508388       -7.9200302477        8.4597111070  CLST         533          1.0000000000
      1599       533  TIP3  H2           -2.4401616816       -6.4066013810        8.3899073062  CLST         533          1.0000000000
      1600       534  TIP3  OH2           0.3723397439      -13.1337088390       -7.5963808864  CLST         534          1.0000000000
      1601       534  TIP3  H1            0.7339909298      -13.0057489875       -8.4970550900  CLST         534          1.0000000000
      1602       534  TIP3  H2            1.2914101449      -13.3050320644       -7.2003071938  CLST         534          1.0000000000
      1603       535  TIP3  OH2           2.8136418508        3.1255536085       -7.5227366065  CLST         535          1.0000000000
      1604       535  TIP3  H1            3.3439099879        2.5836459836       -6.8776329208  CLST         535          1.0000000000
      1605       535  TIP3  H2            1.9104416671        2.9499771212       -7.1729163182  CLST         535          1.0000000000
      1606       536  TIP3  OH2           8.0160549563      -12.6727060258       -3.4771451422  CLST         536          1.0000000000
      1607       536  TIP3  H1            7.3736184120      -12.6167037368       -4.1799611914  CLST         536          1.0000000000
      1608       536  TIP3  H2            8.4343919949      -13.4815300238       -3.5019999770  CLST         536          1.0000000000
      1609       537  TIP3  OH2          11.6788179863       -2.7045565479       -7.6082708510  CLST         537          1.0000000000
      1610       537  TIP3  H1           11.2763313400       -1.8301118152       -7.4250626934  CLST         537          1.0000000000
      1611       537  TIP3  H2           12.6291574137       -2.4915042786       -7.2606359153  CLST         537          1.0000000000
      1612       538  TIP3  OH2          -5.1621361470      -10.8810309859        0.7588545522  CLST         538          1.0000000000
      1613       538  TIP3  H1           -4.3379833619      -11.0639247841        1.3149085732  CLST         538          1.0000000000
      1614       538  TIP3  H2           -5.0482570630       -9.8983955182        0.6484818110  CLST         538          1.0000000000
      1615       539  TIP3  OH2           2.5066890910       -5.1328814049        0.9691235459  CLST         539          1.0000000000
      1616       539  TIP3  H1            1.5696987230       -5.3789817929        1.2167415919  CLST         539          1.0000000000
      1617       539  TIP3  H2            2.3557322030       -5.2703385236        0.0176648831  CLST         539          1.0000000000
      1618       540  TIP3  OH2           4.0133503347       -6.8129730912        4.6871851692  CLST         540          1.0000000000
      1619       540  TIP3  H1            3.6849825618       -7.7267949206        4.9681495996  CLST         540          1.0000000000
      1620       540  TIP3  H2            4.1477987051       -7.0437451291        3.7172997617  CLST         540          1.0000000000
      1621       541  TIP3  OH2          -5.5738818500       10.5594449961        2.2187129130  CLST         541          1.0000000000
      1622       541  TIP3  H1           -6.0312376259       10.5342746178        3.1233749101  CLST         541          1.0000000000
      1623       541  TIP3  H2           -4.8787705602       11.2518108368        2.4135010572  CLST         541          1.0000000000
      1624       542  TIP3  OH2         -10.9902158011       14.4774258035        5.5589279149  CLST         542          1.0000000000
      1625       542  TIP3  H1          -11.1120776579       15.3807442164        5.3330086517  CLST         542          1.0000000000
      1626       542  TIP3  H2          -10.7442264200       14.0821473381        4.6230693492  CLST         542          1.0000000000
      1627       543  TIP3  OH2         -10.6275618687       11.4835286694       -2.4219201929  CLST         543          1.0000000000
      1628       543  TIP3  H1          -11.5235094517       11.1261918362       -2.4838315542  CLST         543          1.0000000000
      1629       543  TIP3  H2          -10.3768598440       11.6651117310       -3.3556440238  CLST         543          1.0000000000
      1630       544  TIP3  OH2          -0.4455957998        5.6092801586       -5.5886812578  CLST         544          1.0000000000
      1631       544  TIP3  H1           -0.4667223694        5.2231292712       -6.5212373385  CLST         544          1.0000000000
      1632       544  TIP3  H2            0.2877529105        5.1531945195       -5.1816231101  CLST         544          1.0000000000
      1633       545  TIP3  OH2          -7.8944801363        2.4900930931      -12.6157075925  CLST         545          1.0000000000
      1634       545  TIP3  H1           -8.1427244903        2.0907890345      -13.4846211444  CLST         545          1.0000000000
      1635       545  TIP3  H2           -8.5518943664        3.2819163824      -12.6171262724  CLST         545          1.0000000000
      1636       546  TIP3  OH2           3.9140673649       11.0600160374       -2.1285705812  CLST         546          1.0000000000
      1637       546  TIP3  H1            3.5264612637       10.1504539418       -2.4416401694  CLST         546          1.0000000000
      1638       546  TIP3  H2            4.4963672976       10.6615298980       -1.3638635174  CLST         546          1.0000000000
      1639       547  TIP3  OH2          -3.5695794454       -2.1135961290      -11.1368729870  CLST         547          1.0000000000
      1640       547  TIP3  H1           -3.5157097150       -2.1762505186      -10.1368462493  CLST         547          1.0000000000
      1641       547  TIP3  H2           -4.0460940920       -1.2686140060      -11.1777924756  CLST         547          1.0000000000
      1642       548  TIP3  OH2          10.5433995843        2.3342274778        1.3301573881  CLST         548          1.0000000000
      1643       548  TIP3  H1            9.5790889462        2.1854168915        1.4788977771  CLST         548          1.0000000000
      1644       548  TIP3  H2           10.5514507625        3.0475449053        2.0305410104  CLST         548          1.0000000000
