* Geometry rescue: heat segment 1/8 at step 1500
*
        1644  EXT
         1         1  TIP3  OH2           4.5782067712       -1.4777736561       -2.1977760360  CLST           1          1.0000000000
         2         1  TIP3  H1            4.8862662024       -1.7179982966       -1.2659950628  CLST           1          1.0000000000
         3         1  TIP3  H2            5.1919131322       -2.1168827645       -2.6551978205  CLST           1          1.0000000000
         4         2  TIP3  OH2          10.7000848187        7.5163769439      -11.8204276680  CLST           2          1.0000000000
         5         2  TIP3  H1           11.0321007949        7.4098116567      -10.8836202920  CLST           2          1.0000000000
         6         2  TIP3  H2            9.7324958378        7.4049796758      -11.6094195310  CLST           2          1.0000000000
         7         3  TIP3  OH2           8.8950821809        5.3065280284       -4.2215249733  CLST           3          1.0000000000
         8         3  TIP3  H1            9.1785383574        5.5819798588       -3.3090794906  CLST           3          1.0000000000
         9         3  TIP3  H2            9.2240944034        6.0869396220       -4.7154465313  CLST           3          1.0000000000
        10         4  TIP3  OH2          -2.9107383611        6.7008996569       10.2164027407  CLST           4          1.0000000000
        11         4  TIP3  H1           -3.6610997671        7.0502804027        9.6412576848  CLST           4          1.0000000000
        12         4  TIP3  H2           -3.0606813703        7.4196972689       10.8677659577  CLST           4          1.0000000000
        13         5  TIP3  OH2           9.1657213942        6.1797437382       10.6916127171  CLST           5          1.0000000000
        14         5  TIP3  H1            8.5692141297        5.6388420459       11.3033267631  CLST           5          1.0000000000
        15         5  TIP3  H2            9.1064474683        5.5417858720        9.9358487227  CLST           5          1.0000000000
        16         6  TIP3  OH2          10.5791066803       -5.9510127309      -11.6961561928  CLST           6          1.0000000000
        17         6  TIP3  H1           11.0732125695       -5.4534155059      -10.9777818481  CLST           6          1.0000000000
        18         6  TIP3  H2           10.6527525354       -5.1753125019      -12.3636365528  CLST           6          1.0000000000
        19         7  TIP3  OH2         -12.3910088713        8.4292860346        5.6954029327  CLST           7          1.0000000000
        20         7  TIP3  H1          -12.7505292265        9.2580108005        6.1183081856  CLST           7          1.0000000000
        21         7  TIP3  H2          -11.5701609380        8.3457013296        6.2515286504  CLST           7          1.0000000000
        22         8  TIP3  OH2          -4.4178965532       -8.4009189243        0.7007622487  CLST           8          1.0000000000
        23         8  TIP3  H1           -4.7879796988       -7.8858496905        1.4589945619  CLST           8          1.0000000000
        24         8  TIP3  H2           -3.6930904433       -7.8185204980        0.3562446522  CLST           8          1.0000000000
        25         9  TIP3  OH2           2.5344712354      -14.2263216518       -4.0348620418  CLST           9          1.0000000000
        26         9  TIP3  H1            1.6066697726      -14.5139264363       -3.8788424597  CLST           9          1.0000000000
        27         9  TIP3  H2            2.4847581499      -13.4145015372       -3.4500243369  CLST           9          1.0000000000
        28        10  TIP3  OH2         -14.1579518014       -1.2319411339       -0.3553514291  CLST          10          1.0000000000
        29        10  TIP3  H1          -13.7223775210       -1.5538434761       -1.2069007192  CLST          10          1.0000000000
        30        10  TIP3  H2          -14.5606739461       -1.9054298647       -0.0002756955  CLST          10          1.0000000000
        31        11  TIP3  OH2           6.8867162999        6.7211804385       -1.9189897919  CLST          11          1.0000000000
        32        11  TIP3  H1            7.1170761041        5.7832680588       -1.7075711374  CLST          11          1.0000000000
        33        11  TIP3  H2            6.8299343199        6.6790822593       -2.9045053376  CLST          11          1.0000000000
        34        12  TIP3  OH2          -8.2092114281        2.6017355954        1.9373303870  CLST          12          1.0000000000
        35        12  TIP3  H1           -7.6338071914        2.8593599736        1.1446851040  CLST          12          1.0000000000
        36        12  TIP3  H2           -9.0792832785        2.6709287779        1.4284094561  CLST          12          1.0000000000
        37        13  TIP3  OH2           7.7431547214        2.4264996631        2.1455218019  CLST          13          1.0000000000
        38        13  TIP3  H1            7.6632093034        3.3359423299        1.7134064739  CLST          13          1.0000000000
        39        13  TIP3  H2            7.6197545476        2.7230347875        3.0801958088  CLST          13          1.0000000000
        40        14  TIP3  OH2          -0.3787316051        2.2245412333        8.0000950405  CLST          14          1.0000000000
        41        14  TIP3  H1           -0.0039680285        3.1184840545        7.7232525029  CLST          14          1.0000000000
        42        14  TIP3  H2            0.3362737949        1.7392286243        7.4904138238  CLST          14          1.0000000000
        43        15  TIP3  OH2          -8.9198831724       -3.8578174844      -12.6345867711  CLST          15          1.0000000000
        44        15  TIP3  H1           -8.0908831169       -3.9101108450      -13.1480970924  CLST          15          1.0000000000
        45        15  TIP3  H2           -8.5101232663       -4.4961347473      -11.9513635233  CLST          15          1.0000000000
        46        16  TIP3  OH2          -3.8010712603      -12.8056111052       -6.2095424196  CLST          16          1.0000000000
        47        16  TIP3  H1           -4.3689446124      -12.8765710349       -5.3760277649  CLST          16          1.0000000000
        48        16  TIP3  H2           -2.8898037828      -12.8844127298       -5.7656955663  CLST          16          1.0000000000
        49        17  TIP3  OH2           4.8466229271      -13.2958223456       -8.4155535385  CLST          17          1.0000000000
        50        17  TIP3  H1            5.4416102491      -13.0336571688       -7.6720624226  CLST          17          1.0000000000
        51        17  TIP3  H2            4.0971933978      -13.5856825132       -7.8442234696  CLST          17          1.0000000000
        52        18  TIP3  OH2         -11.6600609754       -6.7564116315       -1.5239780099  CLST          18          1.0000000000
        53        18  TIP3  H1          -12.1042739615       -5.8461772626       -1.7580476053  CLST          18          1.0000000000
        54        18  TIP3  H2          -11.6779923823       -7.0292843952       -2.4998265441  CLST          18          1.0000000000
        55        19  TIP3  OH2          10.9483195621        0.0287898990        9.4479020665  CLST          19          1.0000000000
        56        19  TIP3  H1           10.6279122775       -0.8165126219        9.7712177346  CLST          19          1.0000000000
        57        19  TIP3  H2           11.1857298460       -0.2731150522        8.5495326609  CLST          19          1.0000000000
        58        20  TIP3  OH2         -13.3469536891        1.4710260301        2.7533482975  CLST          20          1.0000000000
        59        20  TIP3  H1          -13.1767111740        1.1738687723        1.8342237805  CLST          20          1.0000000000
        60        20  TIP3  H2          -14.2803663771        1.4584636888        2.8488838062  CLST          20          1.0000000000
        61        21  TIP3  OH2         -10.1046280296       12.6204157236       -5.3074587231  CLST          21          1.0000000000
        62        21  TIP3  H1          -10.2493668173       13.3535666827       -5.8609814304  CLST          21          1.0000000000
        63        21  TIP3  H2           -9.3653763514       12.2124091525       -5.7345167694  CLST          21          1.0000000000
        64        22  TIP3  OH2           2.7989182195       12.1982419168       -6.5037591068  CLST          22          1.0000000000
        65        22  TIP3  H1            3.1571106463       11.3408582998       -6.2300631283  CLST          22          1.0000000000
        66        22  TIP3  H2            3.2187937006       12.6692226958       -5.7053694143  CLST          22          1.0000000000
        67        23  TIP3  OH2           5.6079223686       -1.7023201066       11.5454162947  CLST          23          1.0000000000
        68        23  TIP3  H1            5.2258971980       -2.1956207878       10.7918927665  CLST          23          1.0000000000
        69        23  TIP3  H2            5.3262778920       -0.7854251842       11.2727771424  CLST          23          1.0000000000
        70        24  TIP3  OH2          -0.2166871933        1.0413284945        4.5460164658  CLST          24          1.0000000000
        71        24  TIP3  H1            0.6749711321        0.9325921593        4.9297095740  CLST          24          1.0000000000
        72        24  TIP3  H2           -0.7208144341        0.3837391692        5.0841705342  CLST          24          1.0000000000
        73        25  TIP3  OH2           3.2764712559        1.9711559400       -2.4993790868  CLST          25          1.0000000000
        74        25  TIP3  H1            3.6856858906        1.4490689460       -1.7827499594  CLST          25          1.0000000000
        75        25  TIP3  H2            3.7583456237        2.8438957140       -2.3310738892  CLST          25          1.0000000000
        76        26  TIP3  OH2          11.4035975975        5.3645521982       -6.5339749527  CLST          26          1.0000000000
        77        26  TIP3  H1           10.5864614818        5.1173119393       -7.0349487560  CLST          26          1.0000000000
        78        26  TIP3  H2           11.1653908244        6.2385342144       -6.1614950897  CLST          26          1.0000000000
        79        27  TIP3  OH2         -10.2451496201        7.4081311009       -5.4264705134  CLST          27          1.0000000000
        80        27  TIP3  H1          -10.0576399165        7.9326208873       -4.6391109843  CLST          27          1.0000000000
        81        27  TIP3  H2          -10.8125504133        7.9142943273       -5.9638600387  CLST          27          1.0000000000
        82        28  TIP3  OH2          -4.2645716346      -10.3157446001       -6.7598093539  CLST          28          1.0000000000
        83        28  TIP3  H1           -4.1018864773      -11.3039406854       -6.7066592607  CLST          28          1.0000000000
        84        28  TIP3  H2           -4.9242623089      -10.2299522675       -6.0603131530  CLST          28          1.0000000000
        85        29  TIP3  OH2         -10.7511277771        7.6112982280       -2.6061517697  CLST          29          1.0000000000
        86        29  TIP3  H1          -10.1864119549        8.2025096335       -1.9898252122  CLST          29          1.0000000000
        87        29  TIP3  H2          -11.4848225391        8.2875418628       -2.6870690564  CLST          29          1.0000000000
        88        30  TIP3  OH2           8.8770153174      -10.4476011965       -2.1579450230  CLST          30          1.0000000000
        89        30  TIP3  H1            9.2765511302      -10.8351841853       -1.3713427035  CLST          30          1.0000000000
        90        30  TIP3  H2            8.5703778065      -11.2797858947       -2.6463234875  CLST          30          1.0000000000
        91        31  TIP3  OH2          -9.8252799497       -1.2680036580      -13.0915151312  CLST          31          1.0000000000
        92        31  TIP3  H1           -9.6105633679       -2.2199163651      -12.9183612894  CLST          31          1.0000000000
        93        31  TIP3  H2           -9.6650547143       -0.8994728696      -12.1792370224  CLST          31          1.0000000000
        94        32  TIP3  OH2          -8.7755029383       -6.4800043134        6.9655119430  CLST          32          1.0000000000
        95        32  TIP3  H1           -9.7314013835       -6.4071413011        6.9784631154  CLST          32          1.0000000000
        96        32  TIP3  H2           -8.6203918068       -5.7958281355        6.2435805870  CLST          32          1.0000000000
        97        33  TIP3  OH2          11.7692927296       -8.9898130829        8.8925203528  CLST          33          1.0000000000
        98        33  TIP3  H1           11.7597718313       -9.9752759952        8.9915859956  CLST          33          1.0000000000
        99        33  TIP3  H2           11.2991106989       -8.7896158112        9.6974375028  CLST          33          1.0000000000
       100        34  TIP3  OH2           4.2831733338       -3.9257001622        2.8538040444  CLST          34          1.0000000000
       101        34  TIP3  H1            3.6401032859       -4.1667789376        2.1190347141  CLST          34          1.0000000000
       102        34  TIP3  H2            4.3386599544       -4.8089619699        3.2806705985  CLST          34          1.0000000000
       103        35  TIP3  OH2           6.2274899632       -0.7977556755        4.4003446815  CLST          35          1.0000000000
       104        35  TIP3  H1            5.3197728591       -1.0645109765        4.7507033766  CLST          35          1.0000000000
       105        35  TIP3  H2            6.6233161636       -0.2599874215        5.1135918289  CLST          35          1.0000000000
       106        36  TIP3  OH2          -1.4701857395        1.4256701580        2.2756402962  CLST          36          1.0000000000
       107        36  TIP3  H1           -2.2761182314        0.9423124318        2.1972950674  CLST          36          1.0000000000
       108        36  TIP3  H2           -1.1813452577        1.1958009497        3.2048819525  CLST          36          1.0000000000
       109        37  TIP3  OH2          -4.3722049755       -8.1585974791      -13.0259338885  CLST          37          1.0000000000
       110        37  TIP3  H1           -4.8894024522       -8.4933735868      -12.2770250391  CLST          37          1.0000000000
       111        37  TIP3  H2           -4.0461878526       -9.0187096141      -13.4049890038  CLST          37          1.0000000000
       112        38  TIP3  OH2          -3.0988881628        2.2104687636       -4.4027800777  CLST          38          1.0000000000
       113        38  TIP3  H1           -3.0033462690        3.1609882704       -4.6931891855  CLST          38          1.0000000000
       114        38  TIP3  H2           -3.6694938025        1.9065104814       -5.1490858135  CLST          38          1.0000000000
       115        39  TIP3  OH2           1.7332326928      -10.9868772862        2.0239961199  CLST          39          1.0000000000
       116        39  TIP3  H1            1.4347076019      -11.5177812132        2.7915685788  CLST          39          1.0000000000
       117        39  TIP3  H2            0.8496525153      -10.6339244896        1.7422560828  CLST          39          1.0000000000
       118        40  TIP3  OH2          -7.0509063893       12.4693623167        8.2590199197  CLST          40          1.0000000000
       119        40  TIP3  H1           -7.9447638563       12.7021166089        7.8881604276  CLST          40          1.0000000000
       120        40  TIP3  H2           -6.4333201608       12.7302640153        7.5763147490  CLST          40          1.0000000000
       121        41  TIP3  OH2           9.7269855934       -2.2429020083      -11.0413234266  CLST          41          1.0000000000
       122        41  TIP3  H1            9.0364886994       -2.8493996299      -10.6277959906  CLST          41          1.0000000000
       123        41  TIP3  H2            9.3655280929       -1.4447897346      -10.6235616364  CLST          41          1.0000000000
       124        42  TIP3  OH2           9.6456137034       10.2464889486      -10.5846204606  CLST          42          1.0000000000
       125        42  TIP3  H1           10.4402613253       10.2797965670      -10.0603071184  CLST          42          1.0000000000
       126        42  TIP3  H2           10.0943733907       10.1332099420      -11.5402942684  CLST          42          1.0000000000
       127        43  TIP3  OH2          11.9171121980       12.6321426688        7.6929836543  CLST          43          1.0000000000
       128        43  TIP3  H1           12.5426432898       13.2663977908        7.5976225944  CLST          43          1.0000000000
       129        43  TIP3  H2           12.3576354283       11.9309166101        8.2337233825  CLST          43          1.0000000000
       130        44  TIP3  OH2           7.7202090457        0.9652060503        6.0179828140  CLST          44          1.0000000000
       131        44  TIP3  H1            7.9820276487        1.4926848966        6.8379592344  CLST          44          1.0000000000
       132        44  TIP3  H2            7.4366992233        1.7919567044        5.5050500753  CLST          44          1.0000000000
       133        45  TIP3  OH2           7.8512337682        9.3975396192        7.3780439850  CLST          45          1.0000000000
       134        45  TIP3  H1            7.7294570873        8.4476612697        7.6334990829  CLST          45          1.0000000000
       135        45  TIP3  H2            8.7743700776        9.5420139617        7.7441221148  CLST          45          1.0000000000
       136        46  TIP3  OH2          -5.6100556328       -3.1325551292      -13.0397891486  CLST          46          1.0000000000
       137        46  TIP3  H1           -5.3001125717       -4.1054073396      -13.1284711155  CLST          46          1.0000000000
       138        46  TIP3  H2           -4.8688570404       -2.9072659054      -12.4282183354  CLST          46          1.0000000000
       139        47  TIP3  OH2           1.3004687910       -6.5763453747      -11.0483617355  CLST          47          1.0000000000
       140        47  TIP3  H1            1.7842471627       -5.7165570560      -10.8873853122  CLST          47          1.0000000000
       141        47  TIP3  H2            1.3626905650       -6.4889838836      -12.0197304579  CLST          47          1.0000000000
       142        48  TIP3  OH2           5.1217357090        5.6040381792        1.1168192900  CLST          48          1.0000000000
       143        48  TIP3  H1            6.0742640363        5.2906268860        0.9224628738  CLST          48          1.0000000000
       144        48  TIP3  H2            5.3343067461        6.5674364323        0.9795425715  CLST          48          1.0000000000
       145        49  TIP3  OH2          -3.3806916149      -10.6678176093      -13.6931675115  CLST          49          1.0000000000
       146        49  TIP3  H1           -2.5153343153      -10.9607671197      -13.8325925970  CLST          49          1.0000000000
       147        49  TIP3  H2           -3.7557572481      -11.1125457559      -12.9120832913  CLST          49          1.0000000000
       148        50  TIP3  OH2           2.8054022192        3.8508052886        5.9559204331  CLST          50          1.0000000000
       149        50  TIP3  H1            1.9399847950        4.1668038999        6.3556826320  CLST          50          1.0000000000
       150        50  TIP3  H2            2.4531890616        3.6403350791        5.0425272748  CLST          50          1.0000000000
       151        51  TIP3  OH2          -6.4636476937      -10.0400655988       -4.7150582872  CLST          51          1.0000000000
       152        51  TIP3  H1           -6.5290182566       -9.9431451503       -3.7360457518  CLST          51          1.0000000000
       153        51  TIP3  H2           -6.3732656192      -11.0053083698       -4.8075950703  CLST          51          1.0000000000
       154        52  TIP3  OH2           9.1440656901       -5.5708453396       -0.1419620943  CLST          52          1.0000000000
       155        52  TIP3  H1            9.2641185235       -5.4887882283       -1.1283960648  CLST          52          1.0000000000
       156        52  TIP3  H2            9.1404943763       -4.6023008000        0.0703298845  CLST          52          1.0000000000
       157        53  TIP3  OH2          -9.4776868482       10.1392819753      -12.6983926708  CLST          53          1.0000000000
       158        53  TIP3  H1           -9.8455565574       10.2832043754      -13.5527371512  CLST          53          1.0000000000
       159        53  TIP3  H2           -8.6661184718        9.5555202294      -12.8124340819  CLST          53          1.0000000000
       160        54  TIP3  OH2           0.4797689497       -2.9358643229       -9.4883642066  CLST          54          1.0000000000
       161        54  TIP3  H1            1.1136992561       -3.2360909334      -10.1512978937  CLST          54          1.0000000000
       162        54  TIP3  H2           -0.0168596163       -2.2741573280      -10.0683640866  CLST          54          1.0000000000
       163        55  TIP3  OH2           2.9055193367       -4.1017819095      -14.7153114162  CLST          55          1.0000000000
       164        55  TIP3  H1            3.0127929768       -4.9962373809      -14.2842596807  CLST          55          1.0000000000
       165        55  TIP3  H2            3.0842452148       -4.2606306115      -15.6676331478  CLST          55          1.0000000000
       166        56  TIP3  OH2         -10.0286438355       11.0628662057        5.7351315235  CLST          56          1.0000000000
       167        56  TIP3  H1          -10.2606201423       10.2065816696        6.1575232931  CLST          56          1.0000000000
       168        56  TIP3  H2          -10.2832009029       10.9333032733        4.7871530837  CLST          56          1.0000000000
       169        57  TIP3  OH2           1.6754067522      -13.3151687377        0.4352219823  CLST          57          1.0000000000
       170        57  TIP3  H1            1.8800880756      -12.4613687176        0.8800488785  CLST          57          1.0000000000
       171        57  TIP3  H2            2.4295620616      -13.3182738711       -0.1866086110  CLST          57          1.0000000000
       172        58  TIP3  OH2         -13.1143845413       10.6611095750        7.0093289460  CLST          58          1.0000000000
       173        58  TIP3  H1          -12.6386448719       11.5047125630        6.8908874502  CLST          58          1.0000000000
       174        58  TIP3  H2          -12.8536151047       10.5284352917        7.9706581427  CLST          58          1.0000000000
       175        59  TIP3  OH2         -11.6402617979       -2.7045425462        5.5584813512  CLST          59          1.0000000000
       176        59  TIP3  H1          -11.8160161723       -2.3259739900        6.4648004539  CLST          59          1.0000000000
       177        59  TIP3  H2          -11.7571415871       -1.9378095296        4.9773799663  CLST          59          1.0000000000
       178        60  TIP3  OH2           1.3862911962        9.5231680955        8.6466566603  CLST          60          1.0000000000
       179        60  TIP3  H1            0.6659302548        8.9307567891        8.2551437957  CLST          60          1.0000000000
       180        60  TIP3  H2            1.9174594914        8.7538417428        8.9927425780  CLST          60          1.0000000000
       181        61  TIP3  OH2           2.8171470566       -0.7669548156       -5.4714968208  CLST          61          1.0000000000
       182        61  TIP3  H1            3.3050572188       -1.6224111416       -5.3295371604  CLST          61          1.0000000000
       183        61  TIP3  H2            2.1583248900       -1.0372334458       -6.1758513520  CLST          61          1.0000000000
       184        62  TIP3  OH2           7.9820566247        8.5506622042       12.4597483721  CLST          62          1.0000000000
       185        62  TIP3  H1            8.1884225143        7.7935688309       11.8777626172  CLST          62          1.0000000000
       186        62  TIP3  H2            8.2741525211        9.2933235554       11.8849518330  CLST          62          1.0000000000
       187        63  TIP3  OH2           4.5520396054       -7.0270793659      -10.3078635685  CLST          63          1.0000000000
       188        63  TIP3  H1            3.6874963534       -7.0434430919      -10.7659491473  CLST          63          1.0000000000
       189        63  TIP3  H2            5.1154881414       -7.4243615240      -11.0362769778  CLST          63          1.0000000000
       190        64  TIP3  OH2          -2.3936165470       11.7180718740        5.3612076112  CLST          64          1.0000000000
       191        64  TIP3  H1           -2.2957285684       10.7282993933        5.2685165163  CLST          64          1.0000000000
       192        64  TIP3  H2           -1.7528854303       11.7926839856        6.1469484326  CLST          64          1.0000000000
       193        65  TIP3  OH2          10.9727800008       -4.3505145368       -5.3057163673  CLST          65          1.0000000000
       194        65  TIP3  H1           11.2464922947       -4.1612928181       -6.2248930703  CLST          65          1.0000000000
       195        65  TIP3  H2           11.2823261281       -3.5072138607       -4.9159511766  CLST          65          1.0000000000
       196        66  TIP3  OH2           6.3230000566       -9.9920679724        9.4261866174  CLST          66          1.0000000000
       197        66  TIP3  H1            5.6142816108      -10.0195111437        8.7201208560  CLST          66          1.0000000000
       198        66  TIP3  H2            6.7821663195       -9.2187593421        9.0148007210  CLST          66          1.0000000000
       199        67  TIP3  OH2         -11.5720379403       -7.5831763245       -3.9391731563  CLST          67          1.0000000000
       200        67  TIP3  H1          -10.6976252648       -7.3382519786       -4.2822967149  CLST          67          1.0000000000
       201        67  TIP3  H2          -11.9470576132       -8.2539774660       -4.4808178957  CLST          67          1.0000000000
       202        68  TIP3  OH2          -0.7449399097       -5.4400705562        5.3657581011  CLST          68          1.0000000000
       203        68  TIP3  H1            0.2254903235       -5.3720856218        5.5777636811  CLST          68          1.0000000000
       204        68  TIP3  H2           -1.0699657636       -5.4045073899        6.2963178879  CLST          68          1.0000000000
       205        69  TIP3  OH2           7.9310845322       11.6848937696       -8.6459359580  CLST          69          1.0000000000
       206        69  TIP3  H1            8.2208839364       11.3662281254       -9.5547968176  CLST          69          1.0000000000
       207        69  TIP3  H2            8.8695089399       11.7390099008       -8.2907249899  CLST          69          1.0000000000
       208        70  TIP3  OH2          -1.0822822099      -12.4685205823       -0.5407667938  CLST          70          1.0000000000
       209        70  TIP3  H1           -0.1144422568      -12.2894561601       -0.5001226552  CLST          70          1.0000000000
       210        70  TIP3  H2           -1.1732141574      -12.7793636226        0.3958044090  CLST          70          1.0000000000
       211        71  TIP3  OH2         -10.2848783673       -7.4269092670        2.1118178158  CLST          71          1.0000000000
       212        71  TIP3  H1          -11.0020455502       -6.8797884061        2.4864858510  CLST          71          1.0000000000
       213        71  TIP3  H2          -10.7263850520       -7.9943252654        1.4679126110  CLST          71          1.0000000000
       214        72  TIP3  OH2           0.1866336814        2.0150782633       -1.4776261866  CLST          72          1.0000000000
       215        72  TIP3  H1           -0.1565518229        1.0622123710       -1.5230313544  CLST          72          1.0000000000
       216        72  TIP3  H2            0.9940592517        1.8623403647       -1.9836579635  CLST          72          1.0000000000
       217        73  TIP3  OH2          -9.7398877713       13.1263375697        7.4952451525  CLST          73          1.0000000000
       218        73  TIP3  H1           -9.8649203796       12.3212619491        6.8987239973  CLST          73          1.0000000000
       219        73  TIP3  H2          -10.2803293129       13.7092937278        6.8408390457  CLST          73          1.0000000000
       220        74  TIP3  OH2           6.6028266354       -2.8772325463       -3.5550111601  CLST          74          1.0000000000
       221        74  TIP3  H1            6.8217084470       -3.8569260607       -3.7603535324  CLST          74          1.0000000000
       222        74  TIP3  H2            7.5036574857       -2.5081589154       -3.4534136407  CLST          74          1.0000000000
       223        75  TIP3  OH2           2.8374376336      -13.3902151235       -6.5628585970  CLST          75          1.0000000000
       224        75  TIP3  H1            3.0772704279      -12.4434695601       -6.2920772057  CLST          75          1.0000000000
       225        75  TIP3  H2            2.8274716146      -13.7482444691       -5.6270224002  CLST          75          1.0000000000
       226        76  TIP3  OH2           3.9792262807       -9.7597485057        1.2498273794  CLST          76          1.0000000000
       227        76  TIP3  H1            3.8478122323       -8.7964998731        1.4479237158  CLST          76          1.0000000000
       228        76  TIP3  H2            3.1313453573      -10.1784416456        1.5995166572  CLST          76          1.0000000000
       229        77  TIP3  OH2          10.3013685600       -8.2793442613       -2.6484426909  CLST          77          1.0000000000
       230        77  TIP3  H1            9.8319371856       -9.1604250659       -2.5988936174  CLST          77          1.0000000000
       231        77  TIP3  H2           10.3473444612       -8.1932541600       -3.6205483538  CLST          77          1.0000000000
       232        78  TIP3  OH2          10.7234791882       11.6677545316       -7.8795187547  CLST          78          1.0000000000
       233        78  TIP3  H1           11.3336055183       10.9371529760       -8.2301032394  CLST          78          1.0000000000
       234        78  TIP3  H2           11.1240548886       12.2222222511       -7.3717681044  CLST          78          1.0000000000
       235        79  TIP3  OH2          12.7194320971        0.6478276066        1.1506950548  CLST          79          1.0000000000
       236        79  TIP3  H1           13.2619689484        0.6730412749        1.9000063556  CLST          79          1.0000000000
       237        79  TIP3  H2           12.0251051574        1.3504631038        1.3386042911  CLST          79          1.0000000000
       238        80  TIP3  OH2          -7.6065957686        0.1251485716        6.6366656442  CLST          80          1.0000000000
       239        80  TIP3  H1           -7.5769375018        0.1445387352        5.6463101737  CLST          80          1.0000000000
       240        80  TIP3  H2           -6.6028908007        0.0188257157        6.7443824643  CLST          80          1.0000000000
       241        81  TIP3  OH2          -7.4783247357      -10.9190977973        2.2010898094  CLST          81          1.0000000000
       242        81  TIP3  H1           -6.6303660242      -11.1017075672        1.6455040784  CLST          81          1.0000000000
       243        81  TIP3  H2           -7.0972565005      -11.1318763282        3.0661391244  CLST          81          1.0000000000
       244        82  TIP3  OH2          -1.6088885493       -9.9077509869       -6.5652348390  CLST          82          1.0000000000
       245        82  TIP3  H1           -2.5994589066       -9.9609992014       -6.6021040883  CLST          82          1.0000000000
       246        82  TIP3  H2           -1.4873637368      -10.6845238416       -5.9859929944  CLST          82          1.0000000000
       247        83  TIP3  OH2          12.2913477742       -8.6015617587        1.4756950419  CLST          83          1.0000000000
       248        83  TIP3  H1           12.5429343705       -7.9319514398        2.1389058712  CLST          83          1.0000000000
       249        83  TIP3  H2           11.3423261586       -8.4172269180        1.3895615410  CLST          83          1.0000000000
       250        84  TIP3  OH2          -3.5869975453       10.9384164297       -2.1806207098  CLST          84          1.0000000000
       251        84  TIP3  H1           -4.5288044689       10.8735441519       -2.6452754621  CLST          84          1.0000000000
       252        84  TIP3  H2           -3.5433462409       11.7596945752       -1.9514412104  CLST          84          1.0000000000
       253        85  TIP3  OH2           5.8699643841       -2.1090607085        0.0622139170  CLST          85          1.0000000000
       254        85  TIP3  H1            5.9759974247       -1.6077466433        0.8980273869  CLST          85          1.0000000000
       255        85  TIP3  H2            6.6151289770       -2.7415284042        0.2008276535  CLST          85          1.0000000000
       256        86  TIP3  OH2           6.6520273435       -8.4975339654        5.8931897047  CLST          86          1.0000000000
       257        86  TIP3  H1            5.8204462612       -8.5972304483        6.4395925876  CLST          86          1.0000000000
       258        86  TIP3  H2            6.6288045092       -7.5454344953        5.6669218322  CLST          86          1.0000000000
       259        87  TIP3  OH2          -1.3783895163       -3.6157401717       10.6837759321  CLST          87          1.0000000000
       260        87  TIP3  H1           -0.7184573514       -3.8649969569       11.3753887083  CLST          87          1.0000000000
       261        87  TIP3  H2           -2.1538634966       -4.2327142470       10.8683754893  CLST          87          1.0000000000
       262        88  TIP3  OH2          -0.8671200950        4.4405685397       -7.9358864988  CLST          88          1.0000000000
       263        88  TIP3  H1           -1.0074125017        3.4567596053       -7.8157121641  CLST          88          1.0000000000
       264        88  TIP3  H2           -1.8296856068        4.7041773900       -8.0524745537  CLST          88          1.0000000000
       265        89  TIP3  OH2           3.4442317528        0.8418249329      -11.7780283912  CLST          89          1.0000000000
       266        89  TIP3  H1            3.7051024698        1.4682742789      -12.4176172320  CLST          89          1.0000000000
       267        89  TIP3  H2            3.2891539715        0.1624674947      -12.4000178034  CLST          89          1.0000000000
       268        90  TIP3  OH2           5.4024634333       11.1063808429       -5.4376648991  CLST          90          1.0000000000
       269        90  TIP3  H1            5.0629505089       11.8547979168       -4.7424170750  CLST          90          1.0000000000
       270        90  TIP3  H2            5.4947595872       11.7368827493       -6.2496417070  CLST          90          1.0000000000
       271        91  TIP3  OH2           6.0111527431       -7.8476636001      -12.3531063629  CLST          91          1.0000000000
       272        91  TIP3  H1            6.3341035208       -8.8000237710      -12.3253288596  CLST          91          1.0000000000
       273        91  TIP3  H2            6.8762039775       -7.4016468997      -12.1184698100  CLST          91          1.0000000000
       274        92  TIP3  OH2           9.8742712733       11.5724670864        2.4616754570  CLST          92          1.0000000000
       275        92  TIP3  H1           10.2166734371       11.6231405295        3.3932455349  CLST          92          1.0000000000
       276        92  TIP3  H2            9.7021551988       12.5312431919        2.3494158811  CLST          92          1.0000000000
       277        93  TIP3  OH2          -8.8363573257        7.1975345424        2.6627138759  CLST          93          1.0000000000
       278        93  TIP3  H1           -8.5643449719        8.0538898222        2.2663326335  CLST          93          1.0000000000
       279        93  TIP3  H2           -8.0281634468        6.8458572125        3.0801316922  CLST          93          1.0000000000
       280        94  TIP3  OH2         -14.2116394186        6.5182192191        6.4920651795  CLST          94          1.0000000000
       281        94  TIP3  H1          -13.4572250487        7.1147016976        6.1939786598  CLST          94          1.0000000000
       282        94  TIP3  H2          -14.5003427282        6.3158710195        5.5832631464  CLST          94          1.0000000000
       283        95  TIP3  OH2           9.8452161166        5.8850511009       -1.7917359823  CLST          95          1.0000000000
       284        95  TIP3  H1            9.8763489919        6.1452750326       -0.8342233263  CLST          95          1.0000000000
       285        95  TIP3  H2           10.3119969313        4.9911120645       -1.6662323671  CLST          95          1.0000000000
       286        96  TIP3  OH2           9.6938667571      -10.8892929913       11.2209571328  CLST          96          1.0000000000
       287        96  TIP3  H1           10.4939026049      -11.2166160523       10.7374366817  CLST          96          1.0000000000
       288        96  TIP3  H2            9.2409442553      -11.7333543385       11.4145761026  CLST          96          1.0000000000
       289        97  TIP3  OH2          -7.6755362657        6.8375128475        8.4700039926  CLST          97          1.0000000000
       290        97  TIP3  H1           -7.3365085089        5.9687140996        8.8907774782  CLST          97          1.0000000000
       291        97  TIP3  H2           -8.6432582482        6.5619042633        8.4243671736  CLST          97          1.0000000000
       292        98  TIP3  OH2           5.9708520089        0.4990187740       -3.4613264901  CLST          98          1.0000000000
       293        98  TIP3  H1            6.6890495392        0.3201631449       -2.7982693372  CLST          98          1.0000000000
       294        98  TIP3  H2            5.2929330500       -0.0810940102       -3.0157361486  CLST          98          1.0000000000
       295        99  TIP3  OH2          -6.9241909223      -11.6231264320        4.8734149126  CLST          99          1.0000000000
       296        99  TIP3  H1           -7.3178243819      -11.3017853526        5.7134828272  CLST          99          1.0000000000
       297        99  TIP3  H2           -6.1137521385      -12.0757594335        5.2265533454  CLST          99          1.0000000000
       298       100  TIP3  OH2           2.3967027296        0.4206078901       -9.1723047231  CLST         100          1.0000000000
       299       100  TIP3  H1            2.7536515354        0.6205784334      -10.0736578260  CLST         100          1.0000000000
       300       100  TIP3  H2            2.5127737274        1.2835021808       -8.7433805460  CLST         100          1.0000000000
       301       101  TIP3  OH2          12.7113463494       -6.9949701570        3.8371034898  CLST         101          1.0000000000
       302       101  TIP3  H1           12.6704633784       -7.4792829713        4.7372011343  CLST         101          1.0000000000
       303       101  TIP3  H2           13.2940570842       -6.3527832936        3.9429143692  CLST         101          1.0000000000
       304       102  TIP3  OH2         -12.2347797335       10.3351593340        1.3647775632  CLST         102          1.0000000000
       305       102  TIP3  H1          -12.9041578659       10.2315816713        2.0713875447  CLST         102          1.0000000000
       306       102  TIP3  H2          -12.6303864010        9.6755420927        0.7365088869  CLST         102          1.0000000000
       307       103  TIP3  OH2          -0.6367044730       -9.3612643843        7.7424182161  CLST         103          1.0000000000
       308       103  TIP3  H1           -0.0104003160       -9.5508081092        8.4833042750  CLST         103          1.0000000000
       309       103  TIP3  H2           -1.2899400562      -10.1064807592        7.8597297333  CLST         103          1.0000000000
       310       104  TIP3  OH2          -4.3717316410      -12.0973579310       10.0191725404  CLST         104          1.0000000000
       311       104  TIP3  H1           -4.9767871761      -11.7301105018       10.7151263271  CLST         104          1.0000000000
       312       104  TIP3  H2           -5.0811752523      -12.4394465186        9.4180379966  CLST         104          1.0000000000
       313       105  TIP3  OH2          -5.1671920868       10.6993185083      -11.5459862479  CLST         105          1.0000000000
       314       105  TIP3  H1           -4.7453670480       11.2089930117      -12.3238506841  CLST         105          1.0000000000
       315       105  TIP3  H2           -5.6846933083       10.0915459593      -12.0703944993  CLST         105          1.0000000000
       316       106  TIP3  OH2           7.4131867240       -8.0969431800       -1.4004270488  CLST         106          1.0000000000
       317       106  TIP3  H1            8.1665298039       -7.6017110032       -1.7615794988  CLST         106          1.0000000000
       318       106  TIP3  H2            7.7193901983       -9.0150067364       -1.5989218022  CLST         106          1.0000000000
       319       107  TIP3  OH2          -8.4269093961       -4.7639342186        4.9939620185  CLST         107          1.0000000000
       320       107  TIP3  H1           -9.1046966197       -4.3504270609        4.4250256956  CLST         107          1.0000000000
       321       107  TIP3  H2           -7.6032757275       -4.3430402287        4.7238363467  CLST         107          1.0000000000
       322       108  TIP3  OH2         -10.5368910402        2.0620011406        9.5137846505  CLST         108          1.0000000000
       323       108  TIP3  H1           -9.5715882488        1.8368426975        9.4452786261  CLST         108          1.0000000000
       324       108  TIP3  H2          -10.8941389871        1.2443907394        9.9957901677  CLST         108          1.0000000000
       325       109  TIP3  OH2           2.3677287794        7.0738375639        8.8911881153  CLST         109          1.0000000000
       326       109  TIP3  H1            1.5944323818        6.5945901807        9.2558827870  CLST         109          1.0000000000
       327       109  TIP3  H2            3.0885863073        6.3726114591        8.8346043407  CLST         109          1.0000000000
       328       110  TIP3  OH2           1.6251245339       12.3517578022      -11.1218866872  CLST         110          1.0000000000
       329       110  TIP3  H1            1.9977119063       13.1785493474      -11.0101986160  CLST         110          1.0000000000
       330       110  TIP3  H2            1.3053414707       12.1633697374      -10.1955382273  CLST         110          1.0000000000
       331       111  TIP3  OH2          11.7534812334      -11.7225431055        9.5432887820  CLST         111          1.0000000000
       332       111  TIP3  H1           12.6456067628      -11.9575398176        9.7011365189  CLST         111          1.0000000000
       333       111  TIP3  H2           11.4642748190      -12.3571082399        8.8494793123  CLST         111          1.0000000000
       334       112  TIP3  OH2           6.3758349698        0.0655297295        1.8172801770  CLST         112          1.0000000000
       335       112  TIP3  H1            6.8568077642        0.9633486230        1.9151424689  CLST         112          1.0000000000
       336       112  TIP3  H2            6.3787646076       -0.2323335941        2.7797635559  CLST         112          1.0000000000
       337       113  TIP3  OH2         -12.8728614871        0.9916409306       -0.0277829329  CLST         113          1.0000000000
       338       113  TIP3  H1          -13.4076689305        0.1385529141       -0.1810172169  CLST         113          1.0000000000
       339       113  TIP3  H2          -12.2380563757        0.9002202477       -0.7844728684  CLST         113          1.0000000000
       340       114  TIP3  OH2         -13.7669833335        3.5479925118       -0.2735796490  CLST         114          1.0000000000
       341       114  TIP3  H1          -13.5675682483        2.5791917354       -0.1791033737  CLST         114          1.0000000000
       342       114  TIP3  H2          -13.4021722789        3.5923750109       -1.2162105527  CLST         114          1.0000000000
       343       115  TIP3  OH2          -8.8802340543        0.3616356621      -10.7750877552  CLST         115          1.0000000000
       344       115  TIP3  H1           -8.2028191897        0.8806363720      -11.2940250541  CLST         115          1.0000000000
       345       115  TIP3  H2           -9.4984592190        1.1244164620      -10.8884218126  CLST         115          1.0000000000
       346       116  TIP3  OH2           6.8868808304       -5.7727951616        2.1511510074  CLST         116          1.0000000000
       347       116  TIP3  H1            7.5035669603       -6.0570160553        1.4393358231  CLST         116          1.0000000000
       348       116  TIP3  H2            7.0677456325       -4.7805671285        2.1165806167  CLST         116          1.0000000000
       349       117  TIP3  OH2          -0.6674257635        0.0901526185       12.4455041227  CLST         117          1.0000000000
       350       117  TIP3  H1            0.1982924655       -0.3542894953       12.5701812584  CLST         117          1.0000000000
       351       117  TIP3  H2           -0.8545635093        0.2633510286       13.3716727118  CLST         117          1.0000000000
       352       118  TIP3  OH2           0.2837787454       -9.6310717931        5.0274201960  CLST         118          1.0000000000
       353       118  TIP3  H1           -0.1144682572       -9.3491706486        5.8886923808  CLST         118          1.0000000000
       354       118  TIP3  H2           -0.0676853578       -8.9227987273        4.4188857449  CLST         118          1.0000000000
       355       119  TIP3  OH2          -9.2145895831      -10.4581709308       -8.9001261689  CLST         119          1.0000000000
       356       119  TIP3  H1           -9.4506098616      -11.1817678608      -10.2911986983  CLST         119          1.0000000000
       357       119  TIP3  H2           -8.9943424957       -9.5895962294       -9.3523714775  CLST         119          1.0000000000
       358       120  TIP3  OH2           9.5708427212       -8.0435394201        1.2896326088  CLST         120          1.0000000000
       359       120  TIP3  H1            8.7688098601       -8.6211565887        1.2809612983  CLST         120          1.0000000000
       360       120  TIP3  H2            9.2509562741       -7.3295893424        0.6697773347  CLST         120          1.0000000000
       361       121  TIP3  OH2          -5.5895357455       -0.2328010992       -8.1681677928  CLST         121          1.0000000000
       362       121  TIP3  H1           -5.6181199650        0.0219047645       -9.1063294747  CLST         121          1.0000000000
       363       121  TIP3  H2           -4.9288571986       -0.9741834754       -8.2203160162  CLST         121          1.0000000000
       364       122  TIP3  OH2          10.4097202870       12.0643163967        5.2135563091  CLST         122          1.0000000000
       365       122  TIP3  H1            9.4487613813       12.3459552984        5.3896464657  CLST         122          1.0000000000
       366       122  TIP3  H2           10.8630229758       12.4601987818        5.9704587968  CLST         122          1.0000000000
       367       123  TIP3  OH2          -7.4769245601       -5.4867392695      -11.1573368540  CLST         123          1.0000000000
       368       123  TIP3  H1           -6.7481990007       -5.9539981184      -11.5941109807  CLST         123          1.0000000000
       369       123  TIP3  H2           -7.2118455128       -5.3766776268      -10.2278427380  CLST         123          1.0000000000
       370       124  TIP3  OH2          -6.0048009898       -8.5896787015      -10.7110169541  CLST         124          1.0000000000
       371       124  TIP3  H1           -5.2650215211       -8.9185385305      -10.1066576801  CLST         124          1.0000000000
       372       124  TIP3  H2           -6.6117264377       -8.2221680456       -9.9922716415  CLST         124          1.0000000000
       373       125  TIP3  OH2         -13.3973349531        4.1415587201        8.1015402191  CLST         125          1.0000000000
       374       125  TIP3  H1          -13.0028322936        3.5008912993        7.4610120835  CLST         125          1.0000000000
       375       125  TIP3  H2          -13.7110582772        4.8810177435        7.5387607420  CLST         125          1.0000000000
       376       126  TIP3  OH2          -6.9516400740      -10.7637907975      -12.1047460102  CLST         126          1.0000000000
       377       126  TIP3  H1           -6.0935408113      -11.1980855148      -11.7948064989  CLST         126          1.0000000000
       378       126  TIP3  H2           -6.8367257826       -9.9251305608      -11.5521475313  CLST         126          1.0000000000
       379       127  TIP3  OH2          -7.4651885891      -11.5881000072       -7.0971526134  CLST         127          1.0000000000
       380       127  TIP3  H1           -8.0743853788      -12.3559056024       -6.9997431036  CLST         127          1.0000000000
       381       127  TIP3  H2           -7.9455217875      -11.1655057269       -7.8638303676  CLST         127          1.0000000000
       382       128  TIP3  OH2          10.0081654446        0.8564026687       -2.4596841753  CLST         128          1.0000000000
       383       128  TIP3  H1            9.1280463542        0.4998723050       -2.1961401283  CLST         128          1.0000000000
       384       128  TIP3  H2            9.6724168039        1.5731155760       -3.0878179038  CLST         128          1.0000000000
       385       129  TIP3  OH2          -7.7788505211        9.4878376920        0.9782713805  CLST         129          1.0000000000
       386       129  TIP3  H1           -6.9586375753        9.9813294904        1.3643267591  CLST         129          1.0000000000
       387       129  TIP3  H2           -7.1732201148        8.8504691570        0.4761477664  CLST         129          1.0000000000
       388       130  TIP3  OH2          -4.1080170239        4.0113115539       10.0257738879  CLST         130          1.0000000000
       389       130  TIP3  H1           -3.6589841171        4.8918942622       10.1921695467  CLST         130          1.0000000000
       390       130  TIP3  H2           -3.7276864855        3.5065508884       10.8355856756  CLST         130          1.0000000000
       391       131  TIP3  OH2           7.7427433412       -3.6739003175       -9.9188868468  CLST         131          1.0000000000
       392       131  TIP3  H1            7.7050407032       -2.8525668058       -9.3016549967  CLST         131          1.0000000000
       393       131  TIP3  H2            6.7592157204       -3.8942894325       -9.7830726674  CLST         131          1.0000000000
       394       132  TIP3  OH2         -11.5516385225       11.4567089719       12.2753858868  CLST         132          1.0000000000
       395       132  TIP3  H1          -11.0312569846       12.0856778549       11.6816021694  CLST         132          1.0000000000
       396       132  TIP3  H2          -12.1898146510       11.8380178956       12.6491248129  CLST         132          1.0000000000
       397       133  TIP3  OH2          10.3177192423        9.3880130454        8.5921880977  CLST         133          1.0000000000
       398       133  TIP3  H1           10.3293316108        9.1056800695        9.5306809153  CLST         133          1.0000000000
       399       133  TIP3  H2           11.2748020699        9.7243515838        8.6074887972  CLST         133          1.0000000000
       400       134  TIP3  OH2          -7.6236427646        5.9908139624       -6.0641529219  CLST         134          1.0000000000
       401       134  TIP3  H1           -8.5985519977        6.0449814137       -5.9802387247  CLST         134          1.0000000000
       402       134  TIP3  H2           -7.4213319297        5.9573215269       -5.0886020167  CLST         134          1.0000000000
       403       135  TIP3  OH2          10.7402864214      -11.2250355716      -13.0787690204  CLST         135          1.0000000000
       404       135  TIP3  H1           10.7853628736      -10.3624826505      -12.5479901815  CLST         135          1.0000000000
       405       135  TIP3  H2           11.0138995043      -11.0254158180      -13.8639906960  CLST         135          1.0000000000
       406       136  TIP3  OH2          -4.2729026660        1.8007171843       -7.0473377308  CLST         136          1.0000000000
       407       136  TIP3  H1           -4.7617699718        0.9711790812       -7.3402178373  CLST         136          1.0000000000
       408       136  TIP3  H2           -5.0561563165        2.3281879067       -6.7763576229  CLST         136          1.0000000000
       409       137  TIP3  OH2          12.8344451170       10.2888234901        9.1887530572  CLST         137          1.0000000000
       410       137  TIP3  H1           12.9791470127       10.1941188972       10.1573768408  CLST         137          1.0000000000
       411       137  TIP3  H2           13.5097626859        9.6877215796        8.8367862292  CLST         137          1.0000000000
       412       138  TIP3  OH2          -0.7765581667       -9.9407880843        1.5335105320  CLST         138          1.0000000000
       413       138  TIP3  H1           -0.9769214882       -9.4098504198        0.7275465404  CLST         138          1.0000000000
       414       138  TIP3  H2           -0.8456475081       -9.2596966683        2.2300110600  CLST         138          1.0000000000
       415       139  TIP3  OH2          -9.6025350897      -10.7657043585        4.4823769702  CLST         139          1.0000000000
       416       139  TIP3  H1          -10.2310798572      -10.7518583252        3.7339373882  CLST         139          1.0000000000
       417       139  TIP3  H2           -8.8967234418      -11.3460037169        4.1513058797  CLST         139          1.0000000000
       418       140  TIP3  OH2          -7.0671317606        3.4736709683       -0.3363181431  CLST         140          1.0000000000
       419       140  TIP3  H1           -6.2466183528        3.9414643479       -0.1147220106  CLST         140          1.0000000000
       420       140  TIP3  H2           -7.7133542408        4.2217547382       -0.4836081329  CLST         140          1.0000000000
       421       141  TIP3  OH2           2.0548920235       -4.4114914914       -3.6302472162  CLST         141          1.0000000000
       422       141  TIP3  H1            1.8127509357       -3.4675529904       -3.3723042719  CLST         141          1.0000000000
       423       141  TIP3  H2            2.7545982158       -4.0790140876       -4.2426503358  CLST         141          1.0000000000
       424       142  TIP3  OH2         -11.6619804784        0.0314349936        4.6715800829  CLST         142          1.0000000000
       425       142  TIP3  H1          -11.4793694645        0.6624213161        5.4070269680  CLST         142          1.0000000000
       426       142  TIP3  H2          -12.4561239257        0.4009991236        4.2968956200  CLST         142          1.0000000000
       427       143  TIP3  OH2           9.4058722748       -5.7134008812       -8.1816764644  CLST         143          1.0000000000
       428       143  TIP3  H1            9.7238241780       -5.0462937365       -8.8164200732  CLST         143          1.0000000000
       429       143  TIP3  H2           10.0044013166       -6.4533582090       -8.3790638025  CLST         143          1.0000000000
       430       144  TIP3  OH2           3.3680696622       -2.8176626234        9.1226703498  CLST         144          1.0000000000
       431       144  TIP3  H1            2.4846070096       -2.3780861352        9.3748954926  CLST         144          1.0000000000
       432       144  TIP3  H2            3.7325199986       -1.9885084434        8.6979576490  CLST         144          1.0000000000
       433       145  TIP3  OH2         -10.3008652836       13.3900314285        3.1694541731  CLST         145          1.0000000000
       434       145  TIP3  H1          -10.6613656159       13.4716665076        2.2225051056  CLST         145          1.0000000000
       435       145  TIP3  H2          -10.1320485157       12.4176937847        3.0451274008  CLST         145          1.0000000000
       436       146  TIP3  OH2           9.1471168815        2.7435069743       -4.2524782614  CLST         146          1.0000000000
       437       146  TIP3  H1            9.0113900326        3.7384871785       -4.3026081150  CLST         146          1.0000000000
       438       146  TIP3  H2            8.4017500300        2.5622252424       -4.8546204858  CLST         146          1.0000000000
       439       147  TIP3  OH2         -11.0556484528       -0.3941201113       -4.2156610743  CLST         147          1.0000000000
       440       147  TIP3  H1          -10.0974143092       -0.6734004444       -4.3370218364  CLST         147          1.0000000000
       441       147  TIP3  H2          -11.3750435689       -0.7297642844       -5.1058551899  CLST         147          1.0000000000
       442       148  TIP3  OH2          -7.9542321963        1.3001651772        8.9529270838  CLST         148          1.0000000000
       443       148  TIP3  H1           -7.9439844622        0.9523311482        8.0118129907  CLST         148          1.0000000000
       444       148  TIP3  H2           -6.9785723642        1.5026067464        8.9638397607  CLST         148          1.0000000000
       445       149  TIP3  OH2           8.6241672961       -2.9081840354        0.8051414219  CLST         149          1.0000000000
       446       149  TIP3  H1            9.1145923591       -2.0633830178        0.5821578118  CLST         149          1.0000000000
       447       149  TIP3  H2            8.3955880353       -2.7771252286        1.7229019459  CLST         149          1.0000000000
       448       150  TIP3  OH2          -2.1575100795      -11.5098873997        8.4952800811  CLST         150          1.0000000000
       449       150  TIP3  H1           -2.9998163076      -11.6141427086        9.0240890771  CLST         150          1.0000000000
       450       150  TIP3  H2           -1.5331042602      -11.9174921973        9.1871301434  CLST         150          1.0000000000
       451       151  TIP3  OH2          -9.1449514629       -6.5570977974       -5.0101896821  CLST         151          1.0000000000
       452       151  TIP3  H1           -8.2278576762       -6.6172775527       -4.5892634412  CLST         151          1.0000000000
       453       151  TIP3  H2           -9.0111522738       -7.3788891438       -5.5732825560  CLST         151          1.0000000000
       454       152  TIP3  OH2           4.0416824322       -2.0985037161        5.1628714914  CLST         152          1.0000000000
       455       152  TIP3  H1            4.5311763970       -2.9150824053        5.4722639740  CLST         152          1.0000000000
       456       152  TIP3  H2            3.7184148695       -2.4521879216        4.2830113307  CLST         152          1.0000000000
       457       153  TIP3  OH2          -2.6891130168        4.8647914925      -14.2405768342  CLST         153          1.0000000000
       458       153  TIP3  H1           -1.7985990856        5.2825573933      -14.1224922344  CLST         153          1.0000000000
       459       153  TIP3  H2           -2.4616394369        4.1842000173      -13.6011762686  CLST         153          1.0000000000
       460       154  TIP3  OH2           4.4320679174       -6.9589313762        2.0905007481  CLST         154          1.0000000000
       461       154  TIP3  H1            5.3634771233       -6.6076737010        2.0432904498  CLST         154          1.0000000000
       462       154  TIP3  H2            3.9616462012       -6.4103574803        1.4478151716  CLST         154          1.0000000000
       463       155  TIP3  OH2           9.4999361725       -2.7125405222       10.2075965467  CLST         155          1.0000000000
       464       155  TIP3  H1            8.7881298021       -3.1953552471        9.7598791167  CLST         155          1.0000000000
       465       155  TIP3  H2           10.0373168147       -3.3647835001       10.5190569128  CLST         155          1.0000000000
       466       156  TIP3  OH2          -2.1209865643       11.2903441918       11.6393676720  CLST         156          1.0000000000
       467       156  TIP3  H1           -2.8621387323       11.9119407119       11.7361259119  CLST         156          1.0000000000
       468       156  TIP3  H2           -2.6370296016       10.4684706107       11.6650494751  CLST         156          1.0000000000
       469       157  TIP3  OH2           3.9428148730       -0.7635738680        7.4781932918  CLST         157          1.0000000000
       470       157  TIP3  H1            4.8903954524       -0.6390199509        7.6711571229  CLST         157          1.0000000000
       471       157  TIP3  H2            3.9702005980       -1.3328375313        6.6487643659  CLST         157          1.0000000000
       472       158  TIP3  OH2          10.6044969170        9.2078077369       13.1495548206  CLST         158          1.0000000000
       473       158  TIP3  H1            9.8584708183        8.7706709266       13.5893185066  CLST         158          1.0000000000
       474       158  TIP3  H2           10.0951362636        9.7829855850       12.5347370395  CLST         158          1.0000000000
       475       159  TIP3  OH2           0.4035047543      -12.2197287623        4.3155871542  CLST         159          1.0000000000
       476       159  TIP3  H1           -0.4100542079      -12.3884273225        4.9089227872  CLST         159          1.0000000000
       477       159  TIP3  H2            0.4422466451      -11.2666507517        4.6260550722  CLST         159          1.0000000000
       478       160  TIP3  OH2           7.3437964130       -3.5689301043        8.5970561907  CLST         160          1.0000000000
       479       160  TIP3  H1            6.9310118857       -3.7536241003        7.7130078293  CLST         160          1.0000000000
       480       160  TIP3  H2            7.0311665503       -2.6131406591        8.5935451417  CLST         160          1.0000000000
       481       161  TIP3  OH2          -2.3931657390       -2.3286957937        7.8119912843  CLST         161          1.0000000000
       482       161  TIP3  H1           -2.1052263520       -1.7326746521        8.5727537832  CLST         161          1.0000000000
       483       161  TIP3  H2           -3.2771140613       -2.5255886682        8.2494133957  CLST         161          1.0000000000
       484       162  TIP3  OH2          -0.8164462714        3.5891697855      -10.7238587617  CLST         162          1.0000000000
       485       162  TIP3  H1           -0.7383902263        4.2338791274      -11.4796907565  CLST         162          1.0000000000
       486       162  TIP3  H2           -0.5902527706        4.1519241822       -9.9775245131  CLST         162          1.0000000000
       487       163  TIP3  OH2         -10.1617663674        9.1817330093       11.2027267204  CLST         163          1.0000000000
       488       163  TIP3  H1          -10.7646293149        8.3585720050       11.3416435484  CLST         163          1.0000000000
       489       163  TIP3  H2          -10.5659166171        9.8369480976       11.8135624972  CLST         163          1.0000000000
       490       164  TIP3  OH2           4.0116638871      -10.4111942009       13.0498326283  CLST         164          1.0000000000
       491       164  TIP3  H1            4.5581675678       -9.6891376921       12.6562997946  CLST         164          1.0000000000
       492       164  TIP3  H2            4.7219334652      -11.0671975519       12.9843138009  CLST         164          1.0000000000
       493       165  TIP3  OH2         -12.0397068417       -5.5151748296        3.5231632437  CLST         165          1.0000000000
       494       165  TIP3  H1          -11.8274172199       -5.5954712134        4.5164438289  CLST         165          1.0000000000
       495       165  TIP3  H2          -12.9763720100       -5.4706522844        3.5775219038  CLST         165          1.0000000000
       496       166  TIP3  OH2          -1.5294419697       -6.2776970303      -10.4402351811  CLST         166          1.0000000000
       497       166  TIP3  H1           -0.6035386960       -6.5947686438      -10.5378185604  CLST         166          1.0000000000
       498       166  TIP3  H2           -2.0919723693       -7.0471476364      -10.4945986261  CLST         166          1.0000000000
       499       167  TIP3  OH2           8.1018290428       10.5619313230       -0.8325459327  CLST         167          1.0000000000
       500       167  TIP3  H1            8.5929726108       10.1505633535       -0.0383278893  CLST         167          1.0000000000
       501       167  TIP3  H2            8.4597352467        9.8487212426       -1.4437414568  CLST         167          1.0000000000
       502       168  TIP3  OH2          -0.5894037090      -13.4141650701        2.1005251747  CLST         168          1.0000000000
       503       168  TIP3  H1           -0.1583276543      -13.1026527782        2.9394004167  CLST         168          1.0000000000
       504       168  TIP3  H2            0.1947930137      -13.7416103563        1.6112424649  CLST         168          1.0000000000
       505       169  TIP3  OH2           5.0945655128        4.0648855500        3.2630985329  CLST         169          1.0000000000
       506       169  TIP3  H1            4.2606169715        3.5636242444        3.3042384352  CLST         169          1.0000000000
       507       169  TIP3  H2            5.0002168720        4.5536764985        2.4157517896  CLST         169          1.0000000000
       508       170  TIP3  OH2          -1.1840085674        4.3354659530        1.4635620943  CLST         170          1.0000000000
       509       170  TIP3  H1           -1.9103018983        5.0299982066        1.4098358741  CLST         170          1.0000000000
       510       170  TIP3  H2           -1.5498493686        3.4460849517        1.3742333669  CLST         170          1.0000000000
       511       171  TIP3  OH2          -3.0726353779        1.2805944846        7.3623867628  CLST         171          1.0000000000
       512       171  TIP3  H1           -2.5680713539        0.8675978839        6.5810210756  CLST         171          1.0000000000
       513       171  TIP3  H2           -2.2945245445        1.6141673555        7.9002532375  CLST         171          1.0000000000
       514       172  TIP3  OH2          -6.4198605052      -13.1098027261        8.2171571169  CLST         172          1.0000000000
       515       172  TIP3  H1           -6.7358775292      -13.9731514348        8.0226057961  CLST         172          1.0000000000
       516       172  TIP3  H2           -5.7760415231      -12.9313476447        7.4498646134  CLST         172          1.0000000000
       517       173  TIP3  OH2          10.2772059170      -12.5437676489        1.8946407696  CLST         173          1.0000000000
       518       173  TIP3  H1           10.5017380243      -12.4675978226        0.9056041977  CLST         173          1.0000000000
       519       173  TIP3  H2            9.3082941738      -12.4849913680        1.8169474174  CLST         173          1.0000000000
       520       174  TIP3  OH2           0.0040202350        5.4756599375        9.7086623864  CLST         174          1.0000000000
       521       174  TIP3  H1           -0.2801743161        4.8533456494       10.3845141657  CLST         174          1.0000000000
       522       174  TIP3  H2           -0.7171110198        6.1526107331        9.7595677585  CLST         174          1.0000000000
       523       175  TIP3  OH2          -5.6736500538       10.4695807292       -3.6167775284  CLST         175          1.0000000000
       524       175  TIP3  H1           -5.2762438447       10.0985845381       -4.4424672854  CLST         175          1.0000000000
       525       175  TIP3  H2           -6.5995408564       10.2524661576       -3.9508987927  CLST         175          1.0000000000
       526       176  TIP3  OH2           6.7571628432        9.2282506018       -7.7047234551  CLST         176          1.0000000000
       527       176  TIP3  H1            7.1268549262       10.0928417277       -8.0348677734  CLST         176          1.0000000000
       528       176  TIP3  H2            6.3298630218        9.5562464760       -6.8860492901  CLST         176          1.0000000000
       529       177  TIP3  OH2          -3.7871078472      -11.4213959286       -1.5160236516  CLST         177          1.0000000000
       530       177  TIP3  H1           -2.9758462103      -11.8710216302       -1.1582871249  CLST         177          1.0000000000
       531       177  TIP3  H2           -4.2777065815      -11.3010672418       -0.6671708695  CLST         177          1.0000000000
       532       178  TIP3  OH2          10.8038377605       -8.9625970082      -11.5021431293  CLST         178          1.0000000000
       533       178  TIP3  H1           10.9091985078       -8.7873036849      -10.5514350475  CLST         178          1.0000000000
       534       178  TIP3  H2           10.7411870450       -7.9877674739      -11.7312477561  CLST         178          1.0000000000
       535       179  TIP3  OH2           6.5400270447       -0.9709789598        8.4790007308  CLST         179          1.0000000000
       536       179  TIP3  H1            6.3622946835       -0.3268757277        9.2160513252  CLST         179          1.0000000000
       537       179  TIP3  H2            7.0943155413       -0.4028604091        7.9120793400  CLST         179          1.0000000000
       538       180  TIP3  OH2          -7.5971162252        8.0909859218        6.0036587854  CLST         180          1.0000000000
       539       180  TIP3  H1           -7.3749722498        7.9242187774        6.9552930101  CLST         180          1.0000000000
       540       180  TIP3  H2           -8.5018131206        8.4126931938        6.1564371842  CLST         180          1.0000000000
       541       181  TIP3  OH2           5.9650659556      -13.0061213606       -0.3596829677  CLST         181          1.0000000000
       542       181  TIP3  H1            6.7927444951      -12.8675771286       -0.8094824716  CLST         181          1.0000000000
       543       181  TIP3  H2            6.3052437521      -13.0655589255        0.5820553051  CLST         181          1.0000000000
       544       182  TIP3  OH2          -1.6344424741       10.5216193950      -10.3477964762  CLST         182          1.0000000000
       545       182  TIP3  H1           -1.0126027566       10.9836800035       -9.7489601181  CLST         182          1.0000000000
       546       182  TIP3  H2           -2.4216216847       10.3655470027       -9.7842519823  CLST         182          1.0000000000
       547       183  TIP3  OH2          -5.4958940048        3.6699839549      -12.3236083888  CLST         183          1.0000000000
       548       183  TIP3  H1           -5.2051806021        3.5567769761      -11.3820023516  CLST         183          1.0000000000
       549       183  TIP3  H2           -6.3899125820        3.2244851892      -12.3026511011  CLST         183          1.0000000000
       550       184  TIP3  OH2           2.9558386465        8.3760020874       -2.4007768331  CLST         184          1.0000000000
       551       184  TIP3  H1            3.2457273795        7.7316456373       -1.7302997685  CLST         184          1.0000000000
       552       184  TIP3  H2            1.9910771106        8.1289994157       -2.3403767895  CLST         184          1.0000000000
       553       185  TIP3  OH2           7.5120162698        4.6828644375       12.1344323366  CLST         185          1.0000000000
       554       185  TIP3  H1            7.8583023330        3.7253536029       12.1349203598  CLST         185          1.0000000000
       555       185  TIP3  H2            6.8968529413        4.7697190582       12.8957979607  CLST         185          1.0000000000
       556       186  TIP3  OH2           3.6939247740        5.8338857375       -5.1351680346  CLST         186          1.0000000000
       557       186  TIP3  H1            3.8956615812        6.8066067183       -5.0942984189  CLST         186          1.0000000000
       558       186  TIP3  H2            3.9092600099        5.6851018862       -6.0867103701  CLST         186          1.0000000000
       559       187  TIP3  OH2           3.9640390421        1.6734285129       -5.5598795953  CLST         187          1.0000000000
       560       187  TIP3  H1            4.1034095084        1.6355305062       -4.5833758695  CLST         187          1.0000000000
       561       187  TIP3  H2            3.6578885636        0.7171793967       -5.6319115967  CLST         187          1.0000000000
       562       188  TIP3  OH2          -4.4477650903       -1.6777349258        4.8309820724  CLST         188          1.0000000000
       563       188  TIP3  H1           -4.5788638371       -0.8781937606        4.2420606694  CLST         188          1.0000000000
       564       188  TIP3  H2           -4.7020231662       -1.2545595550        5.6963633772  CLST         188          1.0000000000
       565       189  TIP3  OH2          -5.0626673536        3.5434563322      -15.0871331425  CLST         189          1.0000000000
       566       189  TIP3  H1           -5.1602085512        3.2941647902      -14.1400500758  CLST         189          1.0000000000
       567       189  TIP3  H2           -4.3297336153        4.1601941856      -14.9444093581  CLST         189          1.0000000000
       568       190  TIP3  OH2           7.1379099092       -5.7626637277        5.1841587024  CLST         190          1.0000000000
       569       190  TIP3  H1            7.0644474588       -5.6545012478        4.2068473767  CLST         190          1.0000000000
       570       190  TIP3  H2            8.1106814598       -5.7229168277        5.2248621361  CLST         190          1.0000000000
       571       191  TIP3  OH2         -10.9274215566       -4.9540439547       -6.5321881779  CLST         191          1.0000000000
       572       191  TIP3  H1          -10.3560219183       -4.6219170950       -7.2452657149  CLST         191          1.0000000000
       573       191  TIP3  H2          -10.2562124799       -5.4391713240       -6.0132548194  CLST         191          1.0000000000
       574       192  TIP3  OH2           8.8045772968       14.2185043239        1.9117377417  CLST         192          1.0000000000
       575       192  TIP3  H1            8.0697091849       14.4128669346        2.5235021598  CLST         192          1.0000000000
       576       192  TIP3  H2            9.2228863896       15.0091369731        1.7306327986  CLST         192          1.0000000000
       577       193  TIP3  OH2           6.1013026975      -12.1082591662       11.6865506874  CLST         193          1.0000000000
       578       193  TIP3  H1            6.7886297248      -12.7921561341       11.4718576483  CLST         193          1.0000000000
       579       193  TIP3  H2            6.0628434614      -11.5260747534       10.9274145601  CLST         193          1.0000000000
       580       194  TIP3  OH2          -6.3150151118       -4.4184288060       11.0689910140  CLST         194          1.0000000000
       581       194  TIP3  H1           -6.7503814772       -4.4755599704       11.8681699101  CLST         194          1.0000000000
       582       194  TIP3  H2           -7.0420249649       -4.4712253947       10.3932493729  CLST         194          1.0000000000
       583       195  TIP3  OH2          -7.6013362938        9.1477787927       10.3143704734  CLST         195          1.0000000000
       584       195  TIP3  H1           -8.5571477667        9.0725794371       10.5666022018  CLST         195          1.0000000000
       585       195  TIP3  H2           -7.5074483993        8.2311699780        9.9584832631  CLST         195          1.0000000000
       586       196  TIP3  OH2           6.0372971712      -12.2147551990       -5.9707987336  CLST         196          1.0000000000
       587       196  TIP3  H1            6.4799769218      -11.5055205059       -6.4963006935  CLST         196          1.0000000000
       588       196  TIP3  H2            5.2169653358      -11.7283188924       -5.7416931735  CLST         196          1.0000000000
       589       197  TIP3  OH2           2.1780203323       -9.2029820497       -2.9413730697  CLST         197          1.0000000000
       590       197  TIP3  H1            1.9027970679       -8.2781004736       -2.6948520491  CLST         197          1.0000000000
       591       197  TIP3  H2            3.0286531066       -9.1283927881       -2.4681653325  CLST         197          1.0000000000
       592       198  TIP3  OH2          10.8268930604        1.8823177781        4.6612125217  CLST         198          1.0000000000
       593       198  TIP3  H1            9.8822314185        1.6389726842        4.6941912077  CLST         198          1.0000000000
       594       198  TIP3  H2           10.6326905856        2.8244290029        4.3707517401  CLST         198          1.0000000000
       595       199  TIP3  OH2          -0.1370613818        8.4106950219       -5.8436847933  CLST         199          1.0000000000
       596       199  TIP3  H1           -0.9541969890        8.6898848536       -5.4041293482  CLST         199          1.0000000000
       597       199  TIP3  H2           -0.2190661395        7.4378323537       -5.7230960244  CLST         199          1.0000000000
       598       200  TIP3  OH2          -7.5632885563       11.8519803912       10.9247348646  CLST         200          1.0000000000
       599       200  TIP3  H1           -7.6761730619       10.9078301196       10.6580435162  CLST         200          1.0000000000
       600       200  TIP3  H2           -7.1890665065       12.2352087058       10.0860351758  CLST         200          1.0000000000
       601       201  TIP3  OH2           4.5328027571        1.1105309917       -0.0251674862  CLST         201          1.0000000000
       602       201  TIP3  H1            3.9737895104        1.4053304337        0.6795512398  CLST         201          1.0000000000
       603       201  TIP3  H2            5.1502039135        0.5983268135        0.5543740314  CLST         201          1.0000000000
       604       202  TIP3  OH2          -2.1438769039       -4.3490963676      -12.4141634125  CLST         202          1.0000000000
       605       202  TIP3  H1           -1.8907655473       -4.9593667446      -11.6773011792  CLST         202          1.0000000000
       606       202  TIP3  H2           -2.5688104612       -3.6033359586      -11.9397041778  CLST         202          1.0000000000
       607       203  TIP3  OH2          -0.7977104876       11.3793639078        7.5488799127  CLST         203          1.0000000000
       608       203  TIP3  H1            0.0425961607       11.0221951826        7.8940649875  CLST         203          1.0000000000
       609       203  TIP3  H2           -1.4100997108       10.9035784081        8.1569983845  CLST         203          1.0000000000
       610       204  TIP3  OH2          -5.5003794968        6.2988664343      -13.2561988295  CLST         204          1.0000000000
       611       204  TIP3  H1           -4.7845545682        6.1449553381      -13.9050269642  CLST         204          1.0000000000
       612       204  TIP3  H2           -5.6126352333        5.3117482847      -13.0348347733  CLST         204          1.0000000000
       613       205  TIP3  OH2          -2.4276821067        7.2473605596       -2.5940072946  CLST         205          1.0000000000
       614       205  TIP3  H1           -2.3566267604        7.9761470047       -3.2976118787  CLST         205          1.0000000000
       615       205  TIP3  H2           -1.4698514857        7.0011793780       -2.5222585468  CLST         205          1.0000000000
       616       206  TIP3  OH2           4.9627080396      -11.0869891277       -9.7304064789  CLST         206          1.0000000000
       617       206  TIP3  H1            4.9219688944      -12.0297222662       -9.3803070321  CLST         206          1.0000000000
       618       206  TIP3  H2            5.7111044641      -10.7735093742       -9.1251611759  CLST         206          1.0000000000
       619       207  TIP3  OH2          12.9238011704       10.1479913852       12.1721626869  CLST         207          1.0000000000
       620       207  TIP3  H1           12.1380221415        9.7545098186       12.6550654561  CLST         207          1.0000000000
       621       207  TIP3  H2           13.5754515374       10.3630398179       12.6729305053  CLST         207          1.0000000000
       622       208  TIP3  OH2         -11.4910791363        2.2724088931        6.8434160322  CLST         208          1.0000000000
       623       208  TIP3  H1          -11.0425867651        2.1411099000        7.7010387861  CLST         208          1.0000000000
       624       208  TIP3  H2          -11.1467496959        3.1617128083        6.5316697797  CLST         208          1.0000000000
       625       209  TIP3  OH2           4.5000959877       -9.3812754437        7.2707079220  CLST         209          1.0000000000
       626       209  TIP3  H1            4.0654704657       -9.5456816530        6.3913094174  CLST         209          1.0000000000
       627       209  TIP3  H2            3.7012445640       -8.8412048064        7.5556333873  CLST         209          1.0000000000
       628       210  TIP3  OH2          12.2089359301      -11.1609900707        5.2396710015  CLST         210          1.0000000000
       629       210  TIP3  H1           12.5328264266      -11.2549850839        4.2854038478  CLST         210          1.0000000000
       630       210  TIP3  H2           12.4574979164      -10.2260098664        5.4172686530  CLST         210          1.0000000000
       631       211  TIP3  OH2          -0.3090463865       -9.2689627707       12.2136870839  CLST         211          1.0000000000
       632       211  TIP3  H1            0.2024007243       -9.8786849852       12.8273686569  CLST         211          1.0000000000
       633       211  TIP3  H2           -1.1230029405       -9.8558263528       12.1708040400  CLST         211          1.0000000000
       634       212  TIP3  OH2         -12.3748988652        3.4856038624       -2.4039110560  CLST         212          1.0000000000
       635       212  TIP3  H1          -11.8231243258        4.1406147636       -2.9385249156  CLST         212          1.0000000000
       636       212  TIP3  H2          -11.7962865521        2.6798651385       -2.3183256262  CLST         212          1.0000000000
       637       213  TIP3  OH2          -9.5161381683      -11.4252958592      -11.2898183222  CLST         213          1.0000000000
       638       213  TIP3  H1           -9.6206275781      -11.7180293151      -12.1870484727  CLST         213          1.0000000000
       639       213  TIP3  H2           -7.9569815618      -11.1425081579      -12.1300718579  CLST         213          1.0000000000
       640       214  TIP3  OH2          -6.5576022492        2.2494437177       -5.4369541780  CLST         214          1.0000000000
       641       214  TIP3  H1           -6.3571335031        1.3995271764       -4.9645790682  CLST         214          1.0000000000
       642       214  TIP3  H2           -7.2446794267        2.5782905734       -4.7875504070  CLST         214          1.0000000000
       643       215  TIP3  OH2         -11.8554921817      -12.8271416368        5.6073356982  CLST         215          1.0000000000
       644       215  TIP3  H1          -10.9271446581      -12.5586019921        5.5430859338  CLST         215          1.0000000000
       645       215  TIP3  H2          -11.8728521865      -13.0090118875        4.6076910353  CLST         215          1.0000000000
       646       216  TIP3  OH2         -11.8177415987       -2.2469643251        8.0807947572  CLST         216          1.0000000000
       647       216  TIP3  H1          -10.9022473821       -1.8904482548        8.2490956892  CLST         216          1.0000000000
       648       216  TIP3  H2          -11.6258777093       -3.2272452562        8.2891056353  CLST         216          1.0000000000
       649       217  TIP3  OH2           7.6973148380       -0.2310705064       -1.4882197107  CLST         217          1.0000000000
       650       217  TIP3  H1            7.9972515742       -1.1231872102       -1.8133709090  CLST         217          1.0000000000
       651       217  TIP3  H2            7.0234296507       -0.5505376506       -0.8293283914  CLST         217          1.0000000000
       652       218  TIP3  OH2          -8.2268891488       -4.0057093193        9.1900063338  CLST         218          1.0000000000
       653       218  TIP3  H1           -8.5175006776       -3.0900734608        8.9172908814  CLST         218          1.0000000000
       654       218  TIP3  H2           -7.7310242019       -4.2998997415        8.4047183822  CLST         218          1.0000000000
       655       219  TIP3  OH2         -12.5056254683       -4.4940594966       -2.6716477178  CLST         219          1.0000000000
       656       219  TIP3  H1          -12.5355688593       -3.4822280323       -2.6815946856  CLST         219          1.0000000000
       657       219  TIP3  H2          -12.8542040925       -4.5691889140       -3.6076014719  CLST         219          1.0000000000
       658       220  TIP3  OH2           6.4312206123        6.7146489788        7.7102497964  CLST         220          1.0000000000
       659       220  TIP3  H1            5.9751535197        6.6793770433        6.8248999304  CLST         220          1.0000000000
       660       220  TIP3  H2            5.7167047610        6.1678534853        8.1606639851  CLST         220          1.0000000000
       661       221  TIP3  OH2         -10.4591477900       -7.0901257108       10.3242064557  CLST         221          1.0000000000
       662       221  TIP3  H1           -9.5188881028       -7.2715940294       10.3155548585  CLST         221          1.0000000000
       663       221  TIP3  H2          -10.7566523089       -7.9846984094       10.0081767836  CLST         221          1.0000000000
       664       222  TIP3  OH2          -6.9158812052       -0.8519942293      -13.6715273515  CLST         222          1.0000000000
       665       222  TIP3  H1           -6.4430591279       -1.7307869426      -13.4227522943  CLST         222          1.0000000000
       666       222  TIP3  H2           -7.8205582900       -1.1978791541      -13.6486307858  CLST         222          1.0000000000
       667       223  TIP3  OH2           2.6363344348      -10.7504128226      -11.7066119133  CLST         223          1.0000000000
       668       223  TIP3  H1            2.0408659618      -11.5748441136      -11.4545881813  CLST         223          1.0000000000
       669       223  TIP3  H2            3.4430121116      -11.0046231276      -11.1871364364  CLST         223          1.0000000000
       670       224  TIP3  OH2           7.5396136734        4.6069391008        0.6211401339  CLST         224          1.0000000000
       671       224  TIP3  H1            8.2988135932        5.2275176210        0.5889063575  CLST         224          1.0000000000
       672       224  TIP3  H2            7.4475624750        4.1971489326       -0.2772000470  CLST         224          1.0000000000
       673       225  TIP3  OH2          -0.3032837766        4.6723417501       -1.2666883106  CLST         225          1.0000000000
       674       225  TIP3  H1           -0.4443539432        4.6279023165       -0.2950871991  CLST         225          1.0000000000
       675       225  TIP3  H2           -0.2897451846        3.6880437895       -1.4287014193  CLST         225          1.0000000000
       676       226  TIP3  OH2          -5.7212333400       -4.4128091763        7.5991645473  CLST         226          1.0000000000
       677       226  TIP3  H1           -5.6437983326       -5.4095883466        7.7659154762  CLST         226          1.0000000000
       678       226  TIP3  H2           -5.6183819730       -4.4080929271        6.6294479729  CLST         226          1.0000000000
       679       227  TIP3  OH2          11.5844703010       -4.1751197776       -9.8886832028  CLST         227          1.0000000000
       680       227  TIP3  H1           11.6509102096       -3.6308664900       -9.0402854761  CLST         227          1.0000000000
       681       227  TIP3  H2           11.2482689059       -3.4523509947      -10.4515117687  CLST         227          1.0000000000
       682       228  TIP3  OH2           3.4499171048       12.4041677970        3.3018346554  CLST         228          1.0000000000
       683       228  TIP3  H1            2.6205147268       12.0541522914        3.8466537710  CLST         228          1.0000000000
       684       228  TIP3  H2            3.0540744879       12.6408210352        2.5901197513  CLST         228          1.0000000000
       685       229  TIP3  OH2         -11.6017296620      -13.0023526613        2.8510197193  CLST         229          1.0000000000
       686       229  TIP3  H1          -11.8752071203      -13.5672964543        2.2837403595  CLST         229          1.0000000000
       687       229  TIP3  H2          -11.2614712022      -12.2275723265        2.2868466001  CLST         229          1.0000000000
       688       230  TIP3  OH2          12.3086131522        6.2346436317       -3.4176169839  CLST         230          1.0000000000
       689       230  TIP3  H1           13.2259338599        6.2115362280       -3.0747422957  CLST         230          1.0000000000
       690       230  TIP3  H2           12.1635917471        5.2687272162       -3.3294280561  CLST         230          1.0000000000
       691       231  TIP3  OH2           7.1102422956        3.2906937844        4.7406830876  CLST         231          1.0000000000
       692       231  TIP3  H1            7.5462645138        4.1561505322        4.8720731336  CLST         231          1.0000000000
       693       231  TIP3  H2            6.2895964490        3.6408400243        4.2920104420  CLST         231          1.0000000000
       694       232  TIP3  OH2         -10.3410266279        8.8934144912        7.4482522898  CLST         232          1.0000000000
       695       232  TIP3  H1          -10.7461499436        9.4237902460        8.1880791551  CLST         232          1.0000000000
       696       232  TIP3  H2          -10.2538361143        7.9893191126        7.8990935083  CLST         232          1.0000000000
       697       233  TIP3  OH2           3.6288642966       -5.2655979419        8.0403113620  CLST         233          1.0000000000
       698       233  TIP3  H1            4.2592438728       -5.6410095633        8.7039586069  CLST         233          1.0000000000
       699       233  TIP3  H2            3.5142781573       -4.3484856096        8.4663928576  CLST         233          1.0000000000
       700       234  TIP3  OH2          -3.5681001628        8.4649253482       -0.6125922513  CLST         234          1.0000000000
       701       234  TIP3  H1           -3.0593950019        8.1771633459       -1.4294476105  CLST         234          1.0000000000
       702       234  TIP3  H2           -3.5633362101        9.4336044992       -0.7821126171  CLST         234          1.0000000000
       703       235  TIP3  OH2          -1.9454445946       -4.0130544569       -8.9928693664  CLST         235          1.0000000000
       704       235  TIP3  H1           -1.8744134081       -4.9015379365       -9.4222210573  CLST         235          1.0000000000
       705       235  TIP3  H2           -0.9823855356       -3.7968476394       -8.9881974616  CLST         235          1.0000000000
       706       236  TIP3  OH2          -0.1966896274      -13.5334110366       -3.1222148983  CLST         236          1.0000000000
       707       236  TIP3  H1            0.4263179849      -12.8468071514       -2.7543588312  CLST         236          1.0000000000
       708       236  TIP3  H2           -0.8302649715      -13.5028046882       -2.3854495725  CLST         236          1.0000000000
       709       237  TIP3  OH2          -3.5481765489       -5.1277014764       10.9212569618  CLST         237          1.0000000000
       710       237  TIP3  H1           -4.4666731817       -4.8347978658       11.1457243947  CLST         237          1.0000000000
       711       237  TIP3  H2           -3.8008096756       -5.7254811308       10.1803845649  CLST         237          1.0000000000
       712       238  TIP3  OH2           0.6314319204        4.6580428694        7.2242196923  CLST         238          1.0000000000
       713       238  TIP3  H1           -0.0118255390        5.2271615923        6.7197835099  CLST         238          1.0000000000
       714       238  TIP3  H2            0.5095676002        5.0301540419        8.1502523020  CLST         238          1.0000000000
       715       239  TIP3  OH2         -14.1183617281        5.9911789473        3.4768508153  CLST         239          1.0000000000
       716       239  TIP3  H1          -14.1899933328        6.3277318013        2.5447759972  CLST         239          1.0000000000
       717       239  TIP3  H2          -13.4433429792        5.3111870642        3.2816106217  CLST         239          1.0000000000
       718       240  TIP3  OH2         -14.0883455499        8.8451296806       -0.2727682977  CLST         240          1.0000000000
       719       240  TIP3  H1          -14.6847933208        9.0540752862        0.4405580425  CLST         240          1.0000000000
       720       240  TIP3  H2          -13.9385379997        7.8619916692       -0.0311014234  CLST         240          1.0000000000
       721       241  TIP3  OH2          -7.6428623875       -7.7605385856       -8.6176500543  CLST         241          1.0000000000
       722       241  TIP3  H1           -8.0310561578       -8.0623135598       -7.7495898218  CLST         241          1.0000000000
       723       241  TIP3  H2           -7.6679228438       -6.7847333197       -8.5099138342  CLST         241          1.0000000000
       724       242  TIP3  OH2           6.1215774668       -5.6776923466        9.6803306025  CLST         242          1.0000000000
       725       242  TIP3  H1            6.5917822819       -4.8198809283        9.4355890278  CLST         242          1.0000000000
       726       242  TIP3  H2            6.9124795089       -6.2799695654        9.4755487887  CLST         242          1.0000000000
       727       243  TIP3  OH2          -6.6439834459       -7.2101252449       -4.2867868813  CLST         243          1.0000000000
       728       243  TIP3  H1           -6.4548285283       -7.9026127315       -4.9531479659  CLST         243          1.0000000000
       729       243  TIP3  H2           -6.4430553063       -7.7896406333       -3.5088691774  CLST         243          1.0000000000
       730       244  TIP3  OH2           4.8587929830        5.7299623197        5.3760274312  CLST         244          1.0000000000
       731       244  TIP3  H1            4.9892184566        5.3251808237        4.4825286722  CLST         244          1.0000000000
       732       244  TIP3  H2            4.1559210536        5.0602978669        5.6279678579  CLST         244          1.0000000000
       733       245  TIP3  OH2          -6.9286008687        3.6841553188       -7.6345681149  CLST         245          1.0000000000
       734       245  TIP3  H1           -6.9625571845        3.0278872215       -6.8774369834  CLST         245          1.0000000000
       735       245  TIP3  H2           -7.2225743743        4.4794582834       -7.1159485786  CLST         245          1.0000000000
       736       246  TIP3  OH2           2.2102022524       -6.5942991155       -1.8807064764  CLST         246          1.0000000000
       737       246  TIP3  H1            1.9378298845       -5.8815567546       -2.5169924255  CLST         246          1.0000000000
       738       246  TIP3  H2            3.2140111599       -6.5412638859       -2.0002308125  CLST         246          1.0000000000
       739       247  TIP3  OH2           6.0398683030        7.9621541755        0.5763381265  CLST         247          1.0000000000
       740       247  TIP3  H1            6.4818482932        7.7470224835       -0.2814662408  CLST         247          1.0000000000
       741       247  TIP3  H2            5.5192910609        8.7683425711        0.3182533730  CLST         247          1.0000000000
       742       248  TIP3  OH2          -2.5057753285        8.4559245368      -11.9233035649  CLST         248          1.0000000000
       743       248  TIP3  H1           -2.1395889702        8.8339777898      -12.7462228989  CLST         248          1.0000000000
       744       248  TIP3  H2           -2.0144506012        9.0438901910      -11.2999925656  CLST         248          1.0000000000
       745       249  TIP3  OH2           8.9157546876        4.7160491265       -7.8220043569  CLST         249          1.0000000000
       746       249  TIP3  H1            8.2174312910        5.3810379431       -7.6120285157  CLST         249          1.0000000000
       747       249  TIP3  H2            8.5451785407        3.9889065017       -7.2877217107  CLST         249          1.0000000000
       748       250  TIP3  OH2          -7.6184589639        9.6533720821       -5.4309375238  CLST         250          1.0000000000
       749       250  TIP3  H1           -7.5939866392        8.8603193534       -5.9748233631  CLST         250          1.0000000000
       750       250  TIP3  H2           -7.5449028744       10.3588280389       -6.1094021136  CLST         250          1.0000000000
       751       251  TIP3  OH2          -3.6429428460       12.3500110318        3.0738135418  CLST         251          1.0000000000
       752       251  TIP3  H1           -3.1429737654       13.0148908794        2.6909130793  CLST         251          1.0000000000
       753       251  TIP3  H2           -3.1115865428       12.1763723509        3.8726721461  CLST         251          1.0000000000
       754       252  TIP3  OH2           5.8258848020        5.4206630442       14.5029004303  CLST         252          1.0000000000
       755       252  TIP3  H1            5.6499274757        6.3771461535       14.2761365967  CLST         252          1.0000000000
       756       252  TIP3  H2            5.7292007949        5.4779042036       15.4124862935  CLST         252          1.0000000000
       757       253  TIP3  OH2           6.0663591687       13.9158276324        3.1407206425  CLST         253          1.0000000000
       758       253  TIP3  H1            5.2050698489       13.4978988930        3.3823093237  CLST         253          1.0000000000
       759       253  TIP3  H2            6.0563703148       13.6664229128        2.1903634702  CLST         253          1.0000000000
       760       254  TIP3  OH2          -4.0768449332        8.1418029942        2.9679937255  CLST         254          1.0000000000
       761       254  TIP3  H1           -4.5392397969        8.7361440024        2.3240087546  CLST         254          1.0000000000
       762       254  TIP3  H2           -4.8311966831        7.6459306013        3.3071149519  CLST         254          1.0000000000
       763       255  TIP3  OH2          -6.9850798135       10.4895853053        4.2517618508  CLST         255          1.0000000000
       764       255  TIP3  H1           -7.9231766214       10.7495687994        4.1797608319  CLST         255          1.0000000000
       765       255  TIP3  H2           -7.0809172605        9.7475009966        4.8692748742  CLST         255          1.0000000000
       766       256  TIP3  OH2          11.4747447158        3.7150907612       -1.3473511152  CLST         256          1.0000000000
       767       256  TIP3  H1           11.9434312286        2.9285610625       -1.7136243708  CLST         256          1.0000000000
       768       256  TIP3  H2           11.3888860129        3.3681683666       -0.4444250605  CLST         256          1.0000000000
       769       257  TIP3  OH2          -8.5380286103       -1.2092464974       -4.9764314640  CLST         257          1.0000000000
       770       257  TIP3  H1           -7.6879398416       -0.8189595213       -4.6379700929  CLST         257          1.0000000000
       771       257  TIP3  H2           -8.4763129023       -1.0231150454       -5.9342931744  CLST         257          1.0000000000
       772       258  TIP3  OH2          -5.3404017976       10.1638983919        7.8150774557  CLST         258          1.0000000000
       773       258  TIP3  H1           -5.2030887238       10.7057493177        6.9856961939  CLST         258          1.0000000000
       774       258  TIP3  H2           -6.1084581563       10.6774771144        8.1652103608  CLST         258          1.0000000000
       775       259  TIP3  OH2          10.1070733714        6.1494393815        0.8745136711  CLST         259          1.0000000000
       776       259  TIP3  H1           10.9995847792        6.5948210305        0.8068212555  CLST         259          1.0000000000
       777       259  TIP3  H2            9.9536670921        6.3926355604        1.8125374319  CLST         259          1.0000000000
       778       260  TIP3  OH2          -4.9718897494        7.7064188132        8.8163510887  CLST         260          1.0000000000
       779       260  TIP3  H1           -5.0775773779        8.6206236976        8.4259912039  CLST         260          1.0000000000
       780       260  TIP3  H2           -5.7782257856        7.2575269717        8.4544158151  CLST         260          1.0000000000
       781       261  TIP3  OH2           0.7443134939       -4.2951296978       12.4298460742  CLST         261          1.0000000000
       782       261  TIP3  H1            0.3256276884       -5.2321752260       12.4363804792  CLST         261          1.0000000000
       783       261  TIP3  H2            1.5119370023       -4.5401069566       13.0036942199  CLST         261          1.0000000000
       784       262  TIP3  OH2         -11.0054227771        4.8259938709        5.9793207427  CLST         262          1.0000000000
       785       262  TIP3  H1          -10.1554143613        4.7272367365        5.4440869441  CLST         262          1.0000000000
       786       262  TIP3  H2          -11.5726794273        5.0658488907        5.2219216804  CLST         262          1.0000000000
       787       263  TIP3  OH2           1.7478363664        1.0089269910        6.7606502015  CLST         263          1.0000000000
       788       263  TIP3  H1            2.4107104093        1.7055006515        6.7263695677  CLST         263          1.0000000000
       789       263  TIP3  H2            2.2927166573        0.2359971899        7.0065895476  CLST         263          1.0000000000
       790       264  TIP3  OH2           5.1583987126       -4.4269375319       -9.6369524994  CLST         264          1.0000000000
       791       264  TIP3  H1            5.1657279634       -5.3823940099       -9.9164640128  CLST         264          1.0000000000
       792       264  TIP3  H2            4.2943965504       -4.2293974525      -10.0981006137  CLST         264          1.0000000000
       793       265  TIP3  OH2           7.7082887223        4.9035033693      -10.2082213603  CLST         265          1.0000000000
       794       265  TIP3  H1            7.8363488246        5.8764524054      -10.3657419800  CLST         265          1.0000000000
       795       265  TIP3  H2            8.4533585809        4.7343972549       -9.5496185726  CLST         265          1.0000000000
       796       266  TIP3  OH2          -7.9933811144       -8.8368308054        0.0633176126  CLST         266          1.0000000000
       797       266  TIP3  H1           -7.7550092723       -9.2094347536        0.9402881190  CLST         266          1.0000000000
       798       266  TIP3  H2           -8.2624869623       -7.9366120366        0.2907081835  CLST         266          1.0000000000
       799       267  TIP3  OH2           1.1780603639        2.5800782528       -5.1429328369  CLST         267          1.0000000000
       800       267  TIP3  H1            1.2451231201        3.4609407252       -4.6844651758  CLST         267          1.0000000000
       801       267  TIP3  H2            2.1113784410        2.2938268938       -5.0034860281  CLST         267          1.0000000000
       802       268  TIP3  OH2           5.1267096011       -4.6331268166       -6.9287774667  CLST         268          1.0000000000
       803       268  TIP3  H1            5.1032162889       -4.3492034733       -7.8880903255  CLST         268          1.0000000000
       804       268  TIP3  H2            4.8321088663       -5.5681926791       -7.0130877514  CLST         268          1.0000000000
       805       269  TIP3  OH2           5.5844887584       10.8244857141       -0.1520650507  CLST         269          1.0000000000
       806       269  TIP3  H1            6.5193463969       10.7039818096       -0.5458693348  CLST         269          1.0000000000
       807       269  TIP3  H2            5.8242745475       11.6796665321        0.3071434582  CLST         269          1.0000000000
       808       270  TIP3  OH2           1.1870742140        9.3677409329       -7.9603291235  CLST         270          1.0000000000
       809       270  TIP3  H1            1.2548921757        8.5131025348       -8.4248650367  CLST         270          1.0000000000
       810       270  TIP3  H2            0.7030078581        9.0296516975       -7.1105322465  CLST         270          1.0000000000
       811       271  TIP3  OH2          -6.4371986647       -9.0497374179       -2.1601680916  CLST         271          1.0000000000
       812       271  TIP3  H1           -5.6340321441       -9.0704002608       -1.6090475540  CLST         271          1.0000000000
       813       271  TIP3  H2           -7.0685293548       -8.9639951823       -1.3793856634  CLST         271          1.0000000000
       814       272  TIP3  OH2           9.4337556748       -8.2615243707        5.7644716978  CLST         272          1.0000000000
       815       272  TIP3  H1            8.4793083535       -8.4749312276        5.8914139837  CLST         272          1.0000000000
       816       272  TIP3  H2            9.4081337140       -7.7262188896        4.9216633106  CLST         272          1.0000000000
       817       273  TIP3  OH2         -13.8909456047        9.4487349064        3.2034549160  CLST         273          1.0000000000
       818       273  TIP3  H1          -14.4990457607        9.7126190755        3.9837592796  CLST         273          1.0000000000
       819       273  TIP3  H2          -13.3944402161        8.7826570933        3.7502743006  CLST         273          1.0000000000
       820       274  TIP3  OH2           4.1920630845       13.0214977424       -4.1964317028  CLST         274          1.0000000000
       821       274  TIP3  H1            3.5421800414       11.7980129053       -2.1862077464  CLST         274          1.0000000000
       822       274  TIP3  H2            4.0686939075       13.5557236910       -3.3996609461  CLST         274          1.0000000000
       823       275  TIP3  OH2           8.8042679596      -11.2725960155        5.8974249562  CLST         275          1.0000000000
       824       275  TIP3  H1            9.4232537621      -10.5284502197        5.9033775952  CLST         275          1.0000000000
       825       275  TIP3  H2            9.3594869467      -12.0472097590        5.6394682670  CLST         275          1.0000000000
       826       276  TIP3  OH2          -0.2720544234       -5.8020699081        1.4184999505  CLST         276          1.0000000000
       827       276  TIP3  H1           -0.8780300177       -5.9855769338        0.6674191678  CLST         276          1.0000000000
       828       276  TIP3  H2           -0.8043793230       -5.1387560174        1.9480320460  CLST         276          1.0000000000
       829       277  TIP3  OH2           6.4677914255        6.4571743698       -6.9868908899  CLST         277          1.0000000000
       830       277  TIP3  H1            5.6392672548        6.1822850213       -7.4478059857  CLST         277          1.0000000000
       831       277  TIP3  H2            6.5749395359        7.3675317846       -7.3403940771  CLST         277          1.0000000000
       832       278  TIP3  OH2          -0.6643832598       -7.6074804223        3.4555559629  CLST         278          1.0000000000
       833       278  TIP3  H1           -0.3696983092       -6.9649155838        2.7364556847  CLST         278          1.0000000000
       834       278  TIP3  H2           -0.9661058833       -6.8990033122        4.0853123849  CLST         278          1.0000000000
       835       279  TIP3  OH2         -13.4682723895        6.3754422363        0.4400565715  CLST         279          1.0000000000
       836       279  TIP3  H1          -13.5222469066        5.4259691958        0.1611437416  CLST         279          1.0000000000
       837       279  TIP3  H2          -12.5288369592        6.4547739411        0.7399442553  CLST         279          1.0000000000
       838       280  TIP3  OH2          -3.3899354428      -10.1570246059        5.5283937962  CLST         280          1.0000000000
       839       280  TIP3  H1           -3.4418775135       -9.2998508137        6.0106562356  CLST         280          1.0000000000
       840       280  TIP3  H2           -3.7181276972       -9.7551662188        4.6924940552  CLST         280          1.0000000000
       841       281  TIP3  OH2           8.1102030230        7.7543861095      -10.7733513338  CLST         281          1.0000000000
       842       281  TIP3  H1            8.4798393007        8.6572933595      -10.6276721537  CLST         281          1.0000000000
       843       281  TIP3  H2            7.1263523453        7.9591075741      -10.7337551953  CLST         281          1.0000000000
       844       282  TIP3  OH2          -7.7640439043      -11.9494023129       10.1116130507  CLST         282          1.0000000000
       845       282  TIP3  H1           -8.5418171504      -11.5681601281        9.7051468762  CLST         282          1.0000000000
       846       282  TIP3  H2           -7.3241176756      -12.3962370512        9.3454150451  CLST         282          1.0000000000
       847       283  TIP3  OH2           4.5815332793        8.7029038564       -4.7271696781  CLST         283          1.0000000000
       848       283  TIP3  H1            4.7851066226        9.6728717643       -4.8889557087  CLST         283          1.0000000000
       849       283  TIP3  H2            4.0413244767        8.7133672805       -3.9320583515  CLST         283          1.0000000000
       850       284  TIP3  OH2          11.9377914225        8.4123639070       -1.3586304054  CLST         284          1.0000000000
       851       284  TIP3  H1           11.7295931179        7.6121691620       -1.8498233066  CLST         284          1.0000000000
       852       284  TIP3  H2           11.0914272854        8.8650684785       -1.4692307742  CLST         284          1.0000000000
       853       285  TIP3  OH2          -5.3415798523        2.0027856569        8.8435606539  CLST         285          1.0000000000
       854       285  TIP3  H1           -4.6481857078        1.8117221532        8.1796673256  CLST         285          1.0000000000
       855       285  TIP3  H2           -4.9000896616        2.7498966928        9.3318415720  CLST         285          1.0000000000
       856       286  TIP3  OH2           3.0257877341        5.8443449269       -0.5250712210  CLST         286          1.0000000000
       857       286  TIP3  H1            2.1828316655        5.6228285503       -0.0620172960  CLST         286          1.0000000000
       858       286  TIP3  H2            3.6729279689        5.6403029857        0.1970630425  CLST         286          1.0000000000
       859       287  TIP3  OH2          -4.2642274763        9.2897139909       11.2842470221  CLST         287          1.0000000000
       860       287  TIP3  H1           -4.7354130274       10.1184043098       11.6366746697  CLST         287          1.0000000000
       861       287  TIP3  H2           -5.0335881145        8.8424032701       10.9124416101  CLST         287          1.0000000000
       862       288  TIP3  OH2           5.7238115360        3.4774710178       -9.4828730875  CLST         288          1.0000000000
       863       288  TIP3  H1            5.6030308497        2.8504798837       -9.9848823587  CLST         288          1.0000000000
       864       288  TIP3  H2            6.7259939557        4.1754414448      -10.0356869359  CLST         288          1.0000000000
       865       289  TIP3  OH2          -7.1595505235       -5.0815105385       -8.3506669615  CLST         289          1.0000000000
       866       289  TIP3  H1           -7.8912583618       -4.4000132030       -8.1904182728  CLST         289          1.0000000000
       867       289  TIP3  H2           -6.4063660106       -4.8507231304       -7.9142100920  CLST         289          1.0000000000
       868       290  TIP3  OH2           2.2298216264      -12.0822460511       11.1657188025  CLST         290          1.0000000000
       869       290  TIP3  H1            2.9688989562      -12.6726569085       11.0006966653  CLST         290          1.0000000000
       870       290  TIP3  H2            2.6256027427      -11.6074220398       11.9003001197  CLST         290          1.0000000000
       871       291  TIP3  OH2         -10.1671793678       -3.5725392722        2.8713484773  CLST         291          1.0000000000
       872       291  TIP3  H1          -10.9067067101       -4.1393464188        3.2248331052  CLST         291          1.0000000000
       873       291  TIP3  H2          -10.2143404165       -3.8684978084        1.9687641471  CLST         291          1.0000000000
       874       292  TIP3  OH2          12.1370622371        3.5824105805       -4.6316222011  CLST         292          1.0000000000
       875       292  TIP3  H1           11.2637144540        3.1412619966       -4.6153468192  CLST         292          1.0000000000
       876       292  TIP3  H2           11.9635841227        4.2731989148       -5.3402899210  CLST         292          1.0000000000
       877       293  TIP3  OH2           8.9351434959       10.6217392445       11.1557255475  CLST         293          1.0000000000
       878       293  TIP3  H1            8.5125418055       11.3875579566       11.4985021844  CLST         293          1.0000000000
       879       293  TIP3  H2            9.1434607988       10.9856090900       10.2452179665  CLST         293          1.0000000000
       880       294  TIP3  OH2           4.1756140304        4.5088567158       -2.4976148727  CLST         294          1.0000000000
       881       294  TIP3  H1            3.8080054856        5.1377825373       -1.8204753468  CLST         294          1.0000000000
       882       294  TIP3  H2            4.3531532764        5.0820252563       -3.2499126799  CLST         294          1.0000000000
       883       295  TIP3  OH2          -2.3857157246      -13.4251582955       -8.6625543501  CLST         295          1.0000000000
       884       295  TIP3  H1           -3.0660943349      -13.3524671163       -7.9667203494  CLST         295          1.0000000000
       885       295  TIP3  H2           -1.6177543195      -13.7647012558       -8.1774476051  CLST         295          1.0000000000
       886       296  TIP3  OH2          -1.6517395665       11.4562349872      -13.0411321132  CLST         296          1.0000000000
       887       296  TIP3  H1           -0.6936537915       11.2652616215      -13.1758222279  CLST         296          1.0000000000
       888       296  TIP3  H2           -1.6632204063       11.2291653696      -12.0802954279  CLST         296          1.0000000000
       889       297  TIP3  OH2           8.0691412740       -0.4224078396       11.3579757990  CLST         297          1.0000000000
       890       297  TIP3  H1            8.6807867009       -1.1083733852       11.0084244218  CLST         297          1.0000000000
       891       297  TIP3  H2            7.2562306699       -0.9723202770       11.4757227022  CLST         297          1.0000000000
       892       298  TIP3  OH2           1.0668722979       -1.2321129488       -7.5085541890  CLST         298          1.0000000000
       893       298  TIP3  H1            1.5505649739       -0.6022998607       -8.1450215721  CLST         298          1.0000000000
       894       298  TIP3  H2            0.9009262399       -1.9427025417       -8.2194894837  CLST         298          1.0000000000
       895       299  TIP3  OH2           2.9728496393       10.2550492038       12.7514740331  CLST         299          1.0000000000
       896       299  TIP3  H1            2.2212912579       10.7704837979       12.3051982160  CLST         299          1.0000000000
       897       299  TIP3  H2            2.3812306469        9.5104506507       12.8046984650  CLST         299          1.0000000000
       898       300  TIP3  OH2         -10.8549141258        5.2062954880       -3.7241358835  CLST         300          1.0000000000
       899       300  TIP3  H1          -10.8549813489        5.6084699324       -4.6273881494  CLST         300          1.0000000000
       900       300  TIP3  H2          -10.8291876436        6.1207680504       -3.2948699930  CLST         300          1.0000000000
       901       301  TIP3  OH2           9.5216176973       -8.2734387359       11.1769053615  CLST         301          1.0000000000
       902       301  TIP3  H1            9.3600053538       -7.8531371411       12.0620238423  CLST         301          1.0000000000
       903       301  TIP3  H2            9.5513927290       -9.2486559562       11.3776400381  CLST         301          1.0000000000
       904       302  TIP3  OH2           7.8710707472       12.7873242538        5.5324252322  CLST         302          1.0000000000
       905       302  TIP3  H1            7.3863202883       13.3525206444        4.8888531056  CLST         302          1.0000000000
       906       302  TIP3  H2            7.0715379997       12.2910251690        5.7851879140  CLST         302          1.0000000000
       907       303  TIP3  OH2         -10.9115230597        1.1974296593       -2.0224147780  CLST         303          1.0000000000
       908       303  TIP3  H1           -9.9852355843        0.9924819753       -1.7735500447  CLST         303          1.0000000000
       909       303  TIP3  H2          -10.9844329255        0.6431651465       -2.8690272233  CLST         303          1.0000000000
       910       304  TIP3  OH2          -7.9651779004        1.2532091467      -15.0339516111  CLST         304          1.0000000000
       911       304  TIP3  H1           -7.5017409239        0.4314851122      -14.6607633756  CLST         304          1.0000000000
       912       304  TIP3  H2           -7.2812160160        1.5987609398      -15.6505302043  CLST         304          1.0000000000
       913       305  TIP3  OH2           3.4438695258       -3.9277814754       13.9385790976  CLST         305          1.0000000000
       914       305  TIP3  H1            4.3833814206       -4.1237443242       13.7665874795  CLST         305          1.0000000000
       915       305  TIP3  H2            3.5344965488       -2.9958143303       13.6529440432  CLST         305          1.0000000000
       916       306  TIP3  OH2           8.8891156598      -11.9316188028      -11.3939989955  CLST         306          1.0000000000
       917       306  TIP3  H1            9.5639777323      -11.8556110446      -12.1498624944  CLST         306          1.0000000000
       918       306  TIP3  H2            9.3299979850      -12.5521705065      -10.8678652544  CLST         306          1.0000000000
       919       307  TIP3  OH2           9.4105600588        7.8591683624       -7.5220778603  CLST         307          1.0000000000
       920       307  TIP3  H1            8.5121570039        8.2128141290       -7.5891384667  CLST         307          1.0000000000
       921       307  TIP3  H2            9.6931135233        8.1601894071       -6.6509265523  CLST         307          1.0000000000
       922       308  TIP3  OH2         -10.8253938697       -4.8295709460        8.8597366742  CLST         308          1.0000000000
       923       308  TIP3  H1          -10.8928062105       -5.6044135611        9.5057464381  CLST         308          1.0000000000
       924       308  TIP3  H2           -9.8949615898       -4.5826723032        9.0602946093  CLST         308          1.0000000000
       925       309  TIP3  OH2          -2.0448957138       -0.5304719143        5.5921466070  CLST         309          1.0000000000
       926       309  TIP3  H1           -2.8846919885       -0.8750420458        5.1308931741  CLST         309          1.0000000000
       927       309  TIP3  H2           -2.1391423911       -1.1671668469        6.3816653210  CLST         309          1.0000000000
       928       310  TIP3  OH2          -5.0409842895       -0.6014426604        7.1281660322  CLST         310          1.0000000000
       929       310  TIP3  H1           -4.3189455528       -0.0078620982        7.4314881293  CLST         310          1.0000000000
       930       310  TIP3  H2           -5.1199265926       -1.2570690765        7.8622671400  CLST         310          1.0000000000
       931       311  TIP3  OH2          -7.2923465436        8.3540799424      -12.2913678164  CLST         311          1.0000000000
       932       311  TIP3  H1           -6.7508976373        7.6617535764      -12.7838888109  CLST         311          1.0000000000
       933       311  TIP3  H2           -7.3102837436        8.1465447826      -11.3243721751  CLST         311          1.0000000000
       934       312  TIP3  OH2           6.4501925992       -0.8011652370       -6.3230299679  CLST         312          1.0000000000
       935       312  TIP3  H1            6.2438392236       -0.1974657390       -5.5889444586  CLST         312          1.0000000000
       936       312  TIP3  H2            6.2567487180       -1.6568126843       -5.8963301605  CLST         312          1.0000000000
       937       313  TIP3  OH2          -8.9412528841      -10.5488313097        7.1230377529  CLST         313          1.0000000000
       938       313  TIP3  H1           -8.3678790563       -9.7138554894        6.9920856429  CLST         313          1.0000000000
       939       313  TIP3  H2           -9.3336414678      -10.5082292873        6.2105312176  CLST         313          1.0000000000
       940       314  TIP3  OH2          -1.3841579129      -12.2067547046      -10.7430902933  CLST         314          1.0000000000
       941       314  TIP3  H1           -1.2363753789      -11.3355515294      -10.2737358074  CLST         314          1.0000000000
       942       314  TIP3  H2           -1.7761786843      -12.6905682989       -9.9682364612  CLST         314          1.0000000000
       943       315  TIP3  OH2          -1.4300034668       -0.5970512628       -6.4403165625  CLST         315          1.0000000000
       944       315  TIP3  H1           -0.5236986471       -0.9226298849       -6.6686388098  CLST         315          1.0000000000
       945       315  TIP3  H2           -1.2985222104       -0.1965948265       -5.5244132771  CLST         315          1.0000000000
       946       316  TIP3  OH2         -13.1707539301       -3.8940999456       -5.4141567991  CLST         316          1.0000000000
       947       316  TIP3  H1          -12.3678053490       -4.3813711875       -5.7716058058  CLST         316          1.0000000000
       948       316  TIP3  H2          -12.8801216994       -3.0242629418       -5.8093406977  CLST         316          1.0000000000
       949       317  TIP3  OH2          -6.2304757456       -0.0258257761       -3.7337841754  CLST         317          1.0000000000
       950       317  TIP3  H1           -5.3776362128       -0.0511800039       -3.2218230688  CLST         317          1.0000000000
       951       317  TIP3  H2           -6.7833741406        0.4315464631       -3.0453287630  CLST         317          1.0000000000
       952       318  TIP3  OH2          -3.9000915302       -9.6699803451       -9.4168275817  CLST         318          1.0000000000
       953       318  TIP3  H1           -4.1197241934       -9.7890328458       -8.4514519151  CLST         318          1.0000000000
       954       318  TIP3  H2           -2.9147141113       -9.7570991876       -9.3471324829  CLST         318          1.0000000000
       955       319  TIP3  OH2           5.6360040851       10.8307877988        8.6071585183  CLST         319          1.0000000000
       956       319  TIP3  H1            6.3861564470       10.2524237007        8.2854245982  CLST         319          1.0000000000
       957       319  TIP3  H2            6.0122135000       11.1685279703        9.4046407126  CLST         319          1.0000000000
       958       320  TIP3  OH2         -10.6381873830        1.0534202215      -14.5789284010  CLST         320          1.0000000000
       959       320  TIP3  H1           -9.7326751259        1.2719907254      -14.9183823550  CLST         320          1.0000000000
       960       320  TIP3  H2          -10.3449093360        0.1873075962      -14.1904653436  CLST         320          1.0000000000
       961       321  TIP3  OH2          -9.7718795756       10.2657231111       -9.7148304259  CLST         321          1.0000000000
       962       321  TIP3  H1          -10.6346881808       10.1496501280      -10.2211059829  CLST         321          1.0000000000
       963       321  TIP3  H2          -10.0289133240       10.0888577178      -11.6883075425  CLST         321          1.0000000000
       964       322  TIP3  OH2         -12.5301934134       -1.8196721739       -2.3613339478  CLST         322          1.0000000000
       965       322  TIP3  H1          -12.1545672537       -1.3284538492       -3.1212180574  CLST         322          1.0000000000
       966       322  TIP3  H2          -11.6931979635       -1.8668066001       -1.8180699093  CLST         322          1.0000000000
       967       323  TIP3  OH2          -1.1462518846        4.0089313286        4.2889372789  CLST         323          1.0000000000
       968       323  TIP3  H1           -0.7666112528        3.1370657620        4.5711409357  CLST         323          1.0000000000
       969       323  TIP3  H2           -1.0252745532        3.9914455835        3.3407918686  CLST         323          1.0000000000
       970       324  TIP3  OH2         -10.9965639107        6.2854031971        1.4607419360  CLST         324          1.0000000000
       971       324  TIP3  H1          -11.1678875897        5.4635454951        1.9887421426  CLST         324          1.0000000000
       972       324  TIP3  H2          -10.2925158199        6.6716285493        2.0374132694  CLST         324          1.0000000000
       973       325  TIP3  OH2          -4.6740441365        0.7535912480        3.6367138224  CLST         325          1.0000000000
       974       325  TIP3  H1           -5.7094048527        0.7926791159        3.7624505987  CLST         325          1.0000000000
       975       325  TIP3  H2           -4.4874511285        1.6211334699        3.3104252129  CLST         325          1.0000000000
       976       326  TIP3  OH2           9.0568447830        8.7036908573       -2.7201725496  CLST         326          1.0000000000
       977       326  TIP3  H1            8.7800635059        7.7627239675       -2.5050902539  CLST         326          1.0000000000
       978       326  TIP3  H2            8.3412422684        8.7828430910       -3.4208367377  CLST         326          1.0000000000
       979       327  TIP3  OH2          10.4507947982       -3.6778479006      -13.0955636785  CLST         327          1.0000000000
       980       327  TIP3  H1           10.5552248749       -3.1739956990      -13.7933930032  CLST         327          1.0000000000
       981       327  TIP3  H2           10.0952413410       -3.0043384741      -12.4029933543  CLST         327          1.0000000000
       982       328  TIP3  OH2           2.3312607389        7.1189744304       -9.7594864474  CLST         328          1.0000000000
       983       328  TIP3  H1            2.6187341047        6.2396191047       -9.3802365908  CLST         328          1.0000000000
       984       328  TIP3  H2            3.2468173905        7.4055676537       -9.9147730332  CLST         328          1.0000000000
       985       329  TIP3  OH2           1.5086670084      -11.6934519666       -2.3278279298  CLST         329          1.0000000000
       986       329  TIP3  H1            1.6034173235      -10.7434386594       -2.6670941377  CLST         329          1.0000000000
       987       329  TIP3  H2            2.2960753215      -11.6410281326       -1.7139178131  CLST         329          1.0000000000
       988       330  TIP3  OH2          -9.3089900367       -0.9658970216        3.4665727533  CLST         330          1.0000000000
       989       330  TIP3  H1           -9.6216422256       -1.8871554786        3.2280042471  CLST         330          1.0000000000
       990       330  TIP3  H2          -10.1336628661       -0.6287315771        3.8904149502  CLST         330          1.0000000000
       991       331  TIP3  OH2          12.2434012181        9.7644665060       -8.9994704960  CLST         331          1.0000000000
       992       331  TIP3  H1           13.0070964430        9.9344755455       -9.4049477398  CLST         331          1.0000000000
       993       331  TIP3  H2           12.1165804394        8.7443074435       -8.9845889459  CLST         331          1.0000000000
       994       332  TIP3  OH2          11.3429572469       -1.3859782409       -4.5621325982  CLST         332          1.0000000000
       995       332  TIP3  H1           12.8480852677       -1.8088091276       -5.3933556880  CLST         332          1.0000000000
       996       332  TIP3  H2           11.8534247357       -0.5951454757       -4.3591207496  CLST         332          1.0000000000
       997       333  TIP3  OH2          10.6434576934      -14.0837053046        7.9783889342  CLST         333          1.0000000000
       998       333  TIP3  H1            9.7423245228      -13.8038339177        8.1904151813  CLST         333          1.0000000000
       999       333  TIP3  H2           10.6366392529      -14.2184751316        7.0379027608  CLST         333          1.0000000000
      1000       334  TIP3  OH2         -10.7292130376       -9.6866354708        9.0306012475  CLST         334          1.0000000000
      1001       334  TIP3  H1          -11.5773984407       -9.9593606263        8.5294110635  CLST         334          1.0000000000
      1002       334  TIP3  H2          -10.1053484434      -10.1023950052        8.3563822648  CLST         334          1.0000000000
      1003       335  TIP3  OH2           6.9426781280       -9.9870003078        1.4114761880  CLST         335          1.0000000000
      1004       335  TIP3  H1            6.8947168043      -10.2234987221        2.3775106150  CLST         335          1.0000000000
      1005       335  TIP3  H2            5.9904019081       -9.8899864835        1.2309392536  CLST         335          1.0000000000
      1006       336  TIP3  OH2          -9.2925416836       -3.6989674448       -3.5738011475  CLST         336          1.0000000000
      1007       336  TIP3  H1           -9.2444051099       -4.4315617388       -4.2141161325  CLST         336          1.0000000000
      1008       336  TIP3  H2           -8.8071843059       -2.9915644892       -4.0357775343  CLST         336          1.0000000000
      1009       337  TIP3  OH2          -1.5641211848       -4.9486678896        8.1000757511  CLST         337          1.0000000000
      1010       337  TIP3  H1           -1.1945925020       -4.6653314862        8.9833835387  CLST         337          1.0000000000
      1011       337  TIP3  H2           -1.8651013609       -4.0003928002        7.9002161321  CLST         337          1.0000000000
      1012       338  TIP3  OH2          -0.5267307302        2.7763515071       10.8195951220  CLST         338          1.0000000000
      1013       338  TIP3  H1           -0.5626829337        2.6028597365        9.8347871639  CLST         338          1.0000000000
      1014       338  TIP3  H2           -0.0747687968        1.9737973602       11.1048984974  CLST         338          1.0000000000
      1015       339  TIP3  OH2           7.8279457676        7.9898715896        2.8550173267  CLST         339          1.0000000000
      1016       339  TIP3  H1            7.5502449834        8.6879497790        3.4942241496  CLST         339          1.0000000000
      1017       339  TIP3  H2            7.1333415318        8.0434935479        2.1282970351  CLST         339          1.0000000000
      1018       340  TIP3  OH2          -4.5517619492      -11.7182021075      -11.2995018622  CLST         340          1.0000000000
      1019       340  TIP3  H1           -4.2804110008      -10.9661082693      -10.6945592572  CLST         340          1.0000000000
      1020       340  TIP3  H2           -4.0214820885      -12.4304084027      -10.8993343751  CLST         340          1.0000000000
      1021       341  TIP3  OH2          -6.7057765675        4.7092462430        9.4010947321  CLST         341          1.0000000000
      1022       341  TIP3  H1           -5.7523911632        4.5576843363        9.7044820666  CLST         341          1.0000000000
      1023       341  TIP3  H2           -7.0146968777        3.8147931959        9.2417989111  CLST         341          1.0000000000
      1024       342  TIP3  OH2          -4.5948080385      -10.9921368715       13.7888659863  CLST         342          1.0000000000
      1025       342  TIP3  H1           -5.2960433782      -11.0153366234       13.0660605007  CLST         342          1.0000000000
      1026       342  TIP3  H2           -4.9770911586      -10.7997109184       14.5277570412  CLST         342          1.0000000000
      1027       343  TIP3  OH2           1.3283533731       -8.9727271574       -9.8343640977  CLST         343          1.0000000000
      1028       343  TIP3  H1            1.2855945650       -8.0562787643      -10.2884400321  CLST         343          1.0000000000
      1029       343  TIP3  H2            1.7384609056       -9.4493806896      -10.5934499593  CLST         343          1.0000000000
      1030       344  TIP3  OH2           5.4551818053       -3.9922641700        6.3574981178  CLST         344          1.0000000000
      1031       344  TIP3  H1            4.8353927263       -4.5980190920        6.8571584132  CLST         344          1.0000000000
      1032       344  TIP3  H2            6.0457282869       -4.6689488955        5.9068741778  CLST         344          1.0000000000
      1033       345  TIP3  OH2          13.0853748008        7.2102645902        8.8865301874  CLST         345          1.0000000000
      1034       345  TIP3  H1           12.6444562943        6.5622146362        8.3941073663  CLST         345          1.0000000000
      1035       345  TIP3  H2           12.4621216856        7.3631937659        9.6446252035  CLST         345          1.0000000000
      1036       346  TIP3  OH2           9.4711559591        9.4358233796        1.0455102748  CLST         346          1.0000000000
      1037       346  TIP3  H1            9.7114808858       10.2406032598        1.6250692201  CLST         346          1.0000000000
      1038       346  TIP3  H2            9.0999687671        8.8242455034        1.7442054909  CLST         346          1.0000000000
      1039       347  TIP3  OH2          -5.1409088819        2.8979483583       -9.7996295051  CLST         347          1.0000000000
      1040       347  TIP3  H1           -5.8520556062        3.3183850291       -9.2342186846  CLST         347          1.0000000000
      1041       347  TIP3  H2           -4.4653815290        2.8120526028       -9.0797514039  CLST         347          1.0000000000
      1042       348  TIP3  OH2          -1.1776529088        6.0579378035        5.8084713383  CLST         348          1.0000000000
      1043       348  TIP3  H1           -1.4225211933        5.2400936247        5.2866473402  CLST         348          1.0000000000
      1044       348  TIP3  H2           -0.6919212587        6.4821322902        5.0547508976  CLST         348          1.0000000000
      1045       349  TIP3  OH2          -4.2097575905        5.2891816609       -2.5629540172  CLST         349          1.0000000000
      1046       349  TIP3  H1           -3.7861444893        4.8017016732       -3.3064501455  CLST         349          1.0000000000
      1047       349  TIP3  H2           -3.5600526348        6.0663470781       -2.5721650882  CLST         349          1.0000000000
      1048       350  TIP3  OH2          -2.6262243648        8.9979295691        5.0482652740  CLST         350          1.0000000000
      1049       350  TIP3  H1           -3.1470455587        8.6819616309        4.2748177527  CLST         350          1.0000000000
      1050       350  TIP3  H2           -2.4199581324        8.2659531393        5.6304103694  CLST         350          1.0000000000
      1051       351  TIP3  OH2           4.8279013590       -7.6393629109       -7.7393355324  CLST         351          1.0000000000
      1052       351  TIP3  H1            4.0977900928       -8.3007803782       -7.6925510480  CLST         351          1.0000000000
      1053       351  TIP3  H2            4.7682284180       -7.4016042097       -8.7032502511  CLST         351          1.0000000000
      1054       352  TIP3  OH2         -10.4030266931      -11.1022765467        1.6966579346  CLST         352          1.0000000000
      1055       352  TIP3  H1           -9.4048200176      -11.1207444749        1.6178295402  CLST         352          1.0000000000
      1056       352  TIP3  H2          -10.6400837891      -10.3312133306        1.1435163206  CLST         352          1.0000000000
      1057       353  TIP3  OH2          10.7708401438       -8.1973910340       -8.6973866737  CLST         353          1.0000000000
      1058       353  TIP3  H1            9.8066550094       -8.5276903810       -8.7910184769  CLST         353          1.0000000000
      1059       353  TIP3  H2           10.9292372050       -8.3057553909       -7.7483642832  CLST         353          1.0000000000
      1060       354  TIP3  OH2           6.8821530059      -10.5578498441        4.1635018962  CLST         354          1.0000000000
      1061       354  TIP3  H1            7.5242150122      -10.8910524426        4.8514339384  CLST         354          1.0000000000
      1062       354  TIP3  H2            6.6830860592       -9.7106906063        4.6822976072  CLST         354          1.0000000000
      1063       355  TIP3  OH2          -7.2049590431        8.9637122931       -8.8515830269  CLST         355          1.0000000000
      1064       355  TIP3  H1           -6.6721337119        9.7826122126       -8.8094796681  CLST         355          1.0000000000
      1065       355  TIP3  H2           -8.0152905711        9.3598772820       -9.1920659698  CLST         355          1.0000000000
      1066       356  TIP3  OH2          12.5224134147        0.9640897489       -1.9867053116  CLST         356          1.0000000000
      1067       356  TIP3  H1           11.5662654337        0.7464054220       -2.1894221287  CLST         356          1.0000000000
      1068       356  TIP3  H2           12.6256981615        0.5816896921       -1.0926209940  CLST         356          1.0000000000
      1069       357  TIP3  OH2          -0.5941525784       -0.4951201946       -2.0085224573  CLST         357          1.0000000000
      1070       357  TIP3  H1            0.2357705308       -0.9867376087       -2.3218836269  CLST         357          1.0000000000
      1071       357  TIP3  H2           -0.7327975036       -0.0693351926       -2.9187600313  CLST         357          1.0000000000
      1072       358  TIP3  OH2          -5.4820176907        7.1021198465       -7.5219324029  CLST         358          1.0000000000
      1073       358  TIP3  H1           -6.1950987647        7.5129730959       -8.0769095342  CLST         358          1.0000000000
      1074       358  TIP3  H2           -6.0959581855        6.6292456432       -6.9026958593  CLST         358          1.0000000000
      1075       359  TIP3  OH2          -5.0593320892       12.1793856679        6.0919492435  CLST         359          1.0000000000
      1076       359  TIP3  H1           -5.4201450701       11.9196438983        5.2235266403  CLST         359          1.0000000000
      1077       359  TIP3  H2           -4.0901256853       12.2472365312        5.8513563386  CLST         359          1.0000000000
      1078       360  TIP3  OH2          -6.8764177192        5.8165189312       -3.3507946064  CLST         360          1.0000000000
      1079       360  TIP3  H1           -7.1401100625        6.4634990371       -2.6764359975  CLST         360          1.0000000000
      1080       360  TIP3  H2           -5.9278088505        5.6240918148       -3.0716681846  CLST         360          1.0000000000
      1081       361  TIP3  OH2          -1.5519187808       -1.1276779023       10.0968155858  CLST         361          1.0000000000
      1082       361  TIP3  H1           -1.4433456033       -0.6408097904       10.9445761322  CLST         361          1.0000000000
      1083       361  TIP3  H2           -1.6811699318       -2.0584725064       10.4543091323  CLST         361          1.0000000000
      1084       362  TIP3  OH2         -10.5277172502        2.8626617334        0.6088272324  CLST         362          1.0000000000
      1085       362  TIP3  H1          -10.5841155126        3.3837638513       -0.2232640257  CLST         362          1.0000000000
      1086       362  TIP3  H2          -11.2590147104        2.2465763160        0.4474985942  CLST         362          1.0000000000
      1087       363  TIP3  OH2          10.4361715158        2.4148806109       10.1927027801  CLST         363          1.0000000000
      1088       363  TIP3  H1           10.5882339817        1.4114867004        9.9194355088  CLST         363          1.0000000000
      1089       363  TIP3  H2           11.2614026014        2.6559474832       10.4247525410  CLST         363          1.0000000000
      1090       364  TIP3  OH2           7.6362482314       -5.5519056171       -6.2912128434  CLST         364          1.0000000000
      1091       364  TIP3  H1            6.7959588371       -5.1756408092       -6.7041415489  CLST         364          1.0000000000
      1092       364  TIP3  H2            8.2579891032       -5.4895982275       -7.0659879109  CLST         364          1.0000000000
      1093       365  TIP3  OH2          -6.1702831416       -6.8184134659        2.6147855135  CLST         365          1.0000000000
      1094       365  TIP3  H1           -6.6224442113       -6.0201950356        2.4068632674  CLST         365          1.0000000000
      1095       365  TIP3  H2           -6.9551586912       -7.3981757502        2.8975281234  CLST         365          1.0000000000
      1096       366  TIP3  OH2           1.8766497840       -1.4979299953       -2.8940291355  CLST         366          1.0000000000
      1097       366  TIP3  H1            2.8429111416       -1.4376291497       -2.5656801853  CLST         366          1.0000000000
      1098       366  TIP3  H2            2.0434515368       -1.0612142315       -3.7766304213  CLST         366          1.0000000000
      1099       367  TIP3  OH2          -5.2736463107       11.7677134218       12.2987794120  CLST         367          1.0000000000
      1100       367  TIP3  H1           -6.2200189824       11.8769100574       11.8853975942  CLST         367          1.0000000000
      1101       367  TIP3  H2           -5.2697568159       12.1035429049       13.0744999530  CLST         367          1.0000000000
      1102       368  TIP3  OH2          -2.7339241764        6.4565974379        1.1951872268  CLST         368          1.0000000000
      1103       368  TIP3  H1           -2.7097145601        7.1445329698        0.4817949624  CLST         368          1.0000000000
      1104       368  TIP3  H2           -3.0311213829        7.0666837499        1.9258155531  CLST         368          1.0000000000
      1105       369  TIP3  OH2         -11.6297494043       -1.7789329576       -6.4981461894  CLST         369          1.0000000000
      1106       369  TIP3  H1          -10.7581201622       -2.2128632925       -6.4104343655  CLST         369          1.0000000000
      1107       369  TIP3  H2          -11.8393733828       -2.0706551052       -7.4295526172  CLST         369          1.0000000000
      1108       370  TIP3  OH2         -12.0045099070        5.5387794461      -11.7085164508  CLST         370          1.0000000000
      1109       370  TIP3  H1          -12.4183065991        4.8696160261      -12.3986305668  CLST         370          1.0000000000
      1110       370  TIP3  H2          -12.6036677888        5.9075475717      -11.2250515551  CLST         370          1.0000000000
      1111       371  TIP3  OH2           2.0412912439        7.8495073644        5.7631483800  CLST         371          1.0000000000
      1112       371  TIP3  H1            1.9325593747        7.5586747082        6.7012844235  CLST         371          1.0000000000
      1113       371  TIP3  H2            2.9947526318        7.8730538234        5.7405910837  CLST         371          1.0000000000
      1114       372  TIP3  OH2           8.1302862039       -7.4411998919        9.0915339100  CLST         372          1.0000000000
      1115       372  TIP3  H1            8.7378970485       -7.4441564947        8.3392867960  CLST         372          1.0000000000
      1116       372  TIP3  H2            8.7484115506       -7.8018241961        9.8040957590  CLST         372          1.0000000000
      1117       373  TIP3  OH2          11.0192760395       -0.3644060130        6.4907800189  CLST         373          1.0000000000
      1118       373  TIP3  H1           11.3013803960        0.3677412243        5.8735283816  CLST         373          1.0000000000
      1119       373  TIP3  H2           10.1054963115       -0.3758468512        6.1688009752  CLST         373          1.0000000000
      1120       374  TIP3  OH2          -9.4411700177        4.6173917594      -12.2595734519  CLST         374          1.0000000000
      1121       374  TIP3  H1           -9.3093276348        5.4307456837      -12.7388055504  CLST         374          1.0000000000
      1122       374  TIP3  H2          -10.3855220479        4.8234950664      -11.9541684998  CLST         374          1.0000000000
      1123       375  TIP3  OH2           9.7237633830       -5.4303721012       -2.7037816743  CLST         375          1.0000000000
      1124       375  TIP3  H1           10.1614992571       -5.0653058258       -3.4964895118  CLST         375          1.0000000000
      1125       375  TIP3  H2           10.0722926709       -6.3606267391       -2.7769697863  CLST         375          1.0000000000
      1126       376  TIP3  OH2          -2.2870921006      -11.1421051911       12.0864992027  CLST         376          1.0000000000
      1127       376  TIP3  H1           -2.9427058194      -11.2784869474       12.8314960435  CLST         376          1.0000000000
      1128       376  TIP3  H2           -2.8539429549      -11.3641338041       11.3383895846  CLST         376          1.0000000000
      1129       377  TIP3  OH2         -10.1772846985       12.7711223263       10.4569407417  CLST         377          1.0000000000
      1130       377  TIP3  H1           -9.2317128722       12.4803293586       10.6143706992  CLST         377          1.0000000000
      1131       377  TIP3  H2          -10.0082174650       13.3209623406        9.6599753206  CLST         377          1.0000000000
      1132       378  TIP3  OH2           2.2669326449       -7.9613913334        7.3839859600  CLST         378          1.0000000000
      1133       378  TIP3  H1            2.4067026682       -7.0390238285        7.6088624651  CLST         378          1.0000000000
      1134       378  TIP3  H2            1.6428801173       -8.3497601480        7.9878430871  CLST         378          1.0000000000
      1135       379  TIP3  OH2          -9.4728537380        9.2988318953       -1.1602734586  CLST         379          1.0000000000
      1136       379  TIP3  H1           -8.9927841989        9.4402698078       -0.3079504017  CLST         379          1.0000000000
      1137       379  TIP3  H2           -9.7103709747       10.2026685591       -1.4838683551  CLST         379          1.0000000000
      1138       380  TIP3  OH2           2.9153629340       -4.1678624601      -11.3096427193  CLST         380          1.0000000000
      1139       380  TIP3  H1            2.4394224450       -3.3591186168      -11.7519866240  CLST         380          1.0000000000
      1140       380  TIP3  H2            3.2975769347       -4.5008605209      -12.1380403253  CLST         380          1.0000000000
      1141       381  TIP3  OH2          10.2269934833        4.3090946619        3.4286462122  CLST         381          1.0000000000
      1142       381  TIP3  H1            9.5731248530        4.9225467657        3.8617834326  CLST         381          1.0000000000
      1143       381  TIP3  H2           10.9480426292        5.0185694053        3.4380057383  CLST         381          1.0000000000
      1144       382  TIP3  OH2           1.8704824625       -5.3686241276        5.8017014015  CLST         382          1.0000000000
      1145       382  TIP3  H1            2.5138641256       -5.2724173350        6.5381842796  CLST         382          1.0000000000
      1146       382  TIP3  H2            2.4657713032       -5.9370891691        5.2410007160  CLST         382          1.0000000000
      1147       383  TIP3  OH2          10.2975183339        8.9102704808        4.8160014758  CLST         383          1.0000000000
      1148       383  TIP3  H1            9.4246260277        9.1040402602        4.3981893626  CLST         383          1.0000000000
      1149       383  TIP3  H2           10.5533703047        9.8185582905        5.0371082959  CLST         383          1.0000000000
      1150       384  TIP3  OH2          -3.3343850658       -1.8488442515       -8.3160061189  CLST         384          1.0000000000
      1151       384  TIP3  H1           -2.7970441494       -2.7115905839       -8.4065758301  CLST         384          1.0000000000
      1152       384  TIP3  H2           -2.7553767689       -1.4447180737       -7.6120654573  CLST         384          1.0000000000
      1153       385  TIP3  OH2           3.7528494384      -11.7006254223       -0.7273722642  CLST         385          1.0000000000
      1154       385  TIP3  H1            4.6592683093      -12.1666082915       -0.5818915608  CLST         385          1.0000000000
      1155       385  TIP3  H2            3.9219033257      -10.9230971989       -0.1543881013  CLST         385          1.0000000000
      1156       386  TIP3  OH2          -4.3343297109        9.2903121561       -6.2261682813  CLST         386          1.0000000000
      1157       386  TIP3  H1           -4.6621593282        8.3916308600       -6.5380940652  CLST         386          1.0000000000
      1158       386  TIP3  H2           -4.2641562063        9.6670328230       -7.1475133839  CLST         386          1.0000000000
      1159       387  TIP3  OH2          -9.8241694911       10.6819579966        2.7297523076  CLST         387          1.0000000000
      1160       387  TIP3  H1          -10.6497050397       10.3638871674        2.2813277435  CLST         387          1.0000000000
      1161       387  TIP3  H2           -9.1632668632       10.4284687192        2.0489861487  CLST         387          1.0000000000
      1162       388  TIP3  OH2          -1.8595625883      -12.3013900734        5.9386925748  CLST         388          1.0000000000
      1163       388  TIP3  H1           -2.2742478833      -11.4162871231        5.6912100302  CLST         388          1.0000000000
      1164       388  TIP3  H2           -1.8256462008      -12.1268191651        6.9211736668  CLST         388          1.0000000000
      1165       389  TIP3  OH2          -8.1483811165        3.4137278822       -3.5971776452  CLST         389          1.0000000000
      1166       389  TIP3  H1           -7.5996815561        4.2406174172       -3.4815324811  CLST         389          1.0000000000
      1167       389  TIP3  H2           -9.0066466317        3.8362954124       -3.3379953688  CLST         389          1.0000000000
      1168       390  TIP3  OH2          -5.7450936408       -4.0497869752        4.5415258637  CLST         390          1.0000000000
      1169       390  TIP3  H1           -5.2558438008       -3.1589447525        4.5701490272  CLST         390          1.0000000000
      1170       390  TIP3  H2           -5.0270946695       -4.5433387189        4.1327885231  CLST         390          1.0000000000
      1171       391  TIP3  OH2          -8.7102712226       -8.8283695338       -6.2621503310  CLST         391          1.0000000000
      1172       391  TIP3  H1           -9.1659530560       -9.5266884684       -6.7764980879  CLST         391          1.0000000000
      1173       391  TIP3  H2           -8.0200711864       -9.4065122859       -5.8217925715  CLST         391          1.0000000000
      1174       392  TIP3  OH2           0.9994854104       -1.9320433629       10.0978160278  CLST         392          1.0000000000
      1175       392  TIP3  H1            0.6075535635       -2.8146224601       10.1937197519  CLST         392          1.0000000000
      1176       392  TIP3  H2            0.1534496882       -1.4184503501        9.9698586748  CLST         392          1.0000000000
      1177       393  TIP3  OH2          10.9196903948      -12.2363270623       -0.7134981850  CLST         393          1.0000000000
      1178       393  TIP3  H1           11.6180852089      -11.0009114728       -0.8262771820  CLST         393          1.0000000000
      1179       393  TIP3  H2           11.5202999540      -12.7482933949       -0.9722488999  CLST         393          1.0000000000
      1180       394  TIP3  OH2           0.5669504470       11.7846916415       -8.6060038703  CLST         394          1.0000000000
      1181       394  TIP3  H1            0.8861359091       12.1413926441       -7.7526659676  CLST         394          1.0000000000
      1182       394  TIP3  H2            0.7898143845       10.8386242010       -8.3889505167  CLST         394          1.0000000000
      1183       395  TIP3  OH2           6.8292947729        7.6019153260       -4.4994928691  CLST         395          1.0000000000
      1184       395  TIP3  H1            5.9622863833        8.0814705816       -4.5928825657  CLST         395          1.0000000000
      1185       395  TIP3  H2            6.7082777118        6.9914241601       -5.2728566344  CLST         395          1.0000000000
      1186       396  TIP3  OH2          -1.1235295606       -9.9316244296       -9.0960172445  CLST         396          1.0000000000
      1187       396  TIP3  H1           -1.1389255517       -9.8196613174       -8.0906471722  CLST         396          1.0000000000
      1188       396  TIP3  H2           -0.2074619224       -9.5693943232       -9.2727485524  CLST         396          1.0000000000
      1189       397  TIP3  OH2          11.4659745189        7.2837259269       -9.0061639597  CLST         397          1.0000000000
      1190       397  TIP3  H1           11.5494857587        6.4673529251       -8.4929637707  CLST         397          1.0000000000
      1191       397  TIP3  H2           10.5494357349        7.4990225234       -8.5849634899  CLST         397          1.0000000000
      1192       398  TIP3  OH2          10.6256120668        7.6977314221       -4.8434503925  CLST         398          1.0000000000
      1193       398  TIP3  H1           10.4439576519        8.3382035409       -4.1144454449  CLST         398          1.0000000000
      1194       398  TIP3  H2           11.3372343349        7.1837517285       -4.3005515251  CLST         398          1.0000000000
      1195       399  TIP3  OH2           1.8559642238       11.1189530336        4.8849361681  CLST         399          1.0000000000
      1196       399  TIP3  H1            1.4108099458       10.2718196886        4.9793316069  CLST         399          1.0000000000
      1197       399  TIP3  H2            2.3336140719       11.1099976721        5.7457521893  CLST         399          1.0000000000
      1198       400  TIP3  OH2           4.0550053645       -3.0278032709       -5.0454553743  CLST         400          1.0000000000
      1199       400  TIP3  H1            4.8341991615       -3.1026717638       -4.4653270930  CLST         400          1.0000000000
      1200       400  TIP3  H2            4.3343864968       -3.6090068481       -5.8042947288  CLST         400          1.0000000000
      1201       401  TIP3  OH2         -15.2194067949       10.0469908995        5.5001940851  CLST         401          1.0000000000
      1202       401  TIP3  H1          -14.5760865864       10.4492207918        6.1533798593  CLST         401          1.0000000000
      1203       401  TIP3  H2          -15.6362748615        9.4528367329        6.1512404150  CLST         401          1.0000000000
      1204       402  TIP3  OH2           1.7712579396       -1.4881712411       12.7840861838  CLST         402          1.0000000000
      1205       402  TIP3  H1            1.3652584503       -2.3808058718       12.8722039811  CLST         402          1.0000000000
      1206       402  TIP3  H2            1.8122408126       -1.5382776524       11.7971361168  CLST         402          1.0000000000
      1207       403  TIP3  OH2          -2.0514666138       -6.9994180812       -0.7137037558  CLST         403          1.0000000000
      1208       403  TIP3  H1           -2.0679117809       -6.4928709748       -1.4155583569  CLST         403          1.0000000000
      1209       403  TIP3  H2           -1.9578904745       -7.9133961733       -1.1705918626  CLST         403          1.0000000000
      1210       404  TIP3  OH2          -4.8676100391       -2.4771342884        9.1500559725  CLST         404          1.0000000000
      1211       404  TIP3  H1           -5.2071692009       -2.8132307771       10.0163702399  CLST         404          1.0000000000
      1212       404  TIP3  H2           -5.2358975687       -3.2654357248        8.6382474531  CLST         404          1.0000000000
      1213       405  TIP3  OH2         -11.9018833634        7.1685417579       11.3057689626  CLST         405          1.0000000000
      1214       405  TIP3  H1          -11.8408038382        6.2017307180       11.0476675443  CLST         405          1.0000000000
      1215       405  TIP3  H2          -12.7207403178        7.1801768383       11.6776362409  CLST         405          1.0000000000
      1216       406  TIP3  OH2           1.0264225068        7.7297744322      -12.0976445631  CLST         406          1.0000000000
      1217       406  TIP3  H1            1.1912205837        8.7032082487      -12.2817939144  CLST         406          1.0000000000
      1218       406  TIP3  H2            1.4266172763        7.6939621325      -11.1916035110  CLST         406          1.0000000000
      1219       407  TIP3  OH2          10.4526462855      -13.2455287752        5.1807802669  CLST         407          1.0000000000
      1220       407  TIP3  H1           10.3985216096      -13.3280534162        4.2050894527  CLST         407          1.0000000000
      1221       407  TIP3  H2           11.2689630277      -12.6429438778        5.2423525365  CLST         407          1.0000000000
      1222       408  TIP3  OH2          -2.9033262553      -11.5771991669        1.9160480236  CLST         408          1.0000000000
      1223       408  TIP3  H1           -2.0662280287      -11.0624700188        1.7960028686  CLST         408          1.0000000000
      1224       408  TIP3  H2           -2.4749188908      -12.3718338318        2.3042655085  CLST         408          1.0000000000
      1225       409  TIP3  OH2           1.0801600598       -9.5728594820        9.7460323017  CLST         409          1.0000000000
      1226       409  TIP3  H1            0.6552662074       -9.1341873746       10.5339371987  CLST         409          1.0000000000
      1227       409  TIP3  H2            1.6318012931      -10.2217253717       10.2339797615  CLST         409          1.0000000000
      1228       410  TIP3  OH2           9.8570402424       -7.1286312163       -5.2911414885  CLST         410          1.0000000000
      1229       410  TIP3  H1            8.9529673884       -6.8201824339       -5.5876137795  CLST         410          1.0000000000
      1230       410  TIP3  H2           10.2888515071       -6.2958559783       -5.6165865346  CLST         410          1.0000000000
      1231       411  TIP3  OH2         -10.1121449789       -2.2044338488       -1.3407269475  CLST         411          1.0000000000
      1232       411  TIP3  H1           -9.3785468602       -2.0699339138       -0.7666665136  CLST         411          1.0000000000
      1233       411  TIP3  H2           -9.8547740904       -2.9105913808       -1.9671542942  CLST         411          1.0000000000
      1234       412  TIP3  OH2           6.7632788799      -10.4231078773      -11.9725131485  CLST         412          1.0000000000
      1235       412  TIP3  H1            6.0423482848      -10.8293049940      -11.4331097695  CLST         412          1.0000000000
      1236       412  TIP3  H2            7.5251736537      -11.0620465017      -11.7779386076  CLST         412          1.0000000000
      1237       413  TIP3  OH2           7.0631084951       13.1068652612        0.3185737831  CLST         413          1.0000000000
      1238       413  TIP3  H1            7.5933739647       12.4757522355       -0.2078909458  CLST         413          1.0000000000
      1239       413  TIP3  H2            7.8627214443       13.5225959931        0.8027241441  CLST         413          1.0000000000
      1240       414  TIP3  OH2           1.3956767091       -2.4120308010      -12.4231472419  CLST         414          1.0000000000
      1241       414  TIP3  H1            0.5300248155       -2.0094673271      -12.1596190198  CLST         414          1.0000000000
      1242       414  TIP3  H2            1.3305414454       -2.5738535245      -13.3527143726  CLST         414          1.0000000000
      1243       415  TIP3  OH2           4.1807693350        5.2542533256       -8.2098311683  CLST         415          1.0000000000
      1244       415  TIP3  H1            3.5161433763        4.5399877924       -7.9848434655  CLST         415          1.0000000000
      1245       415  TIP3  H2            4.8143925078        4.6015657668       -8.6552688229  CLST         415          1.0000000000
      1246       416  TIP3  OH2           5.6242145552       12.4116595106       -7.7568805952  CLST         416          1.0000000000
      1247       416  TIP3  H1            5.3565299806       13.2352608185       -7.8250594179  CLST         416          1.0000000000
      1248       416  TIP3  H2            6.5479373765       12.3680868346       -8.1334096501  CLST         416          1.0000000000
      1249       417  TIP3  OH2          12.6404666722      -11.2217211454        2.7213869211  CLST         417          1.0000000000
      1250       417  TIP3  H1           11.8087095186      -11.5994463123        2.3395105625  CLST         417          1.0000000000
      1251       417  TIP3  H2           12.7217648900      -10.3994387762        2.2269825652  CLST         417          1.0000000000
      1252       418  TIP3  OH2          -9.2481471101       -1.6526053929        8.3309238869  CLST         418          1.0000000000
      1253       418  TIP3  H1           -8.8462675543       -1.2313062565        7.5327284632  CLST         418          1.0000000000
      1254       418  TIP3  H2           -9.0034679377       -0.9886661741        9.0043073956  CLST         418          1.0000000000
      1255       419  TIP3  OH2          15.1289848448        0.4936402053       -6.0574090066  CLST         419          1.0000000000
      1256       419  TIP3  H1           14.5244508702        0.8845406037       -5.3666927666  CLST         419          1.0000000000
      1257       419  TIP3  H2           15.8840961276        1.0154439784       -5.8482027204  CLST         419          1.0000000000
      1258       420  TIP3  OH2          -8.2287206117       -8.1469397864        3.5631844603  CLST         420          1.0000000000
      1259       420  TIP3  H1           -9.0345579548       -7.6734323358        3.2052549435  CLST         420          1.0000000000
      1260       420  TIP3  H2           -8.6160547869       -9.0448295883        3.4507114328  CLST         420          1.0000000000
      1261       421  TIP3  OH2           3.5431991609       -6.3106225401      -13.3269321074  CLST         421          1.0000000000
      1262       421  TIP3  H1            4.4899306711       -6.5889918778      -13.2694247182  CLST         421          1.0000000000
      1263       421  TIP3  H2            3.1391372899       -7.2377856645      -13.4441603026  CLST         421          1.0000000000
      1264       422  TIP3  OH2          -1.9319673645       -9.3945605509       -1.7469093316  CLST         422          1.0000000000
      1265       422  TIP3  H1           -1.2480307490       -9.9804690995       -2.1189675525  CLST         422          1.0000000000
      1266       422  TIP3  H2           -2.7702720146       -9.9436341601       -1.7904973022  CLST         422          1.0000000000
      1267       423  TIP3  OH2           1.6736869446        4.8887059665       -3.8955416465  CLST         423          1.0000000000
      1268       423  TIP3  H1            2.4667378328        5.2278326818       -4.3996111699  CLST         423          1.0000000000
      1269       423  TIP3  H2            2.1053114880        4.4230519763       -3.1493316630  CLST         423          1.0000000000
      1270       424  TIP3  OH2          -9.0045514733        4.4183399006        4.4210082599  CLST         424          1.0000000000
      1271       424  TIP3  H1           -8.9016918536        3.7970668080        3.6855074281  CLST         424          1.0000000000
      1272       424  TIP3  H2           -8.1634703709        4.8897956406        4.4338611049  CLST         424          1.0000000000
      1273       425  TIP3  OH2           8.2207984789      -12.7237105662        8.3864629272  CLST         425          1.0000000000
      1274       425  TIP3  H1            8.2465924550      -12.5923525530        7.4275882396  CLST         425          1.0000000000
      1275       425  TIP3  H2            7.7250025041      -11.8887099473        8.5729884347  CLST         425          1.0000000000
      1276       426  TIP3  OH2           8.2516794983        2.3134429319        8.2600553391  CLST         426          1.0000000000
      1277       426  TIP3  H1            8.9718287663        2.0354527595        8.8634526719  CLST         426          1.0000000000
      1278       426  TIP3  H2            8.4912901444        3.2664960538        8.1382714922  CLST         426          1.0000000000
      1279       427  TIP3  OH2          11.3531623446        7.5353794876       10.8302891067  CLST         427          1.0000000000
      1280       427  TIP3  H1           11.2772319045        7.8531124529       11.7544711544  CLST         427          1.0000000000
      1281       427  TIP3  H2           10.5138090003        6.9669957542       10.7775736477  CLST         427          1.0000000000
      1282       428  TIP3  OH2          12.4770364003        7.6148776087        1.0641053841  CLST         428          1.0000000000
      1283       428  TIP3  H1           12.2946584621        8.2045311796        0.2262105674  CLST         428          1.0000000000
      1284       428  TIP3  H2           13.4005714664        7.7268623867        1.0509226375  CLST         428          1.0000000000
      1285       429  TIP3  OH2          11.9482526295       -9.9489814529       -0.8329974463  CLST         429          1.0000000000
      1286       429  TIP3  H1           12.3259421208       -9.4261707812       -0.0435485005  CLST         429          1.0000000000
      1287       429  TIP3  H2           11.6720586689       -9.2413777561       -1.4516139092  CLST         429          1.0000000000
      1288       430  TIP3  OH2           9.8432272539       -6.7710134710        3.6452030847  CLST         430          1.0000000000
      1289       430  TIP3  H1            9.7715918156       -7.2141147122        2.7366400910  CLST         430          1.0000000000
      1290       430  TIP3  H2           10.7945122024       -6.5798208880        3.5867701936  CLST         430          1.0000000000
      1291       431  TIP3  OH2         -12.7474788024        9.3912675563       -2.5610964670  CLST         431          1.0000000000
      1292       431  TIP3  H1          -13.5089467141        9.4603292280       -3.0747725526  CLST         431          1.0000000000
      1293       431  TIP3  H2          -13.2602207474        9.2185840416       -1.6730764567  CLST         431          1.0000000000
      1294       432  TIP3  OH2           5.4462851006        8.5188737305      -10.0394189710  CLST         432          1.0000000000
      1295       432  TIP3  H1            5.8147363586        8.8610647452       -9.1439811866  CLST         432          1.0000000000
      1296       432  TIP3  H2            4.7577526180        9.2321435871      -10.0330090305  CLST         432          1.0000000000
      1297       433  TIP3  OH2          -0.6755084440        8.0644162562        7.8070872654  CLST         433          1.0000000000
      1298       433  TIP3  H1           -1.5075144387        8.5011372328        8.1070944687  CLST         433          1.0000000000
      1299       433  TIP3  H2           -0.9998091417        7.3588515705        7.2001622885  CLST         433          1.0000000000
      1300       434  TIP3  OH2          -7.2966440119        0.7239743581        3.7876866728  CLST         434          1.0000000000
      1301       434  TIP3  H1           -7.6937726330        1.4333743361        3.2011020873  CLST         434          1.0000000000
      1302       434  TIP3  H2           -7.9776134319       -0.0068505890        3.4978890809  CLST         434          1.0000000000
      1303       435  TIP3  OH2           9.8852009091       -0.5047760465       -7.2619196116  CLST         435          1.0000000000
      1304       435  TIP3  H1            9.9917778010       -0.5483535464       -6.2875908722  CLST         435          1.0000000000
      1305       435  TIP3  H2           10.3110524052        0.3147837742       -7.4717684352  CLST         435          1.0000000000
      1306       436  TIP3  OH2           3.9105008454       10.4332767530       -9.1477671838  CLST         436          1.0000000000
      1307       436  TIP3  H1            4.2953374417       11.1402825740       -8.6053090908  CLST         436          1.0000000000
      1308       436  TIP3  H2            3.0059541712       10.3603290707       -8.8356320187  CLST         436          1.0000000000
      1309       437  TIP3  OH2          -8.3269298433       -0.9347989008       -7.9717678201  CLST         437          1.0000000000
      1310       437  TIP3  H1           -8.5413004592       -0.5058922765       -8.8280016291  CLST         437          1.0000000000
      1311       437  TIP3  H2           -7.3606938822       -0.6937757640       -7.9306902028  CLST         437          1.0000000000
      1312       438  TIP3  OH2          -3.3769547000        5.5882052697       -8.0840972917  CLST         438          1.0000000000
      1313       438  TIP3  H1           -4.2309338986        6.1126389359       -7.8877156535  CLST         438          1.0000000000
      1314       438  TIP3  H2           -3.3253515836        5.9270030301       -9.0077576624  CLST         438          1.0000000000
      1315       439  TIP3  OH2          14.1217121352        1.7110612462       -3.8806192421  CLST         439          1.0000000000
      1316       439  TIP3  H1           13.4612639513        2.3365790508       -4.3850482876  CLST         439          1.0000000000
      1317       439  TIP3  H2           13.5007033404        1.4465496001       -3.0402830725  CLST         439          1.0000000000
      1318       440  TIP3  OH2           1.1138039669      -12.8934123724      -11.1456713491  CLST         440          1.0000000000
      1319       440  TIP3  H1            0.1085256909      -12.6900133460      -11.0885478182  CLST         440          1.0000000000
      1320       440  TIP3  H2            1.1548171875      -13.6717353694      -11.5130336359  CLST         440          1.0000000000
      1321       441  TIP3  OH2          -1.5175067145       -4.2535295630        3.0940507954  CLST         441          1.0000000000
      1322       441  TIP3  H1           -1.9372278852       -3.4498141044        3.3037785270  CLST         441          1.0000000000
      1323       441  TIP3  H2           -1.2861286532       -4.6638375603        4.0022937817  CLST         441          1.0000000000
      1324       442  TIP3  OH2           3.2755863229       -9.7447893673       -7.9928194406  CLST         442          1.0000000000
      1325       442  TIP3  H1            3.8890854623      -10.1871557626       -8.6228060535  CLST         442          1.0000000000
      1326       442  TIP3  H2            2.5031107587       -9.5146073617       -8.5608967158  CLST         442          1.0000000000
      1327       443  TIP3  OH2           1.2994336591       10.5194272633      -12.8719590471  CLST         443          1.0000000000
      1328       443  TIP3  H1            1.5914612694       11.3121000376      -12.1879240849  CLST         443          1.0000000000
      1329       443  TIP3  H2            1.7623690319       10.5150489120      -13.5630579718  CLST         443          1.0000000000
      1330       444  TIP3  OH2          -7.9063491423        1.3250132177       -1.9269364267  CLST         444          1.0000000000
      1331       444  TIP3  H1           -8.0121481439        2.1845064617       -2.4539733026  CLST         444          1.0000000000
      1332       444  TIP3  H2           -7.5050342667        1.7724422220       -1.1246080626  CLST         444          1.0000000000
      1333       445  TIP3  OH2         -11.4111239749       -5.2271524711        6.1892064652  CLST         445          1.0000000000
      1334       445  TIP3  H1          -11.5632662813       -4.2739705599        5.9552554626  CLST         445          1.0000000000
      1335       445  TIP3  H2          -11.3179008747       -5.1202450323        7.1686109896  CLST         445          1.0000000000
      1336       446  TIP3  OH2          -2.9268536073        4.5946383953       -5.3863804092  CLST         446          1.0000000000
      1337       446  TIP3  H1           -3.1276516416        4.9150969011       -6.3006378235  CLST         446          1.0000000000
      1338       446  TIP3  H2           -2.0505548181        5.0829928910       -5.2946276578  CLST         446          1.0000000000
      1339       447  TIP3  OH2          -5.0422625640      -12.6573955210       -3.8942606394  CLST         447          1.0000000000
      1340       447  TIP3  H1           -5.5149619355      -13.3972403500       -3.6195583061  CLST         447          1.0000000000
      1341       447  TIP3  H2           -4.6604012546      -12.3279753723       -3.0355851972  CLST         447          1.0000000000
      1342       448  TIP3  OH2           7.2709154382        9.5419288096        4.7300564622  CLST         448          1.0000000000
      1343       448  TIP3  H1            7.4401288134        9.5059794638        5.7076741861  CLST         448          1.0000000000
      1344       448  TIP3  H2            6.5692893038       10.2598868740        4.7667443829  CLST         448          1.0000000000
      1345       449  TIP3  OH2           4.2599849367        5.1952933129        8.5487083015  CLST         449          1.0000000000
      1346       449  TIP3  H1            4.8059604744        4.6168633356        9.1654184417  CLST         449          1.0000000000
      1347       449  TIP3  H2            4.1323304033        4.6461960520        7.7470133237  CLST         449          1.0000000000
      1348       450  TIP3  OH2          -4.0039936607        0.3698952056       -2.0520574951  CLST         450          1.0000000000
      1349       450  TIP3  H1           -3.6425797462        1.1261117628       -2.5296940651  CLST         450          1.0000000000
      1350       450  TIP3  H2           -3.1812956668       -0.0495704495       -1.7815356137  CLST         450          1.0000000000
      1351       451  TIP3  OH2          13.4673947301       -2.0619979241       -5.8501426145  CLST         451          1.0000000000
      1352       451  TIP3  H1           14.2449030287       -1.7549955891       -5.7387655781  CLST         451          1.0000000000
      1353       451  TIP3  H2           14.5477616352       -0.4117618769       -6.1031402050  CLST         451          1.0000000000
      1354       452  TIP3  OH2           8.4337445614        4.9466478421        8.0437972199  CLST         452          1.0000000000
      1355       452  TIP3  H1            7.6780291393        5.5760187329        7.9020285483  CLST         452          1.0000000000
      1356       452  TIP3  H2            9.1171527374        5.4978584566        7.5502765522  CLST         452          1.0000000000
      1357       453  TIP3  OH2           7.0436108088        2.7036554399       -5.9988242552  CLST         453          1.0000000000
      1358       453  TIP3  H1            6.1734276054        2.5344557844       -5.5621761619  CLST         453          1.0000000000
      1359       453  TIP3  H2            6.7066867237        2.3676646418       -6.8740128843  CLST         453          1.0000000000
      1360       454  TIP3  OH2           1.0885424791        5.4878223278        1.9806821423  CLST         454          1.0000000000
      1361       454  TIP3  H1            0.2045913389        5.0722831245        1.8548839273  CLST         454          1.0000000000
      1362       454  TIP3  H2            0.8223705501        6.1330012510        2.7065762115  CLST         454          1.0000000000
      1363       455  TIP3  OH2          -1.1355701887        0.9524350661      -10.4005727927  CLST         455          1.0000000000
      1364       455  TIP3  H1           -1.5847496797        1.1987395320       -9.5638792942  CLST         455          1.0000000000
      1365       455  TIP3  H2           -0.8561108815        1.9049187310      -10.6075491471  CLST         455          1.0000000000
      1366       456  TIP3  OH2           5.3307719553       11.3826674345        5.2749322503  CLST         456          1.0000000000
      1367       456  TIP3  H1            4.6961652238       11.5525308082        4.5383421376  CLST         456          1.0000000000
      1368       456  TIP3  H2            4.6553974182       11.2895489976        6.0063747685  CLST         456          1.0000000000
      1369       457  TIP3  OH2          -4.8136908894       -7.6447369720        4.8359243321  CLST         457          1.0000000000
      1370       457  TIP3  H1           -5.5747831873       -7.6627291428        5.4301645484  CLST         457          1.0000000000
      1371       457  TIP3  H2           -5.2678663523       -7.2108849560        4.0539683677  CLST         457          1.0000000000
      1372       458  TIP3  OH2           8.0319337411       -6.4696681316      -11.2949707054  CLST         458          1.0000000000
      1373       458  TIP3  H1            8.9989711045       -6.3015329833      -11.5802394412  CLST         458          1.0000000000
      1374       458  TIP3  H2            7.9531298344       -5.5611741314      -10.8892713094  CLST         458          1.0000000000
      1375       459  TIP3  OH2           6.5817605955      -10.0204942771       -7.9013625042  CLST         459          1.0000000000
      1376       459  TIP3  H1            6.1272126384       -9.2078718049       -7.5844608028  CLST         459          1.0000000000
      1377       459  TIP3  H2            7.2970932016       -9.5349300830       -8.4433381811  CLST         459          1.0000000000
      1378       460  TIP3  OH2           9.2459153624       -2.1565364322       -2.9050015362  CLST         460          1.0000000000
      1379       460  TIP3  H1            9.8108506067       -2.7937839649       -2.4399970723  CLST         460          1.0000000000
      1380       460  TIP3  H2            9.9264519944       -1.7215789624       -3.4758541765  CLST         460          1.0000000000
      1381       461  TIP3  OH2          -1.3370155890      -12.8466206666       -5.4095080290  CLST         461          1.0000000000
      1382       461  TIP3  H1           -0.6699568669      -12.9950490843       -6.1304689191  CLST         461          1.0000000000
      1383       461  TIP3  H2           -0.8125851465      -13.1381802878       -4.6240962689  CLST         461          1.0000000000
      1384       462  TIP3  OH2          -0.1088335624        5.4558038481      -12.7109603925  CLST         462          1.0000000000
      1385       462  TIP3  H1            0.2255059898        6.4250903941      -12.5291881137  CLST         462          1.0000000000
      1386       462  TIP3  H2            0.6508158427        5.1753400610      -13.1394823163  CLST         462          1.0000000000
      1387       463  TIP3  OH2          -1.7160534210        1.7717375481       -7.7140194963  CLST         463          1.0000000000
      1388       463  TIP3  H1           -1.5444221744        0.8627866516       -7.3088570817  CLST         463          1.0000000000
      1389       463  TIP3  H2           -2.6821807427        1.8613416702       -7.4679472857  CLST         463          1.0000000000
      1390       464  TIP3  OH2          -6.7767879712        6.2583982530        4.3560224516  CLST         464          1.0000000000
      1391       464  TIP3  H1           -6.1634994779        5.7767701329        4.8769174401  CLST         464          1.0000000000
      1392       464  TIP3  H2           -7.1151140458        6.9766952791        4.9727057788  CLST         464          1.0000000000
      1393       465  TIP3  OH2          -4.6600051271      -12.4917506329        6.3814341080  CLST         465          1.0000000000
      1394       465  TIP3  H1           -3.7619467039      -12.8968874237        6.3202583946  CLST         465          1.0000000000
      1395       465  TIP3  H2           -4.3134352420      -11.5672008881        6.3823428772  CLST         465          1.0000000000
      1396       466  TIP3  OH2          -2.3726942311        9.2385241020       -4.3069119410  CLST         466          1.0000000000
      1397       466  TIP3  H1           -3.0559064076        9.2826478543       -5.0325479802  CLST         466          1.0000000000
      1398       466  TIP3  H2           -2.5819971970       10.0342312363       -3.7765016161  CLST         466          1.0000000000
      1399       467  TIP3  OH2           8.3475821816        5.9058323766        4.5683714997  CLST         467          1.0000000000
      1400       467  TIP3  H1            8.6704227394        6.4188662872        5.3146558327  CLST         467          1.0000000000
      1401       467  TIP3  H2            7.9701730874        6.6266227286        4.0151360684  CLST         467          1.0000000000
      1402       468  TIP3  OH2          -0.5190379723      -12.4339913373       10.4005982511  CLST         468          1.0000000000
      1403       468  TIP3  H1           -0.8398318750      -11.9964216593       11.2102596786  CLST         468          1.0000000000
      1404       468  TIP3  H2            0.4714091119      -12.3768696900       10.4736882735  CLST         468          1.0000000000
      1405       469  TIP3  OH2           5.4776460335        8.3803468024       14.1663702811  CLST         469          1.0000000000
      1406       469  TIP3  H1            6.3523685244        8.6310150182       13.8229686827  CLST         469          1.0000000000
      1407       469  TIP3  H2            4.9485912807        9.0075745584       13.7155484261  CLST         469          1.0000000000
      1408       470  TIP3  OH2         -11.1867609279       12.7815571461        0.6504420378  CLST         470          1.0000000000
      1409       470  TIP3  H1          -11.0643312377       12.8053431713       -0.2777320834  CLST         470          1.0000000000
      1410       470  TIP3  H2          -11.5321761983       11.8846418767        0.8125090575  CLST         470          1.0000000000
      1411       471  TIP3  OH2          -4.1540195178        9.5957719066       -9.0564685983  CLST         471          1.0000000000
      1412       471  TIP3  H1           -4.3325911661        8.6269780491       -9.1637928914  CLST         471          1.0000000000
      1413       471  TIP3  H2           -4.5272294543        9.9207267809       -9.9063105079  CLST         471          1.0000000000
      1414       472  TIP3  OH2         -11.9862255465        3.9187774882        2.7843757326  CLST         472          1.0000000000
      1415       472  TIP3  H1          -12.4206974619        3.0510749818        3.0636637233  CLST         472          1.0000000000
      1416       472  TIP3  H2          -11.6254184318        3.5395723654        1.9340646524  CLST         472          1.0000000000
      1417       473  TIP3  OH2           5.3722858040        0.7845414200       10.1655587841  CLST         473          1.0000000000
      1418       473  TIP3  H1            5.8098937127        1.6163304649       10.4603119020  CLST         473          1.0000000000
      1419       473  TIP3  H2            4.6162114599        1.0989506699        9.6738876025  CLST         473          1.0000000000
      1420       474  TIP3  OH2           1.3006998248        1.6716095901        1.5980941209  CLST         474          1.0000000000
      1421       474  TIP3  H1            0.3382776692        1.5476960725        1.7268113175  CLST         474          1.0000000000
      1422       474  TIP3  H2            1.3906461222        1.1878368202        0.7616274949  CLST         474          1.0000000000
      1423       475  TIP3  OH2           6.0527399704       -8.6436294212       11.9413503276  CLST         475          1.0000000000
      1424       475  TIP3  H1            6.9978455456       -8.7115187731       12.1874590111  CLST         475          1.0000000000
      1425       475  TIP3  H2            6.0574601389       -9.0370003816       11.0501387319  CLST         475          1.0000000000
      1426       476  TIP3  OH2         -11.4724493833       -8.9703637435       -0.1139850816  CLST         476          1.0000000000
      1427       476  TIP3  H1          -11.7422845980       -8.0805557662       -0.5232331063  CLST         476          1.0000000000
      1428       476  TIP3  H2          -10.8719422584       -9.1603398985       -0.8265186778  CLST         476          1.0000000000
      1429       477  TIP3  OH2         -12.4660871566        3.7018307913      -13.3984808428  CLST         477          1.0000000000
      1430       477  TIP3  H1          -12.8227839844        2.8179265287      -13.4143725508  CLST         477          1.0000000000
      1431       477  TIP3  H2          -11.7086969162        3.5049177147      -13.9671865331  CLST         477          1.0000000000
      1432       478  TIP3  OH2          -3.9623502901        6.5787164228      -10.7299795868  CLST         478          1.0000000000
      1433       478  TIP3  H1           -4.5040113930        6.4735465447      -11.5373162073  CLST         478          1.0000000000
      1434       478  TIP3  H2           -3.3563336626        7.2561127955      -11.1722806567  CLST         478          1.0000000000
      1435       479  TIP3  OH2           7.8611879033       -1.5343034787       -8.5915584688  CLST         479          1.0000000000
      1436       479  TIP3  H1            8.6378385745       -1.3048415482       -8.0130057934  CLST         479          1.0000000000
      1437       479  TIP3  H2            7.1785992749       -1.1503039192       -8.0215492732  CLST         479          1.0000000000
      1438       480  TIP3  OH2          -6.0996630132        7.6111913319       -0.1155066502  CLST         480          1.0000000000
      1439       480  TIP3  H1           -5.1716916195        7.8734622465       -0.3969181178  CLST         480          1.0000000000
      1440       480  TIP3  H2           -5.8897003214        6.6652180531        0.1008819187  CLST         480          1.0000000000
      1441       481  TIP3  OH2          -2.9699006301        2.5309046514       11.8574653555  CLST         481          1.0000000000
      1442       481  TIP3  H1           -2.0065995745        2.5271091633       11.6022834392  CLST         481          1.0000000000
      1443       481  TIP3  H2           -3.1570261491        1.6788337346       12.2179845509  CLST         481          1.0000000000
      1444       482  TIP3  OH2          -7.9704660235       11.5758220875       -7.5885342395  CLST         482          1.0000000000
      1445       482  TIP3  H1           -8.6592746507       11.3590629195       -8.2659798032  CLST         482          1.0000000000
      1446       482  TIP3  H2           -7.2722861221       11.8747490750       -8.2564684294  CLST         482          1.0000000000
      1447       483  TIP3  OH2           6.3155588758       -5.8384764149       12.5900748323  CLST         483          1.0000000000
      1448       483  TIP3  H1            6.0489142596       -6.7744655513       12.5014752200  CLST         483          1.0000000000
      1449       483  TIP3  H2            6.1017144148       -5.5903556121       11.6584953995  CLST         483          1.0000000000
      1450       484  TIP3  OH2           6.7457666708       -3.0571734143        2.9202103058  CLST         484          1.0000000000
      1451       484  TIP3  H1            5.7435044514       -3.2503111518        2.9803913450  CLST         484          1.0000000000
      1452       484  TIP3  H2            6.6979756705       -2.2586939980        3.5226165148  CLST         484          1.0000000000
      1453       485  TIP3  OH2         -11.7102530029        4.5856929238       10.0157138640  CLST         485          1.0000000000
      1454       485  TIP3  H1          -11.2621364013        3.6895329537        9.8873260125  CLST         485          1.0000000000
      1455       485  TIP3  H2          -12.5130677013        4.3914402752        9.4172533322  CLST         485          1.0000000000
      1456       486  TIP3  OH2           8.4774869150       -7.1250010330       13.5957055960  CLST         486          1.0000000000
      1457       486  TIP3  H1            8.6898011359       -6.8380109718       14.4273580043  CLST         486          1.0000000000
      1458       486  TIP3  H2            7.7880406662       -6.4611015109       13.3038475502  CLST         486          1.0000000000
      1459       487  TIP3  OH2          12.1966756641       -8.3744001556        6.0452292826  CLST         487          1.0000000000
      1460       487  TIP3  H1           11.1881938929       -8.2847209989        5.9031067676  CLST         487          1.0000000000
      1461       487  TIP3  H2           12.1305741109       -8.4948898872        7.0414579091  CLST         487          1.0000000000
      1462       488  TIP3  OH2          15.1898925149        8.3625756619        7.7420805466  CLST         488          1.0000000000
      1463       488  TIP3  H1           15.7681788413        7.6911318399        7.3752081792  CLST         488          1.0000000000
      1464       488  TIP3  H2           14.5041100193        7.8040416155        8.1815758883  CLST         488          1.0000000000
      1465       489  TIP3  OH2          -6.1660433459      -10.8941251357       11.7802107847  CLST         489          1.0000000000
      1466       489  TIP3  H1           -6.3733985604       -9.9906106001       11.5357497179  CLST         489          1.0000000000
      1467       489  TIP3  H2           -6.9320809549      -11.3818076680       11.2539095319  CLST         489          1.0000000000
      1468       490  TIP3  OH2           6.8829190403      -12.9994004321        2.1900503663  CLST         490          1.0000000000
      1469       490  TIP3  H1            6.7200123665      -12.1790320298        2.6987018065  CLST         490          1.0000000000
      1470       490  TIP3  H2            6.7271191951      -13.6818426950        2.8333307659  CLST         490          1.0000000000
      1471       491  TIP3  OH2           3.0159308626       -9.2234471079        5.0070299184  CLST         491          1.0000000000
      1472       491  TIP3  H1            2.0489769598       -9.2932933429        5.2642266808  CLST         491          1.0000000000
      1473       491  TIP3  H2            3.0225316023       -9.8090863346        4.2124211298  CLST         491          1.0000000000
      1474       492  TIP3  OH2          -0.5228905647       -6.5548968285       12.2842707400  CLST         492          1.0000000000
      1475       492  TIP3  H1           -0.3755543472       -7.5418691718       12.3339283959  CLST         492          1.0000000000
      1476       492  TIP3  H2           -1.4785203261       -6.5847732102       12.2025139546  CLST         492          1.0000000000
      1477       493  TIP3  OH2           3.3785371202       10.7247750680        7.1800835526  CLST         493          1.0000000000
      1478       493  TIP3  H1            4.1347682054       10.6535866768        7.8188828466  CLST         493          1.0000000000
      1479       493  TIP3  H2            2.6261469224       10.4114073747        7.7734028591  CLST         493          1.0000000000
      1480       494  TIP3  OH2          -9.1269041093        5.3656210922       -0.6180553521  CLST         494          1.0000000000
      1481       494  TIP3  H1           -9.4758924626        5.9955883409       -1.2813660158  CLST         494          1.0000000000
      1482       494  TIP3  H2           -9.5200956195        5.7697460441        0.1912961305  CLST         494          1.0000000000
      1483       495  TIP3  OH2           5.0525149161       -6.9153822078       -1.9955479694  CLST         495          1.0000000000
      1484       495  TIP3  H1            5.7626870175       -6.4206901224       -2.4614560405  CLST         495          1.0000000000
      1485       495  TIP3  H2            5.7277434728       -7.4911828361       -1.5559101201  CLST         495          1.0000000000
      1486       496  TIP3  OH2         -12.7571147222      -10.8115922337        7.5226798208  CLST         496          1.0000000000
      1487       496  TIP3  H1          -13.5711527178      -11.2068414207        7.7209557500  CLST         496          1.0000000000
      1488       496  TIP3  H2          -12.4878839024      -11.4256581143        6.8216564063  CLST         496          1.0000000000
      1489       497  TIP3  OH2          -9.6062909953      -13.3969535424       -7.3562188411  CLST         497          1.0000000000
      1490       497  TIP3  H1           -9.9069788240      -14.2500143251       -7.4727586610  CLST         497          1.0000000000
      1491       497  TIP3  H2          -10.0315672098      -12.7926541283       -7.9605944096  CLST         497          1.0000000000
      1492       498  TIP3  OH2          -5.4967406488        0.4496603564      -11.1581375365  CLST         498          1.0000000000
      1493       498  TIP3  H1           -5.8369934629        0.4056313161      -12.0676920763  CLST         498          1.0000000000
      1494       498  TIP3  H2           -5.4186248190        1.3832314570      -10.8935808993  CLST         498          1.0000000000
      1495       499  TIP3  OH2          11.5298080528        6.6004449119        3.5635658881  CLST         499          1.0000000000
      1496       499  TIP3  H1           11.8938808396        7.0399034574        2.7757265791  CLST         499          1.0000000000
      1497       499  TIP3  H2           11.2605443810        7.3393698707        4.1484520841  CLST         499          1.0000000000
      1498       500  TIP3  OH2           2.4139341321       -8.6823392360      -13.3328119665  CLST         500          1.0000000000
      1499       500  TIP3  H1            1.8139716143       -9.1924402091      -13.8734616815  CLST         500          1.0000000000
      1500       500  TIP3  H2            2.7114149192       -9.4373467531      -12.7684384681  CLST         500          1.0000000000
      1501       501  TIP3  OH2           1.3080703104      -10.9408355378       13.9544765721  CLST         501          1.0000000000
      1502       501  TIP3  H1            1.3770718798      -11.8662969432       14.1523252906  CLST         501          1.0000000000
      1503       501  TIP3  H2            2.2432367177      -10.6380985857       13.8691306189  CLST         501          1.0000000000
      1504       502  TIP3  OH2           6.0209590409        3.7509259462        9.7726483383  CLST         502          1.0000000000
      1505       502  TIP3  H1            6.5176128910        4.1139580059       10.5523876114  CLST         502          1.0000000000
      1506       502  TIP3  H2            6.7674316865        3.3419209015        9.2806063536  CLST         502          1.0000000000
      1507       503  TIP3  OH2          10.2807173077       -0.7959144877        0.2275362126  CLST         503          1.0000000000
      1508       503  TIP3  H1           11.0300529381       -0.4132942474        0.7549769614  CLST         503          1.0000000000
      1509       503  TIP3  H2           10.0680436140       -0.0208434336       -0.3174027148  CLST         503          1.0000000000
      1510       504  TIP3  OH2           8.1480033699      -13.8332621768       10.8357947087  CLST         504          1.0000000000
      1511       504  TIP3  H1            8.3384974760      -13.5780548511        9.8869473480  CLST         504          1.0000000000
      1512       504  TIP3  H2            8.2076768922      -14.7234534216       10.8814081441  CLST         504          1.0000000000
      1513       505  TIP3  OH2           3.5312203478      -10.9410809043       -5.6815285353  CLST         505          1.0000000000
      1514       505  TIP3  H1            3.4383923834      -10.3523872911       -6.4882271549  CLST         505          1.0000000000
      1515       505  TIP3  H2            3.0660350501      -10.4206981160       -5.0156850666  CLST         505          1.0000000000
      1516       506  TIP3  OH2          -9.1209554233       -3.4242431838       -8.1331089428  CLST         506          1.0000000000
      1517       506  TIP3  H1           -8.8470621843       -2.4268815938       -8.0684287006  CLST         506          1.0000000000
      1518       506  TIP3  H2           -9.9384586495       -3.2884150400       -8.6373388990  CLST         506          1.0000000000
      1519       507  TIP3  OH2          11.1701952790        9.8201836938      -12.8433441479  CLST         507          1.0000000000
      1520       507  TIP3  H1           11.4803194398        9.5401549744      -13.6821068953  CLST         507          1.0000000000
      1521       507  TIP3  H2           11.1437626278        7.9681852466      -12.6063277037  CLST         507          1.0000000000
      1522       508  TIP3  OH2           9.1627873810       12.2149666385        8.8314115352  CLST         508          1.0000000000
      1523       508  TIP3  H1            8.7969057439       12.3025005246        7.9274418037  CLST         508          1.0000000000
      1524       508  TIP3  H2           10.0979204786       12.4497084297        8.5994030790  CLST         508          1.0000000000
      1525       509  TIP3  OH2          -0.7521762124       -1.4766005523      -11.3111255155  CLST         509          1.0000000000
      1526       509  TIP3  H1           -1.7227443279       -1.6379286822      -11.4203234205  CLST         509          1.0000000000
      1527       509  TIP3  H2           -0.8165342466       -0.5351855226      -10.9734838269  CLST         509          1.0000000000
      1528       510  TIP3  OH2           8.2443598905        2.2738060616       11.5379238939  CLST         510          1.0000000000
      1529       510  TIP3  H1            8.1178667599        1.2765565313       11.5559935651  CLST         510          1.0000000000
      1530       510  TIP3  H2            9.1591385672        2.2811618503       11.1124150193  CLST         510          1.0000000000
      1531       511  TIP3  OH2          -8.7738016288       -5.8846559072       -0.6378559086  CLST         511          1.0000000000
      1532       511  TIP3  H1           -9.7034878796       -6.1123169700       -0.8492772196  CLST         511          1.0000000000
      1533       511  TIP3  H2           -8.6592150873       -5.3178472109       -1.4005896220  CLST         511          1.0000000000
      1534       512  TIP3  OH2          10.1250965440        7.0495475519        6.8757380823  CLST         512          1.0000000000
      1535       512  TIP3  H1           10.1417559539        7.6563879212        7.6409787474  CLST         512          1.0000000000
      1536       512  TIP3  H2           10.3374028680        7.7263766464        6.1862720689  CLST         512          1.0000000000
      1537       513  TIP3  OH2         -11.7510318174       10.4775837749        9.3060227381  CLST         513          1.0000000000
      1538       513  TIP3  H1          -11.2518517464       11.2948114952        9.5539897782  CLST         513          1.0000000000
      1539       513  TIP3  H2          -11.4905929364        9.9616443682       10.1234713760  CLST         513          1.0000000000
      1540       514  TIP3  OH2          -4.8188631973        5.0614769813        0.0877044731  CLST         514          1.0000000000
      1541       514  TIP3  H1           -3.9987612197        5.4632681136        0.4486551181  CLST         514          1.0000000000
      1542       514  TIP3  H2           -4.5577143039        5.0048195234       -0.8793794300  CLST         514          1.0000000000
      1543       515  TIP3  OH2          -0.8633029476        0.9051573637       -4.2406287217  CLST         515          1.0000000000
      1544       515  TIP3  H1           -1.6505066994        1.5066009608       -4.3367491507  CLST         515          1.0000000000
      1545       515  TIP3  H2           -0.1313740341        1.4558096940       -4.5868320381  CLST         515          1.0000000000
      1546       516  TIP3  OH2          -7.3904008202       -8.5453042105        6.3222167779  CLST         516          1.0000000000
      1547       516  TIP3  H1           -7.5417079765       -8.5678845005        5.3474179436  CLST         516          1.0000000000
      1548       516  TIP3  H2           -7.8858541595       -7.6999266953        6.5247999153  CLST         516          1.0000000000
      1549       517  TIP3  OH2           0.6949195576       11.0955731163       11.5969058578  CLST         517          1.0000000000
      1550       517  TIP3  H1            0.6030916604       10.9883956593       10.6426523413  CLST         517          1.0000000000
      1551       517  TIP3  H2           -0.2759989440       11.3238785848       11.7596022064  CLST         517          1.0000000000
      1552       518  TIP3  OH2         -11.7692300042       -3.4370934246      -11.4057322264  CLST         518          1.0000000000
      1553       518  TIP3  H1          -11.9546951711       -2.9260702461      -12.1883760875  CLST         518          1.0000000000
      1554       518  TIP3  H2          -10.9153258819       -3.7808899259      -11.7298064832  CLST         518          1.0000000000
      1555       519  TIP3  OH2           2.1321471746        3.4520295504        3.3488096826  CLST         519          1.0000000000
      1556       519  TIP3  H1            1.8329649083        4.2693257185        2.8354453923  CLST         519          1.0000000000
      1557       519  TIP3  H2            1.8154074888        2.7553934999        2.7221688138  CLST         519          1.0000000000
      1558       520  TIP3  OH2         -10.2440138829        6.2582508086        8.1298183498  CLST         520          1.0000000000
      1559       520  TIP3  H1          -10.5279156176        5.6951259414        7.3510549972  CLST         520          1.0000000000
      1560       520  TIP3  H2          -10.8498467062        5.7719638108        8.7703252860  CLST         520          1.0000000000
      1561       521  TIP3  OH2           8.3721495127       -8.8757510174       -9.4992476121  CLST         521          1.0000000000
      1562       521  TIP3  H1            8.5565088104       -9.4970788663      -10.2327104730  CLST         521          1.0000000000
      1563       521  TIP3  H2            8.2345249293       -8.0473442562      -10.0367650136  CLST         521          1.0000000000
      1564       522  TIP3  OH2          -5.5276520535       -6.9756167414        8.1785238858  CLST         522          1.0000000000
      1565       522  TIP3  H1           -6.0896200421       -7.7202787740        7.9100046463  CLST         522          1.0000000000
      1566       522  TIP3  H2           -4.5766827273       -7.2663144445        8.2187341739  CLST         522          1.0000000000
      1567       523  TIP3  OH2          -4.0617733060       12.0410902058      -13.6507335413  CLST         523          1.0000000000
      1568       523  TIP3  H1           -3.0657351000       11.7741571155      -13.5190948461  CLST         523          1.0000000000
      1569       523  TIP3  H2           -3.9834399448       12.7615154825      -14.0984122102  CLST         523          1.0000000000
      1570       524  TIP3  OH2           6.9042731570        3.8158910524       -1.7323120174  CLST         524          1.0000000000
      1571       524  TIP3  H1            7.1873179354        3.0155173572       -2.2349159314  CLST         524          1.0000000000
      1572       524  TIP3  H2            5.9482873699        3.8811862781       -1.9860211039  CLST         524          1.0000000000
      1573       525  TIP3  OH2           0.4626050911        6.8722684016       -2.4958577198  CLST         525          1.0000000000
      1574       525  TIP3  H1            0.8847131380        6.4327572794       -3.2714478927  CLST         525          1.0000000000
      1575       525  TIP3  H2            0.2603116023        6.0127195614       -2.0204060844  CLST         525          1.0000000000
      1576       526  TIP3  OH2           7.2098289606       -5.4702119067       -3.6111972263  CLST         526          1.0000000000
      1577       526  TIP3  H1            7.2845670961       -5.7246511902       -4.5474591257  CLST         526          1.0000000000
      1578       526  TIP3  H2            8.1311453116       -5.4093059004       -3.2837384390  CLST         526          1.0000000000
      1579       527  TIP3  OH2           0.2826202013        7.1855162161        3.9830197136  CLST         527          1.0000000000
      1580       527  TIP3  H1            1.0291594957        7.2899804839        4.6651750361  CLST         527          1.0000000000
      1581       527  TIP3  H2            0.1326911642        8.1272793315        3.8815374340  CLST         527          1.0000000000
      1582       528  TIP3  OH2          -2.7704271768        9.8593686673        8.7223219330  CLST         528          1.0000000000
      1583       528  TIP3  H1           -3.2070361897        9.5513219321        9.5543669640  CLST         528          1.0000000000
      1584       528  TIP3  H2           -3.5697343457       10.2194467968        8.2844717474  CLST         528          1.0000000000
      1585       529  TIP3  OH2          -6.0422119109       12.2617533789       -9.4381229143  CLST         529          1.0000000000
      1586       529  TIP3  H1           -5.1490605501       12.2588929134       -9.1347062723  CLST         529          1.0000000000
      1587       529  TIP3  H2           -5.9511836597       12.0977637365      -10.3845186655  CLST         529          1.0000000000
      1588       530  TIP3  OH2          -4.4813324631       -5.5596406739      -13.0736458601  CLST         530          1.0000000000
      1589       530  TIP3  H1           -4.4267839545       -6.5653794322      -13.0512431573  CLST         530          1.0000000000
      1590       530  TIP3  H2           -3.5136981812       -5.3451913558      -13.1019805525  CLST         530          1.0000000000
      1591       531  TIP3  OH2         -11.5623845350       -0.1748278126       10.4928669091  CLST         531          1.0000000000
      1592       531  TIP3  H1          -12.1282985526       -0.3520206650       11.2167453244  CLST         531          1.0000000000
      1593       531  TIP3  H2          -11.8711210458       -0.8112294498        9.8371699519  CLST         531          1.0000000000
      1594       532  TIP3  OH2         -12.1130285416       -3.0427506111       -8.8422780401  CLST         532          1.0000000000
      1595       532  TIP3  H1          -12.6674500627       -3.7685520884       -8.5627038908  CLST         532          1.0000000000
      1596       532  TIP3  H2          -12.0859286515       -3.2285161709       -9.8606296504  CLST         532          1.0000000000
      1597       533  TIP3  OH2          -2.8828184836       -7.1377075985        8.7164675420  CLST         533          1.0000000000
      1598       533  TIP3  H1           -2.2320700803       -7.8300819069        8.5604424186  CLST         533          1.0000000000
      1599       533  TIP3  H2           -2.3712567601       -6.3489960322        8.3682790354  CLST         533          1.0000000000
      1600       534  TIP3  OH2           0.3682321255      -13.2704934554       -7.5265793994  CLST         534          1.0000000000
      1601       534  TIP3  H1            0.7581739214      -12.9575239648       -8.3592045418  CLST         534          1.0000000000
      1602       534  TIP3  H2            1.2504532404      -13.4627561221       -7.0956395969  CLST         534          1.0000000000
      1603       535  TIP3  OH2           2.7765225364        3.2018593872       -7.4265293201  CLST         535          1.0000000000
      1604       535  TIP3  H1            3.3096611359        2.6937344761       -6.7698005338  CLST         535          1.0000000000
      1605       535  TIP3  H2            1.8838146362        3.0272161548       -7.0568152625  CLST         535          1.0000000000
      1606       536  TIP3  OH2           7.9486896070      -12.5655483005       -3.4517688754  CLST         536          1.0000000000
      1607       536  TIP3  H1            7.1921663526      -12.5152786268       -4.0953008492  CLST         536          1.0000000000
      1608       536  TIP3  H2            8.2271947461      -13.4159272530       -3.6578237763  CLST         536          1.0000000000
      1609       537  TIP3  OH2          11.6985038030       -2.8044449524       -7.5076106434  CLST         537          1.0000000000
      1610       537  TIP3  H1           11.3902851643       -1.9294445755       -7.1478692269  CLST         537          1.0000000000
      1611       537  TIP3  H2           12.5736561980       -2.7392984605       -7.0713807990  CLST         537          1.0000000000
      1612       538  TIP3  OH2          -5.1602114739      -10.9015280577        0.8584522012  CLST         538          1.0000000000
      1613       538  TIP3  H1           -4.3454678618      -11.1462403127        1.3737429398  CLST         538          1.0000000000
      1614       538  TIP3  H2           -4.9536277373       -9.9197201943        0.7727324159  CLST         538          1.0000000000
      1615       539  TIP3  OH2           2.5191116959       -5.2084430941        0.9712847427  CLST         539          1.0000000000
      1616       539  TIP3  H1            1.5730863597       -5.4340167014        1.1991601142  CLST         539          1.0000000000
      1617       539  TIP3  H2            2.4155656587       -5.3628318949        0.0176870549  CLST         539          1.0000000000
      1618       540  TIP3  OH2           3.9438939914       -6.7996010480        4.6546846046  CLST         540          1.0000000000
      1619       540  TIP3  H1            3.6421676144       -7.7054715299        4.9493470200  CLST         540          1.0000000000
      1620       540  TIP3  H2            4.0610372704       -6.9963045394        3.7053254529  CLST         540          1.0000000000
      1621       541  TIP3  OH2          -5.5753261001       10.5628193200        2.1404734323  CLST         541          1.0000000000
      1622       541  TIP3  H1           -6.0855360012       10.5763595463        3.0151581935  CLST         541          1.0000000000
      1623       541  TIP3  H2           -4.8928653862       11.2690486926        2.4140585977  CLST         541          1.0000000000
      1624       542  TIP3  OH2         -11.0153292922       14.3944690349        5.5704411889  CLST         542          1.0000000000
      1625       542  TIP3  H1          -11.0736562626       15.2669060923        5.3613723677  CLST         542          1.0000000000
      1626       542  TIP3  H2          -10.7498379282       14.0277780331        4.6614279701  CLST         542          1.0000000000
      1627       543  TIP3  OH2         -10.6411321234       11.4034924030       -2.3762043305  CLST         543          1.0000000000
      1628       543  TIP3  H1          -11.5403322662       11.0388086472       -2.4530821653  CLST         543          1.0000000000
      1629       543  TIP3  H2          -10.3879662550       11.6232030345       -3.2753799453  CLST         543          1.0000000000
      1630       544  TIP3  OH2          -0.5269411339        5.6653915683       -5.6961675194  CLST         544          1.0000000000
      1631       544  TIP3  H1           -0.4930931872        5.2246167968       -6.6022301439  CLST         544          1.0000000000
      1632       544  TIP3  H2            0.2161150875        5.2476152031       -5.2393360757  CLST         544          1.0000000000
      1633       545  TIP3  OH2          -7.8269251586        2.4417056763      -12.6117646440  CLST         545          1.0000000000
      1634       545  TIP3  H1           -8.0002757300        2.0719503042      -13.5052957875  CLST         545          1.0000000000
      1635       545  TIP3  H2           -8.4844459267        3.2014255525      -12.6117838511  CLST         545          1.0000000000
      1636       546  TIP3  OH2           3.8331303766       11.0840044221       -2.0694081193  CLST         546          1.0000000000
      1637       546  TIP3  H1            3.5069113835       10.1264792408       -2.3385452150  CLST         546          1.0000000000
      1638       546  TIP3  H2            4.4680241023       10.7562344477       -1.2820086414  CLST         546          1.0000000000
      1639       547  TIP3  OH2          -3.5327996694       -2.1743677286      -11.2146003541  CLST         547          1.0000000000
      1640       547  TIP3  H1           -3.4678017885       -2.2617847268      -10.2390088617  CLST         547          1.0000000000
      1641       547  TIP3  H2           -4.0035830128       -1.3018234092      -11.2395489662  CLST         547          1.0000000000
      1642       548  TIP3  OH2          10.5920758599        2.3904939474        1.3768585834  CLST         548          1.0000000000
      1643       548  TIP3  H1            9.6088967345        2.2498451591        1.4487402635  CLST         548          1.0000000000
      1644       548  TIP3  H2           10.6318683001        3.0961576750        2.0671043166  CLST         548          1.0000000000
