* Geometry rescue: heat segment 1/8 at step 1000
*
        1644  EXT
         1         1  TIP3  OH2           4.4720373026       -1.5380782388       -2.1817184971  CLST           1          1.0000000000
         2         1  TIP3  H1            4.7513495773       -1.5860259954       -1.2184992304  CLST           1          1.0000000000
         3         1  TIP3  H2            5.1281935079       -2.2030015863       -2.4953799333  CLST           1          1.0000000000
         4         2  TIP3  OH2          10.6559082483        7.4159120858      -11.7674114714  CLST           2          1.0000000000
         5         2  TIP3  H1           11.0125446005        7.3314867561      -10.8493969227  CLST           2          1.0000000000
         6         2  TIP3  H2            9.7050271560        7.2595783219      -11.5424328706  CLST           2          1.0000000000
         7         3  TIP3  OH2           8.7090783573        5.3531366547       -4.2780104964  CLST           3          1.0000000000
         8         3  TIP3  H1            9.1809069973        5.6815206734       -3.4772308100  CLST           3          1.0000000000
         9         3  TIP3  H2            8.7624377527        6.1326129184       -4.8596394441  CLST           3          1.0000000000
        10         4  TIP3  OH2          -2.7913947704        6.8151606261       10.1361206835  CLST           4          1.0000000000
        11         4  TIP3  H1           -3.6026122562        7.0750718583        9.6064326973  CLST           4          1.0000000000
        12         4  TIP3  H2           -3.0482952230        7.3509727391       10.9089848995  CLST           4          1.0000000000
        13         5  TIP3  OH2           9.1823634760        6.2773497205       10.5127912895  CLST           5          1.0000000000
        14         5  TIP3  H1            8.5449476578        5.8314478382       11.1401365876  CLST           5          1.0000000000
        15         5  TIP3  H2            9.2842341684        5.4961742597        9.9175906236  CLST           5          1.0000000000
        16         6  TIP3  OH2          10.5656124288       -5.9733691046      -11.6495444747  CLST           6          1.0000000000
        17         6  TIP3  H1           11.1647953420       -5.5214616470      -10.9819425807  CLST           6          1.0000000000
        18         6  TIP3  H2           10.6664916934       -5.2656805099      -12.3567445136  CLST           6          1.0000000000
        19         7  TIP3  OH2         -12.2269769691        8.3029569154        5.7137962795  CLST           7          1.0000000000
        20         7  TIP3  H1          -12.6449581344        9.1304010216        6.0705832701  CLST           7          1.0000000000
        21         7  TIP3  H2          -11.4222186799        8.3246211430        6.2986622466  CLST           7          1.0000000000
        22         8  TIP3  OH2          -4.4793714222       -8.2881570546        0.6632463644  CLST           8          1.0000000000
        23         8  TIP3  H1           -4.6190289391       -8.0221165773        1.5871532485  CLST           8          1.0000000000
        24         8  TIP3  H2           -3.7160984702       -7.7513785770        0.3718934850  CLST           8          1.0000000000
        25         9  TIP3  OH2           2.6683077331      -14.2062670473       -4.0235732261  CLST           9          1.0000000000
        26         9  TIP3  H1            1.7662361109      -14.0171176761       -3.7102768190  CLST           9          1.0000000000
        27         9  TIP3  H2            3.1438058427      -13.9073695334       -3.2386327995  CLST           9          1.0000000000
        28        10  TIP3  OH2         -14.2598585037       -1.2110374220       -0.3406776365  CLST          10          1.0000000000
        29        10  TIP3  H1          -13.9963977895       -1.3890981706       -1.2864103786  CLST          10          1.0000000000
        30        10  TIP3  H2          -13.7621861002       -1.9016674090        0.0947761875  CLST          10          1.0000000000
        31        11  TIP3  OH2           6.9840726370        6.6660247412       -1.8596929622  CLST          11          1.0000000000
        32        11  TIP3  H1            7.3102264148        5.7884069647       -1.5829497283  CLST          11          1.0000000000
        33        11  TIP3  H2            6.8175244455        6.4946346573       -2.8170479030  CLST          11          1.0000000000
        34        12  TIP3  OH2          -8.1872791192        2.6656433797        1.8588639636  CLST          12          1.0000000000
        35        12  TIP3  H1           -7.6443542013        2.8026445214        1.0277677483  CLST          12          1.0000000000
        36        12  TIP3  H2           -9.0782561892        2.6698006195        1.3933241559  CLST          12          1.0000000000
        37        13  TIP3  OH2           7.6794706689        2.5331396610        2.1013004992  CLST          13          1.0000000000
        38        13  TIP3  H1            7.7823039818        3.4505423191        1.7289493901  CLST          13          1.0000000000
        39        13  TIP3  H2            7.5972422661        2.7199354590        3.0644474087  CLST          13          1.0000000000
        40        14  TIP3  OH2          -0.3448940809        2.1207798024        7.8916093480  CLST          14          1.0000000000
        41        14  TIP3  H1           -0.0149892513        3.0122645423        7.6281000337  CLST          14          1.0000000000
        42        14  TIP3  H2            0.3262324670        1.5744902712        7.3805183508  CLST          14          1.0000000000
        43        15  TIP3  OH2          -8.9398192944       -3.8484345010      -12.8078294848  CLST          15          1.0000000000
        44        15  TIP3  H1           -8.0851914570       -3.9060756057      -13.2922763323  CLST          15          1.0000000000
        45        15  TIP3  H2           -8.5859760037       -4.3382429964      -12.0123758092  CLST          15          1.0000000000
        46        16  TIP3  OH2          -3.8457397912      -12.8023684019       -6.2704867400  CLST          16          1.0000000000
        47        16  TIP3  H1           -4.5004539208      -12.9036814825       -5.5445704898  CLST          16          1.0000000000
        48        16  TIP3  H2           -2.9922934903      -12.7560106594       -5.7631897885  CLST          16          1.0000000000
        49        17  TIP3  OH2           4.8448264594      -13.4926779551       -8.5266800951  CLST          17          1.0000000000
        50        17  TIP3  H1            5.4233384208      -13.1875229394       -7.7906756350  CLST          17          1.0000000000
        51        17  TIP3  H2            4.0591516348      -13.6289800585       -7.9043667352  CLST          17          1.0000000000
        52        18  TIP3  OH2         -11.7192604952       -6.6910549806       -1.4635036094  CLST          18          1.0000000000
        53        18  TIP3  H1          -12.1243548743       -5.7819087792       -1.6898130850  CLST          18          1.0000000000
        54        18  TIP3  H2          -11.7695614894       -6.9995248775       -2.4213985721  CLST          18          1.0000000000
        55        19  TIP3  OH2          10.9553419236       -0.1186212373        9.5782235298  CLST          19          1.0000000000
        56        19  TIP3  H1           10.6956060475       -1.0031150373        9.8807605507  CLST          19          1.0000000000
        57        19  TIP3  H2           11.3026648878       -0.3384567432        8.7054153246  CLST          19          1.0000000000
        58        20  TIP3  OH2         -13.3200142942        1.4649930859        2.8004998270  CLST          20          1.0000000000
        59        20  TIP3  H1          -13.0781578056        1.1691063206        1.8989744816  CLST          20          1.0000000000
        60        20  TIP3  H2          -14.2546837283        1.5320378058        2.7772965330  CLST          20          1.0000000000
        61        21  TIP3  OH2         -10.0761351773       12.6104398807       -5.3779702208  CLST          21          1.0000000000
        62        21  TIP3  H1          -10.5990802433       13.2697250577       -5.7179009899  CLST          21          1.0000000000
        63        21  TIP3  H2           -9.2944833256       12.4857423194       -5.9194766619  CLST          21          1.0000000000
        64        22  TIP3  OH2           2.8546871019       12.0907253977       -6.5967439457  CLST          22          1.0000000000
        65        22  TIP3  H1            3.4339144896       11.5725777673       -6.0144651417  CLST          22          1.0000000000
        66        22  TIP3  H2            2.8238152725       12.8988789262       -6.0787335141  CLST          22          1.0000000000
        67        23  TIP3  OH2           5.5093606987       -1.7659768224       11.5036176900  CLST          23          1.0000000000
        68        23  TIP3  H1            5.4505724415       -2.3871262717       10.7595760152  CLST          23          1.0000000000
        69        23  TIP3  H2            5.2661438574       -0.9178554205       11.0940729874  CLST          23          1.0000000000
        70        24  TIP3  OH2          -0.0126718314        1.1451342444        4.4992537132  CLST          24          1.0000000000
        71        24  TIP3  H1            0.9283194310        1.0485454650        4.7634509871  CLST          24          1.0000000000
        72        24  TIP3  H2           -0.3845905316        0.3687783280        4.9699928803  CLST          24          1.0000000000
        73        25  TIP3  OH2           3.2360265568        2.0864043613       -2.6226416579  CLST          25          1.0000000000
        74        25  TIP3  H1            3.6036889316        1.3881738455       -2.0475515660  CLST          25          1.0000000000
        75        25  TIP3  H2            3.7198436861        2.9012337199       -2.3522915321  CLST          25          1.0000000000
        76        26  TIP3  OH2          11.3960109535        5.5314562924       -6.5378345921  CLST          26          1.0000000000
        77        26  TIP3  H1           10.5822571230        5.2990749832       -7.0306057416  CLST          26          1.0000000000
        78        26  TIP3  H2           11.1496961545        6.4160407385       -6.1901267498  CLST          26          1.0000000000
        79        27  TIP3  OH2         -10.3370836321        7.3982087157       -5.4635041352  CLST          27          1.0000000000
        80        27  TIP3  H1          -10.3195978871        7.8399962193       -4.6036647057  CLST          27          1.0000000000
        81        27  TIP3  H2          -10.6192719029        8.0539699477       -6.0684125725  CLST          27          1.0000000000
        82        28  TIP3  OH2          -4.2927474631      -10.2494004527       -6.7749600850  CLST          28          1.0000000000
        83        28  TIP3  H1           -4.1844569741      -11.2488871340       -6.7646215544  CLST          28          1.0000000000
        84        28  TIP3  H2           -4.9921556812      -10.1345936084       -6.0882808801  CLST          28          1.0000000000
        85        29  TIP3  OH2         -10.7892924425        7.5880296463       -2.5143212228  CLST          29          1.0000000000
        86        29  TIP3  H1          -10.2976582302        8.2055590991       -1.8679942884  CLST          29          1.0000000000
        87        29  TIP3  H2          -11.4773220194        8.2798126477       -2.7442439659  CLST          29          1.0000000000
        88        30  TIP3  OH2           8.7605274850      -10.5002564033       -2.1001241765  CLST          30          1.0000000000
        89        30  TIP3  H1            8.9978857367      -10.8356259308       -1.2230308756  CLST          30          1.0000000000
        90        30  TIP3  H2            8.6441070415      -11.4028499458       -2.5511785582  CLST          30          1.0000000000
        91        31  TIP3  OH2          -9.8041895303       -1.2624922430      -13.0471106658  CLST          31          1.0000000000
        92        31  TIP3  H1           -9.6848582840       -2.2277089034      -12.9650082586  CLST          31          1.0000000000
        93        31  TIP3  H2           -9.7495343549       -0.9777464002      -12.1109427064  CLST          31          1.0000000000
        94        32  TIP3  OH2          -8.7888985437       -6.5064453879        7.0679676599  CLST          32          1.0000000000
        95        32  TIP3  H1           -9.7537021931       -6.3856139671        7.1775882054  CLST          32          1.0000000000
        96        32  TIP3  H2           -8.6170261232       -5.7769063669        6.4060394989  CLST          32          1.0000000000
        97        33  TIP3  OH2          11.7874110341       -8.9668342997        8.9011533654  CLST          33          1.0000000000
        98        33  TIP3  H1           11.7721017204       -9.9549801992        8.9770309068  CLST          33          1.0000000000
        99        33  TIP3  H2           11.2659295168       -8.8353314828        9.7193596514  CLST          33          1.0000000000
       100        34  TIP3  OH2           4.1913875249       -3.9929995576        2.9131982046  CLST          34          1.0000000000
       101        34  TIP3  H1            3.6474797273       -4.2107080895        2.1032959201  CLST          34          1.0000000000
       102        34  TIP3  H2            4.4746811434       -4.9198458779        3.0830853781  CLST          34          1.0000000000
       103        35  TIP3  OH2           6.1452568702       -0.8512242148        4.5342529456  CLST          35          1.0000000000
       104        35  TIP3  H1            5.2261452855       -1.1564165786        4.7620955492  CLST          35          1.0000000000
       105        35  TIP3  H2            6.3493547030       -0.2355143042        5.2704998273  CLST          35          1.0000000000
       106        36  TIP3  OH2          -1.5931285361        1.2912202420        2.2283926799  CLST          36          1.0000000000
       107        36  TIP3  H1           -2.3631057102        0.7462673250        2.1319710993  CLST          36          1.0000000000
       108        36  TIP3  H2           -1.1969709166        1.0044078715        3.0880597714  CLST          36          1.0000000000
       109        37  TIP3  OH2          -4.4422073600       -8.2929852780      -12.9772006637  CLST          37          1.0000000000
       110        37  TIP3  H1           -4.9401984722       -8.6113148045      -12.1991397645  CLST          37          1.0000000000
       111        37  TIP3  H2           -4.1083271692       -9.1145640139      -13.4188215008  CLST          37          1.0000000000
       112        38  TIP3  OH2          -3.1701139183        2.1506885859       -4.4421169430  CLST          38          1.0000000000
       113        38  TIP3  H1           -3.1910600416        3.1207371949       -4.6731014632  CLST          38          1.0000000000
       114        38  TIP3  H2           -3.6856284543        1.8461494213       -5.2216176358  CLST          38          1.0000000000
       115        39  TIP3  OH2           1.7360899887      -10.8677522669        2.0554008333  CLST          39          1.0000000000
       116        39  TIP3  H1            1.4771586396      -11.5335464853        2.7289887228  CLST          39          1.0000000000
       117        39  TIP3  H2            0.8334100008      -10.5899007951        1.7455975504  CLST          39          1.0000000000
       118        40  TIP3  OH2          -7.0169537397       12.5246309387        8.1949355128  CLST          40          1.0000000000
       119        40  TIP3  H1           -7.8961006265       12.8202679267        7.8594491303  CLST          40          1.0000000000
       120        40  TIP3  H2           -6.3789960491       12.7436261555        7.4952453150  CLST          40          1.0000000000
       121        41  TIP3  OH2           9.7653076119       -2.2127877070      -11.0655367125  CLST          41          1.0000000000
       122        41  TIP3  H1            9.0905812496       -2.8510829414      -10.7166140617  CLST          41          1.0000000000
       123        41  TIP3  H2            9.4168599673       -1.4042231604      -10.6482799252  CLST          41          1.0000000000
       124        42  TIP3  OH2           9.7459542749       10.2516376382      -10.6404717599  CLST          42          1.0000000000
       125        42  TIP3  H1           10.5369309991       10.1832288460      -10.0685609606  CLST          42          1.0000000000
       126        42  TIP3  H2           10.1628513863       10.1852787618      -11.5401831845  CLST          42          1.0000000000
       127        43  TIP3  OH2          11.9885771922       12.7063498477        7.6672395949  CLST          43          1.0000000000
       128        43  TIP3  H1           12.6991480400       13.2562536455        7.8755882606  CLST          43          1.0000000000
       129        43  TIP3  H2           12.2879520014       11.8671900382        8.0953174389  CLST          43          1.0000000000
       130        44  TIP3  OH2           7.7756165350        0.9623349058        6.0178440906  CLST          44          1.0000000000
       131        44  TIP3  H1            7.9160204958        1.4108555704        6.8966118813  CLST          44          1.0000000000
       132        44  TIP3  H2            7.3983634217        1.7517868001        5.5484729954  CLST          44          1.0000000000
       133        45  TIP3  OH2           7.9510509990        9.4077875101        7.3348090779  CLST          45          1.0000000000
       134        45  TIP3  H1            7.8474476204        8.4960883638        7.6771501551  CLST          45          1.0000000000
       135        45  TIP3  H2            8.8622384312        9.6277089995        7.6577937888  CLST          45          1.0000000000
       136        46  TIP3  OH2          -5.7044108594       -3.1265909514      -12.9526362328  CLST          46          1.0000000000
       137        46  TIP3  H1           -5.4295637863       -4.0861241405      -13.1005038132  CLST          46          1.0000000000
       138        46  TIP3  H2           -5.0177030738       -2.9254616740      -12.2815440304  CLST          46          1.0000000000
       139        47  TIP3  OH2           1.3923340789       -6.5633997692      -11.0732562252  CLST          47          1.0000000000
       140        47  TIP3  H1            1.8597916132       -5.6916447776      -10.9917096983  CLST          47          1.0000000000
       141        47  TIP3  H2            1.2176161444       -6.5495485318      -12.0274985126  CLST          47          1.0000000000
       142        48  TIP3  OH2           5.0519783739        5.5618959444        1.0985426615  CLST          48          1.0000000000
       143        48  TIP3  H1            6.0079823897        5.3118687239        0.8950745103  CLST          48          1.0000000000
       144        48  TIP3  H2            5.2251422785        6.5528689087        1.0440627342  CLST          48          1.0000000000
       145        49  TIP3  OH2          -3.3229767087      -10.6434397669      -13.8231736225  CLST          49          1.0000000000
       146        49  TIP3  H1           -2.4581288109      -10.7181580213      -13.4219580380  CLST          49          1.0000000000
       147        49  TIP3  H2           -3.7949982720      -11.3882887612      -13.4319109382  CLST          49          1.0000000000
       148        50  TIP3  OH2           2.7949250254        3.7981382567        5.8925879291  CLST          50          1.0000000000
       149        50  TIP3  H1            1.9785107679        4.0974894535        6.3815040851  CLST          50          1.0000000000
       150        50  TIP3  H2            2.3386913966        3.4492229700        5.0673507414  CLST          50          1.0000000000
       151        51  TIP3  OH2          -6.4545527847      -10.0641603311       -4.7688708619  CLST          51          1.0000000000
       152        51  TIP3  H1           -6.5340314960       -9.9325076900       -3.7885358038  CLST          51          1.0000000000
       153        51  TIP3  H2           -6.2246560816      -11.0171261337       -4.7598378481  CLST          51          1.0000000000
       154        52  TIP3  OH2           9.1187981846       -5.6730904626       -0.2389185262  CLST          52          1.0000000000
       155        52  TIP3  H1            9.3624067726       -5.6289973932       -1.2051630575  CLST          52          1.0000000000
       156        52  TIP3  H2            9.2339573588       -4.7173485587       -0.0456878802  CLST          52          1.0000000000
       157        53  TIP3  OH2          -9.6949883063       10.0420640902      -12.5343942982  CLST          53          1.0000000000
       158        53  TIP3  H1          -10.0521865241       10.1984563948      -13.3617526921  CLST          53          1.0000000000
       159        53  TIP3  H2           -8.9030179425        9.4916997853      -12.6561642937  CLST          53          1.0000000000
       160        54  TIP3  OH2           0.6168558459       -2.9747912883       -9.5488737565  CLST          54          1.0000000000
       161        54  TIP3  H1            1.1469923314       -3.3427524470      -10.2867909984  CLST          54          1.0000000000
       162        54  TIP3  H2            0.0998208027       -2.3155092224      -10.0883362843  CLST          54          1.0000000000
       163        55  TIP3  OH2           2.9382186382       -4.0375228005      -14.6983123885  CLST          55          1.0000000000
       164        55  TIP3  H1            2.9612122946       -4.8736954260      -14.1781911293  CLST          55          1.0000000000
       165        55  TIP3  H2            3.2276063231       -4.4305488201      -15.5262166323  CLST          55          1.0000000000
       166        56  TIP3  OH2         -10.0084269971       11.1454037651        5.6755412435  CLST          56          1.0000000000
       167        56  TIP3  H1          -10.3427987248       10.3078116587        6.0457014274  CLST          56          1.0000000000
       168        56  TIP3  H2          -10.2625543858       11.0485004705        4.7357744380  CLST          56          1.0000000000
       169        57  TIP3  OH2           1.6471096341      -13.3328111426        0.3071612204  CLST          57          1.0000000000
       170        57  TIP3  H1            2.1463916559      -12.7676850208        0.9309878247  CLST          57          1.0000000000
       171        57  TIP3  H2            2.2511837596      -13.1517012322       -0.4459544539  CLST          57          1.0000000000
       172        58  TIP3  OH2         -13.1291037152       10.6276395753        7.0056414751  CLST          58          1.0000000000
       173        58  TIP3  H1          -12.6397109885       11.4612736481        6.9136638419  CLST          58          1.0000000000
       174        58  TIP3  H2          -12.8883911917       10.4597299009        7.9556307834  CLST          58          1.0000000000
       175        59  TIP3  OH2         -11.5103385011       -2.6617938373        5.3931344889  CLST          59          1.0000000000
       176        59  TIP3  H1          -11.8042949407       -2.3544689890        6.2909012518  CLST          59          1.0000000000
       177        59  TIP3  H2          -11.7151568749       -1.8252297705        4.8932988160  CLST          59          1.0000000000
       178        60  TIP3  OH2           1.3921605476        9.5313573125        8.5474292473  CLST          60          1.0000000000
       179        60  TIP3  H1            0.6843187225        8.9630318999        8.1123824664  CLST          60          1.0000000000
       180        60  TIP3  H2            1.8779952185        8.7331397302        8.9193289056  CLST          60          1.0000000000
       181        61  TIP3  OH2           2.7743750610       -0.5704582346       -5.4902566553  CLST          61          1.0000000000
       182        61  TIP3  H1            3.2777521917       -1.4086642090       -5.2965612987  CLST          61          1.0000000000
       183        61  TIP3  H2            2.1159270938       -0.8965863249       -6.1653850599  CLST          61          1.0000000000
       184        62  TIP3  OH2           8.0030184000        8.3923729606       12.4233266307  CLST          62          1.0000000000
       185        62  TIP3  H1            8.0682071563        7.7267565001       11.7147018369  CLST          62          1.0000000000
       186        62  TIP3  H2            8.4666958251        9.1374619624       11.9807452876  CLST          62          1.0000000000
       187        63  TIP3  OH2           4.6016618968       -7.0675718967      -10.3266108232  CLST          63          1.0000000000
       188        63  TIP3  H1            3.7247947163       -7.1211848251      -10.7544996878  CLST          63          1.0000000000
       189        63  TIP3  H2            5.1547524594       -7.5341661603      -11.0251894160  CLST          63          1.0000000000
       190        64  TIP3  OH2          -2.2727243621       11.8279285491        5.3904802251  CLST          64          1.0000000000
       191        64  TIP3  H1           -2.1020096551       10.8502877871        5.3239309026  CLST          64          1.0000000000
       192        64  TIP3  H2           -1.6122972900       11.9424700986        6.1474065597  CLST          64          1.0000000000
       193        65  TIP3  OH2          10.9299129835       -4.3731249675       -5.3767565465  CLST          65          1.0000000000
       194        65  TIP3  H1           11.4084930844       -4.0926486060       -6.1979472880  CLST          65          1.0000000000
       195        65  TIP3  H2           10.5239160891       -3.4972469012       -5.2112281979  CLST          65          1.0000000000
       196        66  TIP3  OH2           6.2596818800       -9.9130309966        9.3418944366  CLST          66          1.0000000000
       197        66  TIP3  H1            5.5895464491       -9.9325849380        8.6079409870  CLST          66          1.0000000000
       198        66  TIP3  H2            6.6593474115       -9.0607762845        9.0557729275  CLST          66          1.0000000000
       199        67  TIP3  OH2         -11.6477276844       -7.6752671805       -4.0103655783  CLST          67          1.0000000000
       200        67  TIP3  H1          -10.8151280658       -7.2674110383       -4.3467679916  CLST          67          1.0000000000
       201        67  TIP3  H2          -11.7833731862       -8.4003107369       -4.6091586022  CLST          67          1.0000000000
       202        68  TIP3  OH2          -0.7358302460       -5.4889912945        5.5013561247  CLST          68          1.0000000000
       203        68  TIP3  H1            0.2540466923       -5.3558011424        5.6717862975  CLST          68          1.0000000000
       204        68  TIP3  H2           -1.0297447172       -5.4273155307        6.4629447439  CLST          68          1.0000000000
       205        69  TIP3  OH2           7.9093800583       11.6569140855       -8.7604431627  CLST          69          1.0000000000
       206        69  TIP3  H1            8.2222595352       11.4358763134       -9.6658796395  CLST          69          1.0000000000
       207        69  TIP3  H2            8.8274792249       11.7705712810       -8.3722161349  CLST          69          1.0000000000
       208        70  TIP3  OH2          -0.9734970300      -12.3991811419       -0.4666006448  CLST          70          1.0000000000
       209        70  TIP3  H1           -0.0063232688      -12.2223100364       -0.3892315042  CLST          70          1.0000000000
       210        70  TIP3  H2           -1.1345401112      -12.6192027365        0.4869807642  CLST          70          1.0000000000
       211        71  TIP3  OH2         -10.1719139088       -7.3618711829        1.9361928922  CLST          71          1.0000000000
       212        71  TIP3  H1          -10.8597520948       -6.7592447193        2.2437983529  CLST          71          1.0000000000
       213        71  TIP3  H2          -10.6400194428       -7.9812443001        1.3472429360  CLST          71          1.0000000000
       214        72  TIP3  OH2           0.1698448105        1.9960335710       -1.5100436872  CLST          72          1.0000000000
       215        72  TIP3  H1           -0.1949211376        1.0773073809       -1.4716832588  CLST          72          1.0000000000
       216        72  TIP3  H2            0.9442236325        1.8357262581       -2.0816368772  CLST          72          1.0000000000
       217        73  TIP3  OH2          -9.7229518472       13.1272095912        7.5280133131  CLST          73          1.0000000000
       218        73  TIP3  H1           -9.8876117959       12.3681506165        6.8816681826  CLST          73          1.0000000000
       219        73  TIP3  H2          -10.2949292377       13.7763733823        7.0123972666  CLST          73          1.0000000000
       220        74  TIP3  OH2           6.5777628787       -2.6970528310       -3.6018356050  CLST          74          1.0000000000
       221        74  TIP3  H1            6.7666402672       -3.5713995130       -4.0113065397  CLST          74          1.0000000000
       222        74  TIP3  H2            7.4810261705       -2.3141569146       -3.4834414267  CLST          74          1.0000000000
       223        75  TIP3  OH2           2.9599074022      -13.3150216895       -6.7182026459  CLST          75          1.0000000000
       224        75  TIP3  H1            3.1708740981      -12.3751834723       -6.4978240779  CLST          75          1.0000000000
       225        75  TIP3  H2            2.9413921984      -13.7294750713       -5.8160431432  CLST          75          1.0000000000
       226        76  TIP3  OH2           3.9653778834       -9.7400312415        1.2887907592  CLST          76          1.0000000000
       227        76  TIP3  H1            3.8008545460       -8.7960850972        1.4914560036  CLST          76          1.0000000000
       228        76  TIP3  H2            3.0848271583      -10.1295730211        1.5914108338  CLST          76          1.0000000000
       229        77  TIP3  OH2          10.2973814961       -8.1917473311       -2.5103839193  CLST          77          1.0000000000
       230        77  TIP3  H1            9.9128520306       -9.1143723877       -2.4970637144  CLST          77          1.0000000000
       231        77  TIP3  H2           10.6268998420       -8.1656366643       -3.4133241455  CLST          77          1.0000000000
       232        78  TIP3  OH2          10.6496644681       11.7019775730       -7.7923772458  CLST          78          1.0000000000
       233        78  TIP3  H1           11.2834829643       10.9858370628       -7.9806881423  CLST          78          1.0000000000
       234        78  TIP3  H2           11.1930901761       12.4378922330       -7.8598056999  CLST          78          1.0000000000
       235        79  TIP3  OH2          12.9084863012        0.5841890473        1.2173304177  CLST          79          1.0000000000
       236        79  TIP3  H1           13.5668657310        1.1133073123        1.6468638186  CLST          79          1.0000000000
       237        79  TIP3  H2           12.1338539656        1.1193996159        1.4747365866  CLST          79          1.0000000000
       238        80  TIP3  OH2          -7.5064135428       -0.0288514615        6.5461680726  CLST          80          1.0000000000
       239        80  TIP3  H1           -7.2658673686       -0.1313566526        5.5826371890  CLST          80          1.0000000000
       240        80  TIP3  H2           -6.5613977021        0.0619275563        6.8516002344  CLST          80          1.0000000000
       241        81  TIP3  OH2          -7.5932849468      -10.8979139921        2.2676850750  CLST          81          1.0000000000
       242        81  TIP3  H1           -6.8600026355      -11.1944176089        1.6595922752  CLST          81          1.0000000000
       243        81  TIP3  H2           -7.1766469121      -11.0923195916        3.1475104097  CLST          81          1.0000000000
       244        82  TIP3  OH2          -1.5550710135       -9.9408220402       -6.4691433503  CLST          82          1.0000000000
       245        82  TIP3  H1           -2.5440698687      -10.0009958522       -6.4935702646  CLST          82          1.0000000000
       246        82  TIP3  H2           -1.3712684365      -10.4985005371       -5.6997484633  CLST          82          1.0000000000
       247        83  TIP3  OH2          12.3744268997       -8.5782199810        1.4951324091  CLST          83          1.0000000000
       248        83  TIP3  H1           12.6705744093       -7.8325695104        2.0521701978  CLST          83          1.0000000000
       249        83  TIP3  H2           11.4036655094       -8.3892122570        1.4520681651  CLST          83          1.0000000000
       250        84  TIP3  OH2          -3.6527302201       11.0024340000       -2.1151546921  CLST          84          1.0000000000
       251        84  TIP3  H1           -4.5919217860       10.9294796135       -2.4832144801  CLST          84          1.0000000000
       252        84  TIP3  H2           -3.5261280965       11.8679689972       -2.0144188205  CLST          84          1.0000000000
       253        85  TIP3  OH2           5.7792682085       -2.2029529735        0.0906089077  CLST          85          1.0000000000
       254        85  TIP3  H1            6.0408981668       -1.7209202441        0.9095658168  CLST          85          1.0000000000
       255        85  TIP3  H2            6.5289676580       -2.8243835541        0.0198636812  CLST          85          1.0000000000
       256        86  TIP3  OH2           6.5406808605       -8.4217219492        5.8407832784  CLST          86          1.0000000000
       257        86  TIP3  H1            5.7069073277       -8.4453208861        6.3834396961  CLST          86          1.0000000000
       258        86  TIP3  H2            6.6093806421       -7.4533128944        5.6856748794  CLST          86          1.0000000000
       259        87  TIP3  OH2          -1.3225292179       -3.6575185169       10.6243484920  CLST          87          1.0000000000
       260        87  TIP3  H1           -0.6202776350       -3.9025033806       11.2630911798  CLST          87          1.0000000000
       261        87  TIP3  H2           -2.0615161610       -4.2959334889       10.8335495807  CLST          87          1.0000000000
       262        88  TIP3  OH2          -0.7577379474        4.5753258735       -7.9793151861  CLST          88          1.0000000000
       263        88  TIP3  H1           -0.8584185894        3.5943064844       -7.8823920788  CLST          88          1.0000000000
       264        88  TIP3  H2           -1.7154003471        4.7542790315       -8.1842483977  CLST          88          1.0000000000
       265        89  TIP3  OH2           3.5308605715        0.7927044395      -11.7690816624  CLST          89          1.0000000000
       266        89  TIP3  H1            3.4272560464        1.5644761697      -12.2658000138  CLST          89          1.0000000000
       267        89  TIP3  H2            3.5866026703        0.2250363717      -12.5231814349  CLST          89          1.0000000000
       268        90  TIP3  OH2           5.6333452924       11.1346226510       -5.4025565312  CLST          90          1.0000000000
       269        90  TIP3  H1            5.3607416656       11.8967776295       -4.8265364434  CLST          90          1.0000000000
       270        90  TIP3  H2            5.7408444334       11.6633913903       -6.2542431431  CLST          90          1.0000000000
       271        91  TIP3  OH2           5.9981941977       -8.0270403442      -12.2985540673  CLST          91          1.0000000000
       272        91  TIP3  H1            6.2779698835       -8.9913063376      -12.3372647011  CLST          91          1.0000000000
       273        91  TIP3  H2            6.8777363076       -7.6084615113      -12.1335826403  CLST          91          1.0000000000
       274        92  TIP3  OH2           9.7283193257       11.5684161196        2.4498138325  CLST          92          1.0000000000
       275        92  TIP3  H1           10.1580656547       11.5587919417        3.3319230981  CLST          92          1.0000000000
       276        92  TIP3  H2            9.8627268348       12.5185693458        2.2550137974  CLST          92          1.0000000000
       277        93  TIP3  OH2          -8.7873185945        7.1853026150        2.7028949608  CLST          93          1.0000000000
       278        93  TIP3  H1           -8.6557012151        8.1168337640        2.9573669372  CLST          93          1.0000000000
       279        93  TIP3  H2           -7.8603460814        6.9380768179        2.5275298984  CLST          93          1.0000000000
       280        94  TIP3  OH2         -14.1664332984        6.6411846155        6.5598486759  CLST          94          1.0000000000
       281        94  TIP3  H1          -13.3405793113        7.0899881003        6.2052623280  CLST          94          1.0000000000
       282        94  TIP3  H2          -14.4809329139        6.3473896937        5.6866981130  CLST          94          1.0000000000
       283        95  TIP3  OH2           9.7539868270        5.8424683390       -1.8581079725  CLST          95          1.0000000000
       284        95  TIP3  H1            9.9220919514        6.1826621829       -0.9501308099  CLST          95          1.0000000000
       285        95  TIP3  H2           10.1166359796        4.9242608593       -1.7092643374  CLST          95          1.0000000000
       286        96  TIP3  OH2           9.5444423457      -11.0034107143       11.2115605841  CLST          96          1.0000000000
       287        96  TIP3  H1           10.3430528134      -11.3036407238       10.7349782284  CLST          96          1.0000000000
       288        96  TIP3  H2            9.1092558617      -11.8148750679       11.4861125443  CLST          96          1.0000000000
       289        97  TIP3  OH2          -7.6957039337        6.9378603246        8.5174168601  CLST          97          1.0000000000
       290        97  TIP3  H1           -7.4097482617        6.0277778796        8.8828160278  CLST          97          1.0000000000
       291        97  TIP3  H2           -8.6762427840        6.7156908133        8.4336864702  CLST          97          1.0000000000
       292        98  TIP3  OH2           6.0134916318        0.6102964734       -3.4780364666  CLST          98          1.0000000000
       293        98  TIP3  H1            6.6912745972        0.3331299742       -2.7990668901  CLST          98          1.0000000000
       294        98  TIP3  H2            5.3434108630       -0.0530190288       -3.1858806104  CLST          98          1.0000000000
       295        99  TIP3  OH2          -6.8397321272      -11.4084615248        4.9172906926  CLST          99          1.0000000000
       296        99  TIP3  H1           -6.9856288525      -10.9472544555        5.7680418455  CLST          99          1.0000000000
       297        99  TIP3  H2           -6.0795203994      -11.9768023318        5.1842363891  CLST          99          1.0000000000
       298       100  TIP3  OH2           2.2883256663        0.4758133828       -9.1532854294  CLST         100          1.0000000000
       299       100  TIP3  H1            2.6155796190        0.5215158530      -10.0976338755  CLST         100          1.0000000000
       300       100  TIP3  H2            2.8251864790        1.2168385953       -8.8445001041  CLST         100          1.0000000000
       301       101  TIP3  OH2          12.7262567724       -6.8719980627        3.8880380145  CLST         101          1.0000000000
       302       101  TIP3  H1           12.7504023049       -7.4208415516        4.7412485909  CLST         101          1.0000000000
       303       101  TIP3  H2           13.5309647556       -6.5228280522        3.7906331367  CLST         101          1.0000000000
       304       102  TIP3  OH2         -12.1207749785       10.3554805704        1.3343096901  CLST         102          1.0000000000
       305       102  TIP3  H1          -12.8195214560       10.4281951999        2.0424595576  CLST         102          1.0000000000
       306       102  TIP3  H2          -12.5869219177        9.6251963596        0.8534228979  CLST         102          1.0000000000
       307       103  TIP3  OH2          -0.5584355721       -9.2715335593        7.7090747083  CLST         103          1.0000000000
       308       103  TIP3  H1            0.0732721381       -9.6288026552        8.3943268260  CLST         103          1.0000000000
       309       103  TIP3  H2           -1.2750298069       -9.9470309276        7.7587007071  CLST         103          1.0000000000
       310       104  TIP3  OH2          -4.3470318544      -12.1437945250        9.9609258064  CLST         104          1.0000000000
       311       104  TIP3  H1           -4.9627162326      -11.9606088376       10.7054472769  CLST         104          1.0000000000
       312       104  TIP3  H2           -4.9858886122      -12.3305112734        9.2461727084  CLST         104          1.0000000000
       313       105  TIP3  OH2          -5.1933187903       10.6349486611      -11.5285933456  CLST         105          1.0000000000
       314       105  TIP3  H1           -4.8428277031       11.1710192325      -12.2865187493  CLST         105          1.0000000000
       315       105  TIP3  H2           -5.7894186335       10.0451095787      -12.0344800017  CLST         105          1.0000000000
       316       106  TIP3  OH2           7.4962498949       -8.0759376419       -1.3145787948  CLST         106          1.0000000000
       317       106  TIP3  H1            8.2729916981       -7.5902271688       -1.6367408650  CLST         106          1.0000000000
       318       106  TIP3  H2            7.7308412899       -8.9775068560       -1.6355380816  CLST         106          1.0000000000
       319       107  TIP3  OH2          -8.4511304835       -4.7327224187        5.1439860312  CLST         107          1.0000000000
       320       107  TIP3  H1           -9.1531961841       -4.4236718539        4.5483524942  CLST         107          1.0000000000
       321       107  TIP3  H2           -7.6336536215       -4.3446273352        4.7489727003  CLST         107          1.0000000000
       322       108  TIP3  OH2         -10.4772077191        2.0653220655        9.5552631606  CLST         108          1.0000000000
       323       108  TIP3  H1           -9.5128742490        1.8304531139        9.3900845436  CLST         108          1.0000000000
       324       108  TIP3  H2          -10.7930147587        1.2031929545        9.9507755800  CLST         108          1.0000000000
       325       109  TIP3  OH2           2.3484825414        7.0890624390        8.7936268621  CLST         109          1.0000000000
       326       109  TIP3  H1            1.5588845484        6.6278167362        9.1097158178  CLST         109          1.0000000000
       327       109  TIP3  H2            3.0064023133        6.3527982667        8.6660268633  CLST         109          1.0000000000
       328       110  TIP3  OH2           1.6783279495       12.4370607464      -11.1737257653  CLST         110          1.0000000000
       329       110  TIP3  H1            2.1986861856       13.1885211951      -11.0393629693  CLST         110          1.0000000000
       330       110  TIP3  H2            1.3246383942       12.2514723186      -10.2680318346  CLST         110          1.0000000000
       331       111  TIP3  OH2          11.8609330900      -11.6906677389        9.5144109963  CLST         111          1.0000000000
       332       111  TIP3  H1           12.6291851517      -12.1318692619        9.8371406349  CLST         111          1.0000000000
       333       111  TIP3  H2           11.5891027128      -12.2674626065        8.7754147322  CLST         111          1.0000000000
       334       112  TIP3  OH2           6.4572748993       -0.1481131739        1.7584536882  CLST         112          1.0000000000
       335       112  TIP3  H1            6.8487449664        0.7584004230        1.8325334246  CLST         112          1.0000000000
       336       112  TIP3  H2            6.4803267871       -0.4589906501        2.6899022035  CLST         112          1.0000000000
       337       113  TIP3  OH2         -12.8677725860        1.0032184454       -0.0183419693  CLST         113          1.0000000000
       338       113  TIP3  H1          -13.4928918532        0.2092989651       -0.1576248247  CLST         113          1.0000000000
       339       113  TIP3  H2          -12.3601561900        0.9845914278       -0.8656829939  CLST         113          1.0000000000
       340       114  TIP3  OH2         -13.9072353776        3.5244954817       -0.2262049322  CLST         114          1.0000000000
       341       114  TIP3  H1          -13.7039935428        2.5534432044       -0.1697118546  CLST         114          1.0000000000
       342       114  TIP3  H2          -13.6177432166        3.6536761915       -1.1595030615  CLST         114          1.0000000000
       343       115  TIP3  OH2          -8.8179583699        0.3117337724      -10.8257429649  CLST         115          1.0000000000
       344       115  TIP3  H1           -8.1659671808        0.6470345494      -11.4965985815  CLST         115          1.0000000000
       345       115  TIP3  H2           -9.2702354613        1.1613242193      -10.7295750972  CLST         115          1.0000000000
       346       116  TIP3  OH2           6.9282437500       -5.6928538202        2.1474699139  CLST         116          1.0000000000
       347       116  TIP3  H1            7.3692378324       -6.0311219491        1.3421040213  CLST         116          1.0000000000
       348       116  TIP3  H2            7.2882607113       -4.7751042887        2.1084027994  CLST         116          1.0000000000
       349       117  TIP3  OH2          -0.7967184601        0.0965763175       12.4971982876  CLST         117          1.0000000000
       350       117  TIP3  H1           -0.4979634541       -0.7982612831       12.7278041852  CLST         117          1.0000000000
       351       117  TIP3  H2           -0.2228857679        0.5118660045       13.1589026809  CLST         117          1.0000000000
       352       118  TIP3  OH2           0.1441892679       -9.5654047180        4.9240173462  CLST         118          1.0000000000
       353       118  TIP3  H1           -0.1560499394       -9.1808091506        5.7851749840  CLST         118          1.0000000000
       354       118  TIP3  H2           -0.1368487478       -8.8080877573        4.3333044468  CLST         118          1.0000000000
       355       119  TIP3  OH2          -9.2675153883      -10.3985132686       -8.7309138171  CLST         119          1.0000000000
       356       119  TIP3  H1           -9.4564212250      -10.7966320391       -9.6125575983  CLST         119          1.0000000000
       357       119  TIP3  H2           -9.0947068091       -9.4625152031       -8.9578634959  CLST         119          1.0000000000
       358       120  TIP3  OH2           9.5522491218       -8.0160547715        1.2721199024  CLST         120          1.0000000000
       359       120  TIP3  H1            8.7037572855       -8.5104164566        1.2901306450  CLST         120          1.0000000000
       360       120  TIP3  H2            9.3385187871       -7.3718829228        0.5474450406  CLST         120          1.0000000000
       361       121  TIP3  OH2          -5.6713072068       -0.2931539812       -7.9662514434  CLST         121          1.0000000000
       362       121  TIP3  H1           -5.7363757944       -0.0002471128       -8.8955569741  CLST         121          1.0000000000
       363       121  TIP3  H2           -4.9546275853       -0.9797442009       -8.0256658792  CLST         121          1.0000000000
       364       122  TIP3  OH2          10.4638959638       12.1227721540        5.2224055098  CLST         122          1.0000000000
       365       122  TIP3  H1            9.5333945054       12.4086066255        5.3854784314  CLST         122          1.0000000000
       366       122  TIP3  H2           10.9632644124       12.6329941942        5.8933186566  CLST         122          1.0000000000
       367       123  TIP3  OH2          -7.3390220853       -5.5422522734      -11.1765619361  CLST         123          1.0000000000
       368       123  TIP3  H1           -6.9175279952       -6.3405495570      -11.5284799946  CLST         123          1.0000000000
       369       123  TIP3  H2           -6.8400434703       -5.4064780703      -10.3584128703  CLST         123          1.0000000000
       370       124  TIP3  OH2          -5.9991598901       -8.6207835344      -10.7611696161  CLST         124          1.0000000000
       371       124  TIP3  H1           -5.2377026336       -8.9355761993      -10.1868454297  CLST         124          1.0000000000
       372       124  TIP3  H2           -6.5815838942       -8.2550996009      -10.0474288642  CLST         124          1.0000000000
       373       125  TIP3  OH2         -13.4634623614        4.1035422515        8.0809359938  CLST         125          1.0000000000
       374       125  TIP3  H1          -12.9988273241        3.6611556666        7.3761523668  CLST         125          1.0000000000
       375       125  TIP3  H2          -13.7432303427        4.8943471076        7.5831184103  CLST         125          1.0000000000
       376       126  TIP3  OH2          -7.0137507848      -10.6951071349      -12.1996857551  CLST         126          1.0000000000
       377       126  TIP3  H1           -6.1693375658      -11.1126911727      -11.9229598408  CLST         126          1.0000000000
       378       126  TIP3  H2           -6.7669515741       -9.8354289755      -11.7583936027  CLST         126          1.0000000000
       379       127  TIP3  OH2          -7.3381565344      -11.5887799797       -7.1220764332  CLST         127          1.0000000000
       380       127  TIP3  H1           -7.8553244773      -12.2797087424       -6.8034056614  CLST         127          1.0000000000
       381       127  TIP3  H2           -7.9394875714      -11.1544315092       -7.7637357832  CLST         127          1.0000000000
       382       128  TIP3  OH2           9.8672877008        0.7310021859       -2.4515890783  CLST         128          1.0000000000
       383       128  TIP3  H1            9.0316946541        0.3111022373       -2.1785639272  CLST         128          1.0000000000
       384       128  TIP3  H2            9.5685572397        1.5386035941       -2.9289263160  CLST         128          1.0000000000
       385       129  TIP3  OH2          -7.8401679787        9.5843069091        1.0973572275  CLST         129          1.0000000000
       386       129  TIP3  H1           -6.9391023547        9.9840529748        1.2905235728  CLST         129          1.0000000000
       387       129  TIP3  H2           -7.4780802955        8.8592993644        0.5756899126  CLST         129          1.0000000000
       388       130  TIP3  OH2          -4.0395231462        3.9726389517        9.7850308761  CLST         130          1.0000000000
       389       130  TIP3  H1           -3.5749907370        4.8168709912       10.0109308927  CLST         130          1.0000000000
       390       130  TIP3  H2           -3.7053748629        3.4880835943       10.5559026760  CLST         130          1.0000000000
       391       131  TIP3  OH2           7.7820203086       -3.8016891617       -9.9343482960  CLST         131          1.0000000000
       392       131  TIP3  H1            7.7616992958       -3.0237367793       -9.3225767699  CLST         131          1.0000000000
       393       131  TIP3  H2            6.8221280572       -3.9716006916       -9.7550666354  CLST         131          1.0000000000
       394       132  TIP3  OH2         -11.6079194347       11.3240813676       12.2509928884  CLST         132          1.0000000000
       395       132  TIP3  H1          -11.1040382217       12.0655226346       11.9509671486  CLST         132          1.0000000000
       396       132  TIP3  H2          -12.0277597234       11.6889071919       12.9974292542  CLST         132          1.0000000000
       397       133  TIP3  OH2          10.3510596678        9.5682770450        8.6111715010  CLST         133          1.0000000000
       398       133  TIP3  H1           10.1414535939        9.5903657936        9.5436070586  CLST         133          1.0000000000
       399       133  TIP3  H2           11.3272298023        9.6527066827        8.7193622303  CLST         133          1.0000000000
       400       134  TIP3  OH2          -7.7094764453        5.8346444614       -6.0134675143  CLST         134          1.0000000000
       401       134  TIP3  H1           -8.6584937722        5.7209454209       -5.8922836104  CLST         134          1.0000000000
       402       134  TIP3  H2           -7.4471994789        5.8926782834       -5.0919590898  CLST         134          1.0000000000
       403       135  TIP3  OH2          10.8949333781      -11.2897956627      -13.2920707894  CLST         135          1.0000000000
       404       135  TIP3  H1           10.8358672639      -10.6276998766      -12.6217464589  CLST         135          1.0000000000
       405       135  TIP3  H2           10.8299769596      -10.6604537125      -13.9681507057  CLST         135          1.0000000000
       406       136  TIP3  OH2          -4.2894868613        1.9501853409       -7.0871801846  CLST         136          1.0000000000
       407       136  TIP3  H1           -4.8104956326        1.0958175654       -7.3042795678  CLST         136          1.0000000000
       408       136  TIP3  H2           -5.0718424737        2.4771641673       -6.8767463387  CLST         136          1.0000000000
       409       137  TIP3  OH2          12.8405940190       10.2184044642        9.1105683363  CLST         137          1.0000000000
       410       137  TIP3  H1           13.2036286626       10.2034171451        9.9987178098  CLST         137          1.0000000000
       411       137  TIP3  H2           13.4062424767        9.4890459021        8.8524512915  CLST         137          1.0000000000
       412       138  TIP3  OH2          -0.8292444137      -10.0108134964        1.5373968246  CLST         138          1.0000000000
       413       138  TIP3  H1           -0.9574430576       -9.4560441048        0.7637117131  CLST         138          1.0000000000
       414       138  TIP3  H2           -0.8202917424       -9.3693321752        2.2549899290  CLST         138          1.0000000000
       415       139  TIP3  OH2          -9.5882310065      -10.6920374073        4.5912072739  CLST         139          1.0000000000
       416       139  TIP3  H1           -9.9712834007      -10.7130902567        3.6947738365  CLST         139          1.0000000000
       417       139  TIP3  H2           -8.8178818360      -11.2671305419        4.4974525959  CLST         139          1.0000000000
       418       140  TIP3  OH2          -7.0244958373        3.4012605298       -0.4625227048  CLST         140          1.0000000000
       419       140  TIP3  H1           -6.2180193703        3.8670153230       -0.1913975292  CLST         140          1.0000000000
       420       140  TIP3  H2           -7.5834614252        4.1813109172       -0.5936358429  CLST         140          1.0000000000
       421       141  TIP3  OH2           2.0554285259       -4.5051466779       -3.6529070352  CLST         141          1.0000000000
       422       141  TIP3  H1            1.8585260595       -3.6060526631       -3.3920656149  CLST         141          1.0000000000
       423       141  TIP3  H2            2.7136808589       -4.2024387375       -4.2860241407  CLST         141          1.0000000000
       424       142  TIP3  OH2         -11.6769908632       -0.0252054779        4.7419603382  CLST         142          1.0000000000
       425       142  TIP3  H1          -11.4809902775        0.6243880805        5.4248070322  CLST         142          1.0000000000
       426       142  TIP3  H2          -12.5570285381        0.3036921364        4.5324231976  CLST         142          1.0000000000
       427       143  TIP3  OH2           9.3415492337       -5.7653310091       -8.3557320607  CLST         143          1.0000000000
       428       143  TIP3  H1            9.4884319243       -5.2325456133       -9.1434234150  CLST         143          1.0000000000
       429       143  TIP3  H2           10.1248369994       -6.3241378682       -8.3927192542  CLST         143          1.0000000000
       430       144  TIP3  OH2           3.3247997696       -2.9015615319        9.1419568475  CLST         144          1.0000000000
       431       144  TIP3  H1            2.4620488045       -2.4858822293        9.3219851029  CLST         144          1.0000000000
       432       144  TIP3  H2            3.7153012528       -2.0831857158        8.8397907596  CLST         144          1.0000000000
       433       145  TIP3  OH2         -10.2066939128       13.3381639396        3.1704933704  CLST         145          1.0000000000
       434       145  TIP3  H1          -10.5767955274       13.5880647995        2.3191879077  CLST         145          1.0000000000
       435       145  TIP3  H2          -10.0600499873       12.3990030474        2.9978170845  CLST         145          1.0000000000
       436       146  TIP3  OH2           9.1805129943        2.6698496643       -4.1494044783  CLST         146          1.0000000000
       437       146  TIP3  H1            9.0948018598        3.6860331551       -4.1774931526  CLST         146          1.0000000000
       438       146  TIP3  H2            8.4805308321        2.5033628673       -4.8064614569  CLST         146          1.0000000000
       439       147  TIP3  OH2         -11.0477954216       -0.3036505818       -4.1601805362  CLST         147          1.0000000000
       440       147  TIP3  H1          -10.1431237446       -0.5972678694       -4.2485076632  CLST         147          1.0000000000
       441       147  TIP3  H2          -11.3799593063       -0.6020608393       -5.0274361563  CLST         147          1.0000000000
       442       148  TIP3  OH2          -7.9703309317        1.2992400870        8.9801834580  CLST         148          1.0000000000
       443       148  TIP3  H1           -7.8852287162        0.8990605734        8.0849823963  CLST         148          1.0000000000
       444       148  TIP3  H2           -7.0387302518        1.5863324163        9.0710235714  CLST         148          1.0000000000
       445       149  TIP3  OH2           8.6335919262       -2.8636780237        0.8448629378  CLST         149          1.0000000000
       446       149  TIP3  H1            9.2053132662       -2.1134315576        0.6244473565  CLST         149          1.0000000000
       447       149  TIP3  H2            8.4413992543       -2.6547967592        1.7628792268  CLST         149          1.0000000000
       448       150  TIP3  OH2          -2.1904333190      -11.4671920214        8.4952822370  CLST         150          1.0000000000
       449       150  TIP3  H1           -3.0385864981      -11.6038965628        9.0607499548  CLST         150          1.0000000000
       450       150  TIP3  H2           -1.6080261260      -11.8867533920        9.1822959867  CLST         150          1.0000000000
       451       151  TIP3  OH2          -9.1355808841       -6.5152775994       -4.8915755985  CLST         151          1.0000000000
       452       151  TIP3  H1           -8.1971479026       -6.5268570500       -4.6204469342  CLST         151          1.0000000000
       453       151  TIP3  H2           -9.1169586292       -7.2555500735       -5.5058305624  CLST         151          1.0000000000
       454       152  TIP3  OH2           3.8090036577       -2.0004939604        4.9703487516  CLST         152          1.0000000000
       455       152  TIP3  H1            4.2386472718       -2.8523141406        5.1858406776  CLST         152          1.0000000000
       456       152  TIP3  H2            3.5210553322       -2.3561478733        4.0916243855  CLST         152          1.0000000000
       457       153  TIP3  OH2          -2.7321440993        4.8283329426      -14.1866974176  CLST         153          1.0000000000
       458       153  TIP3  H1           -1.8499790452        5.1569368902      -14.0421530620  CLST         153          1.0000000000
       459       153  TIP3  H2           -2.5338842568        4.0455648578      -13.7359513913  CLST         153          1.0000000000
       460       154  TIP3  OH2           4.5345758823       -6.8679544197        2.0553727915  CLST         154          1.0000000000
       461       154  TIP3  H1            5.5160692550       -6.6727187541        2.0979936476  CLST         154          1.0000000000
       462       154  TIP3  H2            4.2939361096       -6.2911231862        1.3239374423  CLST         154          1.0000000000
       463       155  TIP3  OH2           9.4225808922       -2.7495880418       10.2699397584  CLST         155          1.0000000000
       464       155  TIP3  H1            8.7628086997       -3.2682844912        9.7858164045  CLST         155          1.0000000000
       465       155  TIP3  H2            9.9794554826       -3.4894170741       10.3693533589  CLST         155          1.0000000000
       466       156  TIP3  OH2          -2.2453006663       11.2851882748       11.5119235167  CLST         156          1.0000000000
       467       156  TIP3  H1           -3.0067067252       11.8177177725       11.5186101259  CLST         156          1.0000000000
       468       156  TIP3  H2           -2.6893884363       10.4928130755       11.2476362329  CLST         156          1.0000000000
       469       157  TIP3  OH2           3.9223663851       -0.7387777343        7.4662951857  CLST         157          1.0000000000
       470       157  TIP3  H1            4.8355913352       -0.4899316852        7.6120081673  CLST         157          1.0000000000
       471       157  TIP3  H2            3.9720078441       -1.3331597834        6.7150641029  CLST         157          1.0000000000
       472       158  TIP3  OH2          10.5817615709        9.1086409916       13.2440262775  CLST         158          1.0000000000
       473       158  TIP3  H1            9.9643657304        8.4119347594       13.5365617765  CLST         158          1.0000000000
       474       158  TIP3  H2            9.9486555451        9.8237270996       13.1815675003  CLST         158          1.0000000000
       475       159  TIP3  OH2           0.5645797582      -12.2745540643        4.3522937034  CLST         159          1.0000000000
       476       159  TIP3  H1           -0.1531467880      -12.5625241239        4.9557563222  CLST         159          1.0000000000
       477       159  TIP3  H2            0.5874775401      -11.3512171997        4.7618480523  CLST         159          1.0000000000
       478       160  TIP3  OH2           7.4490441933       -3.5780214750        8.5075014751  CLST         160          1.0000000000
       479       160  TIP3  H1            7.2699503864       -3.9120205600        7.6306894323  CLST         160          1.0000000000
       480       160  TIP3  H2            7.0563904872       -2.6983978594        8.3036512674  CLST         160          1.0000000000
       481       161  TIP3  OH2          -2.4836008102       -2.3802465738        7.8768966803  CLST         161          1.0000000000
       482       161  TIP3  H1           -2.2710847322       -1.6313640764        8.4568225077  CLST         161          1.0000000000
       483       161  TIP3  H2           -3.3019837243       -2.5729853357        8.3368071491  CLST         161          1.0000000000
       484       162  TIP3  OH2          -0.7819064683        3.6324745489      -10.6534325508  CLST         162          1.0000000000
       485       162  TIP3  H1           -0.6678023485        4.1061736296      -11.4511565546  CLST         162          1.0000000000
       486       162  TIP3  H2           -0.5510702433        4.2719075141       -9.9755514831  CLST         162          1.0000000000
       487       163  TIP3  OH2         -10.0929756570        9.1610984505       11.2066546563  CLST         163          1.0000000000
       488       163  TIP3  H1          -10.7369744157        8.4378459655       11.3391795085  CLST         163          1.0000000000
       489       163  TIP3  H2          -10.5327486452        9.8532708740       11.6688193572  CLST         163          1.0000000000
       490       164  TIP3  OH2           4.1048087718      -10.3387712336       13.0242959542  CLST         164          1.0000000000
       491       164  TIP3  H1            4.6794611727       -9.6902159266       12.5769139261  CLST         164          1.0000000000
       492       164  TIP3  H2            4.7858475237      -10.8988138180       13.3473932406  CLST         164          1.0000000000
       493       165  TIP3  OH2         -12.1450033620       -5.3988333970        3.6257246570  CLST         165          1.0000000000
       494       165  TIP3  H1          -11.8932905401       -5.5967430062        4.5586972820  CLST         165          1.0000000000
       495       165  TIP3  H2          -13.0081539215       -5.7384723268        3.5050333116  CLST         165          1.0000000000
       496       166  TIP3  OH2          -1.5654858522       -6.4671760552      -10.4191619334  CLST         166          1.0000000000
       497       166  TIP3  H1           -0.7166721806       -6.9082727395      -10.4546590846  CLST         166          1.0000000000
       498       166  TIP3  H2           -2.2308405938       -7.1399299233      -10.3837539700  CLST         166          1.0000000000
       499       167  TIP3  OH2           8.1096087480       10.6617390763       -0.8722394725  CLST         167          1.0000000000
       500       167  TIP3  H1            8.5967573789       10.2444532573       -0.1353440695  CLST         167          1.0000000000
       501       167  TIP3  H2            8.4272841273        9.9580866735       -1.4758715575  CLST         167          1.0000000000
       502       168  TIP3  OH2          -0.7262335941      -13.3614969894        2.0919491385  CLST         168          1.0000000000
       503       168  TIP3  H1           -0.2564532932      -13.0684426980        2.8891549756  CLST         168          1.0000000000
       504       168  TIP3  H2            0.0290183902      -13.7917585647        1.6435257585  CLST         168          1.0000000000
       505       169  TIP3  OH2           5.1678806824        3.9996606177        3.2620372371  CLST         169          1.0000000000
       506       169  TIP3  H1            4.3685464321        3.5103946823        3.3802265103  CLST         169          1.0000000000
       507       169  TIP3  H2            4.9543864666        4.4784959053        2.3814860764  CLST         169          1.0000000000
       508       170  TIP3  OH2          -1.0727408358        4.2773317894        1.4260073461  CLST         170          1.0000000000
       509       170  TIP3  H1           -1.8329226001        4.8463840120        1.3116890807  CLST         170          1.0000000000
       510       170  TIP3  H2           -1.6041795389        3.4533332332        1.4525807213  CLST         170          1.0000000000
       511       171  TIP3  OH2          -3.0505180247        1.3850819370        7.3775604618  CLST         171          1.0000000000
       512       171  TIP3  H1           -2.5026774950        1.2890031088        6.5771849307  CLST         171          1.0000000000
       513       171  TIP3  H2           -2.2733923112        1.5598140020        7.9595205196  CLST         171          1.0000000000
       514       172  TIP3  OH2          -6.4353288381      -13.0541732787        8.0525610504  CLST         172          1.0000000000
       515       172  TIP3  H1           -7.0110407988      -13.6936442204        7.6370708796  CLST         172          1.0000000000
       516       172  TIP3  H2           -5.7522990526      -12.9677476490        7.3499393163  CLST         172          1.0000000000
       517       173  TIP3  OH2          10.1451634450      -12.6068687637        1.8267956913  CLST         173          1.0000000000
       518       173  TIP3  H1           10.4345726368      -12.5694586273        0.9163930560  CLST         173          1.0000000000
       519       173  TIP3  H2            9.3768181646      -12.0848689078        1.6619462584  CLST         173          1.0000000000
       520       174  TIP3  OH2           0.0155645848        5.4507702984        9.7735833279  CLST         174          1.0000000000
       521       174  TIP3  H1           -0.3340042942        5.0526302095       10.5963619672  CLST         174          1.0000000000
       522       174  TIP3  H2           -0.6278311571        6.1851903666        9.7841529890  CLST         174          1.0000000000
       523       175  TIP3  OH2          -5.8640022730       10.3375163585       -3.5656782468  CLST         175          1.0000000000
       524       175  TIP3  H1           -5.3842495969        9.9967850310       -4.2939314821  CLST         175          1.0000000000
       525       175  TIP3  H2           -6.7067142980       10.2561247047       -4.0629998245  CLST         175          1.0000000000
       526       176  TIP3  OH2           6.7331915570        9.2283369154       -7.7845179813  CLST         176          1.0000000000
       527       176  TIP3  H1            7.0318051615       10.1193457783       -8.1448519125  CLST         176          1.0000000000
       528       176  TIP3  H2            6.5348084784        9.4934162252       -6.8804759993  CLST         176          1.0000000000
       529       177  TIP3  OH2          -3.7955010518      -11.3418627788       -1.5562390639  CLST         177          1.0000000000
       530       177  TIP3  H1           -2.9855713428      -11.7099404899       -1.1970544092  CLST         177          1.0000000000
       531       177  TIP3  H2           -4.2961802585      -11.2228906057       -0.7246341548  CLST         177          1.0000000000
       532       178  TIP3  OH2          10.7503017955       -9.0094635211      -11.4148776749  CLST         178          1.0000000000
       533       178  TIP3  H1           10.9483128789       -8.8045257249      -10.5011650858  CLST         178          1.0000000000
       534       178  TIP3  H2           10.6918339575       -8.0778836450      -11.6780116646  CLST         178          1.0000000000
       535       179  TIP3  OH2           6.5502757931       -0.9881974381        8.4121718002  CLST         179          1.0000000000
       536       179  TIP3  H1            6.1596894653       -0.2925625397        8.9647398481  CLST         179          1.0000000000
       537       179  TIP3  H2            7.4482646166       -0.6462851596        8.3368396603  CLST         179          1.0000000000
       538       180  TIP3  OH2          -7.5453323703        8.1627479553        5.9584979041  CLST         180          1.0000000000
       539       180  TIP3  H1           -7.3009283739        8.0305152392        6.9107982176  CLST         180          1.0000000000
       540       180  TIP3  H2           -8.3848893203        8.5741493168        6.1955594104  CLST         180          1.0000000000
       541       181  TIP3  OH2           5.9668355015      -12.9365005253       -0.4190504094  CLST         181          1.0000000000
       542       181  TIP3  H1            6.7666211890      -13.2063416766       -0.8296937432  CLST         181          1.0000000000
       543       181  TIP3  H2            6.2198621890      -13.0223620332        0.5081551880  CLST         181          1.0000000000
       544       182  TIP3  OH2          -1.6906272448       10.4386709477      -10.3497349131  CLST         182          1.0000000000
       545       182  TIP3  H1           -1.2426552284       11.0793031851       -9.7989332694  CLST         182          1.0000000000
       546       182  TIP3  H2           -2.4190125092       10.2485010243       -9.7692201169  CLST         182          1.0000000000
       547       183  TIP3  OH2          -5.3585782163        3.6274771388      -12.2416316201  CLST         183          1.0000000000
       548       183  TIP3  H1           -5.0382479419        3.5393862114      -11.3420349443  CLST         183          1.0000000000
       549       183  TIP3  H2           -6.1233241560        3.0889789483      -12.1343787482  CLST         183          1.0000000000
       550       184  TIP3  OH2           2.9970501168        8.2543098302       -2.4540895073  CLST         184          1.0000000000
       551       184  TIP3  H1            3.2804614005        7.6207831415       -1.7806769104  CLST         184          1.0000000000
       552       184  TIP3  H2            2.0742836104        8.0402552516       -2.2649792447  CLST         184          1.0000000000
       553       185  TIP3  OH2           7.5076650947        4.7480474208       12.1885199625  CLST         185          1.0000000000
       554       185  TIP3  H1            7.6860421302        3.7938549558       12.1058726192  CLST         185          1.0000000000
       555       185  TIP3  H2            6.9316880656        4.7752179964       12.9751295839  CLST         185          1.0000000000
       556       186  TIP3  OH2           3.9547218300        5.9028790910       -5.1966999796  CLST         186          1.0000000000
       557       186  TIP3  H1            4.0093223431        6.8270044430       -4.9782582402  CLST         186          1.0000000000
       558       186  TIP3  H2            3.8320283029        6.0209301859       -6.1234085183  CLST         186          1.0000000000
       559       187  TIP3  OH2           4.1282898126        1.6943950671       -5.5285250752  CLST         187          1.0000000000
       560       187  TIP3  H1            4.0997041733        1.6923634671       -4.5420002524  CLST         187          1.0000000000
       561       187  TIP3  H2            3.6468681254        0.8077719740       -5.5870847155  CLST         187          1.0000000000
       562       188  TIP3  OH2          -4.6710449612       -1.5199440705        4.8982182255  CLST         188          1.0000000000
       563       188  TIP3  H1           -4.5818466879       -0.7289236219        4.3481883558  CLST         188          1.0000000000
       564       188  TIP3  H2           -4.8641321660       -1.1262305095        5.7679265859  CLST         188          1.0000000000
       565       189  TIP3  OH2          -5.0674312208        3.5470228502      -15.0652796248  CLST         189          1.0000000000
       566       189  TIP3  H1           -5.1370681166        3.0753051748      -14.2799166852  CLST         189          1.0000000000
       567       189  TIP3  H2           -4.3454963578        4.0964108504      -14.8326706233  CLST         189          1.0000000000
       568       190  TIP3  OH2           7.2469658354       -5.7290387515        5.3116524143  CLST         190          1.0000000000
       569       190  TIP3  H1            7.0587974257       -5.4422013841        4.3902964231  CLST         190          1.0000000000
       570       190  TIP3  H2            8.1789349991       -5.9273932568        5.1270575902  CLST         190          1.0000000000
       571       191  TIP3  OH2         -10.8885574028       -4.8428780926       -6.5920130496  CLST         191          1.0000000000
       572       191  TIP3  H1          -10.5444576714       -4.3767251565       -7.3347787266  CLST         191          1.0000000000
       573       191  TIP3  H2          -10.0965531171       -4.9423905100       -6.1018769981  CLST         191          1.0000000000
       574       192  TIP3  OH2           8.9223825575       14.3247620681        1.9117320060  CLST         192          1.0000000000
       575       192  TIP3  H1            8.3698897063       14.0848151207        2.6402360593  CLST         192          1.0000000000
       576       192  TIP3  H2            9.0518906698       15.2379714448        2.0462090530  CLST         192          1.0000000000
       577       193  TIP3  OH2           6.1466902761      -12.1619596547       11.7768441854  CLST         193          1.0000000000
       578       193  TIP3  H1            7.0136133787      -12.4595576657       11.5172484933  CLST         193          1.0000000000
       579       193  TIP3  H2            5.7408317508      -11.9182930011       10.9613914601  CLST         193          1.0000000000
       580       194  TIP3  OH2          -6.3003224408       -4.4543643472       11.1242217964  CLST         194          1.0000000000
       581       194  TIP3  H1           -6.9626349881       -4.4350718004       11.7801676491  CLST         194          1.0000000000
       582       194  TIP3  H2           -6.8472298488       -4.7776764318       10.4096291208  CLST         194          1.0000000000
       583       195  TIP3  OH2          -7.3755244697        9.0790198902       10.2447933636  CLST         195          1.0000000000
       584       195  TIP3  H1           -8.3016579005        9.0943088681       10.4603649316  CLST         195          1.0000000000
       585       195  TIP3  H2           -7.3844077032        8.1497498237        9.8818480481  CLST         195          1.0000000000
       586       196  TIP3  OH2           5.9587813537      -12.3164576828       -5.9814762433  CLST         196          1.0000000000
       587       196  TIP3  H1            6.4419537636      -11.6085397050       -6.3698707715  CLST         196          1.0000000000
       588       196  TIP3  H2            5.2281038611      -11.8241846223       -5.6094551754  CLST         196          1.0000000000
       589       197  TIP3  OH2           2.1820414695       -9.1631791802       -2.7544677000  CLST         197          1.0000000000
       590       197  TIP3  H1            2.0354721265       -8.2680194916       -2.3685050824  CLST         197          1.0000000000
       591       197  TIP3  H2            3.1083734207       -9.0618445085       -2.7076454302  CLST         197          1.0000000000
       592       198  TIP3  OH2          10.8725843772        1.9977667866        4.5978244387  CLST         198          1.0000000000
       593       198  TIP3  H1           10.0973292988        1.4757363436        4.4871638596  CLST         198          1.0000000000
       594       198  TIP3  H2           10.5771203402        2.8574626229        4.2673704572  CLST         198          1.0000000000
       595       199  TIP3  OH2          -0.0078494706        8.4130870285       -5.8769554907  CLST         199          1.0000000000
       596       199  TIP3  H1           -0.8496451712        8.6423116448       -5.4648718924  CLST         199          1.0000000000
       597       199  TIP3  H2           -0.0627452288        7.4829892874       -5.6509096843  CLST         199          1.0000000000
       598       200  TIP3  OH2          -7.6660261512       11.7796977154       11.0019790593  CLST         200          1.0000000000
       599       200  TIP3  H1           -7.9039339921       10.9297931914       10.6415839300  CLST         200          1.0000000000
       600       200  TIP3  H2           -7.2034045755       12.1864006407       10.2520320384  CLST         200          1.0000000000
       601       201  TIP3  OH2           4.5374533319        0.9361708155       -0.0871469760  CLST         201          1.0000000000
       602       201  TIP3  H1            4.3149356075        1.6274073170        0.5223198269  CLST         201          1.0000000000
       603       201  TIP3  H2            4.8988057868        0.2881272843        0.5447835952  CLST         201          1.0000000000
       604       202  TIP3  OH2          -1.9647469643       -4.1558988281      -12.3770103254  CLST         202          1.0000000000
       605       202  TIP3  H1           -1.7968836748       -4.7824378385      -11.6925568307  CLST         202          1.0000000000
       606       202  TIP3  H2           -2.4916463512       -3.5274796694      -11.8953642882  CLST         202          1.0000000000
       607       203  TIP3  OH2          -0.7016475400       11.2588138855        7.5393663047  CLST         203          1.0000000000
       608       203  TIP3  H1            0.1413780735       10.9519378432        7.9096571256  CLST         203          1.0000000000
       609       203  TIP3  H2           -1.3238442209       10.8962053747        8.1642895264  CLST         203          1.0000000000
       610       204  TIP3  OH2          -5.4032684461        6.3942882597      -13.3448285790  CLST         204          1.0000000000
       611       204  TIP3  H1           -4.6587876562        6.3687083488      -13.9239081497  CLST         204          1.0000000000
       612       204  TIP3  H2           -5.4535177123        5.4446571854      -13.2314211856  CLST         204          1.0000000000
       613       205  TIP3  OH2          -2.3651664388        7.0393940984       -2.6194686102  CLST         205          1.0000000000
       614       205  TIP3  H1           -2.2623132935        7.7672479209       -3.2673242243  CLST         205          1.0000000000
       615       205  TIP3  H2           -1.4001404517        6.9073572912       -2.5878572662  CLST         205          1.0000000000
       616       206  TIP3  OH2           5.0059851912      -10.9716571753       -9.8607407648  CLST         206          1.0000000000
       617       206  TIP3  H1            4.8572252183      -11.9077585223       -9.5351027441  CLST         206          1.0000000000
       618       206  TIP3  H2            5.8085336588      -10.8205143084       -9.3200497179  CLST         206          1.0000000000
       619       207  TIP3  OH2          12.8494023194       10.1088447736       12.2213756655  CLST         207          1.0000000000
       620       207  TIP3  H1           12.0723933465        9.7249405898       12.6227926273  CLST         207          1.0000000000
       621       207  TIP3  H2           13.5145700106        9.8576004052       12.7868483003  CLST         207          1.0000000000
       622       208  TIP3  OH2         -11.5628052931        2.2632403800        6.8254100595  CLST         208          1.0000000000
       623       208  TIP3  H1          -11.1241328299        2.1206487592        7.6807599074  CLST         208          1.0000000000
       624       208  TIP3  H2          -11.0890624459        2.9974973177        6.4744237444  CLST         208          1.0000000000
       625       209  TIP3  OH2           4.4874657062       -9.1840670939        7.3486814121  CLST         209          1.0000000000
       626       209  TIP3  H1            4.2019567763       -9.5431479572        6.5018327356  CLST         209          1.0000000000
       627       209  TIP3  H2            3.6533566654       -8.7615121995        7.6064552976  CLST         209          1.0000000000
       628       210  TIP3  OH2          12.1817069311      -11.1414527037        5.4212018451  CLST         210          1.0000000000
       629       210  TIP3  H1           12.5588522968      -11.2946462724        4.5606557152  CLST         210          1.0000000000
       630       210  TIP3  H2           12.4365195411      -10.2221272365        5.5693664120  CLST         210          1.0000000000
       631       211  TIP3  OH2          -0.3617106886       -9.2079825519       12.1730251586  CLST         211          1.0000000000
       632       211  TIP3  H1            0.1276421800       -9.7778680529       12.7720489948  CLST         211          1.0000000000
       633       211  TIP3  H2           -1.1613497862       -9.7701114573       12.2091434473  CLST         211          1.0000000000
       634       212  TIP3  OH2         -12.3198932976        3.4036250111       -2.5692006374  CLST         212          1.0000000000
       635       212  TIP3  H1          -11.7262148952        4.1040507411       -2.9000499454  CLST         212          1.0000000000
       636       212  TIP3  H2          -11.6689076007        2.7602111050       -2.2895348856  CLST         212          1.0000000000
       637       213  TIP3  OH2          -9.4353914360      -11.4864152742      -11.6037561572  CLST         213          1.0000000000
       638       213  TIP3  H1           -9.7900570581      -11.7470510962      -12.4095081927  CLST         213          1.0000000000
       639       213  TIP3  H2           -8.5303335062      -11.1771792797      -11.8028768050  CLST         213          1.0000000000
       640       214  TIP3  OH2          -6.4522619550        2.2740647273       -5.4414051057  CLST         214          1.0000000000
       641       214  TIP3  H1           -6.2088500490        1.4593652852       -4.9782226299  CLST         214          1.0000000000
       642       214  TIP3  H2           -7.1339370967        2.6116922244       -4.8210691691  CLST         214          1.0000000000
       643       215  TIP3  OH2         -11.7917198338      -12.8789697519        5.6806717749  CLST         215          1.0000000000
       644       215  TIP3  H1          -11.0632994553      -12.3507019908        5.4625364674  CLST         215          1.0000000000
       645       215  TIP3  H2          -11.8709584993      -13.2383273598        4.7975155019  CLST         215          1.0000000000
       646       216  TIP3  OH2         -11.9812984572       -2.3073817182        8.0189990908  CLST         216          1.0000000000
       647       216  TIP3  H1          -11.0980668554       -1.9732901378        8.1636375692  CLST         216          1.0000000000
       648       216  TIP3  H2          -11.7226842302       -3.2261002297        8.1791887437  CLST         216          1.0000000000
       649       217  TIP3  OH2           7.5881847594       -0.2686245210       -1.5572780218  CLST         217          1.0000000000
       650       217  TIP3  H1            7.7628542640       -1.2076519178       -1.7267762288  CLST         217          1.0000000000
       651       217  TIP3  H2            7.0847256618       -0.3695028725       -0.7161666986  CLST         217          1.0000000000
       652       218  TIP3  OH2          -8.1996113151       -3.9111869479        9.1014872836  CLST         218          1.0000000000
       653       218  TIP3  H1           -8.5617903431       -3.0447131106        8.8362629379  CLST         218          1.0000000000
       654       218  TIP3  H2           -7.7743695190       -4.2136922602        8.2886037148  CLST         218          1.0000000000
       655       219  TIP3  OH2         -12.4503614708       -4.5522819840       -2.6860281300  CLST         219          1.0000000000
       656       219  TIP3  H1          -12.5535238240       -3.6335711749       -2.8687078248  CLST         219          1.0000000000
       657       219  TIP3  H2          -12.6017534751       -4.8867255710       -3.5650335721  CLST         219          1.0000000000
       658       220  TIP3  OH2           6.3862595321        6.8721009811        7.7794191731  CLST         220          1.0000000000
       659       220  TIP3  H1            6.0002824713        6.9160066833        6.9025845163  CLST         220          1.0000000000
       660       220  TIP3  H2            5.7971110646        6.2129413407        8.1509741805  CLST         220          1.0000000000
       661       221  TIP3  OH2         -10.3394336965       -7.0714480738       10.2975320725  CLST         221          1.0000000000
       662       221  TIP3  H1           -9.4373989289       -7.3074692865       10.2929177959  CLST         221          1.0000000000
       663       221  TIP3  H2          -10.7007946174       -7.9444067847       10.1524126731  CLST         221          1.0000000000
       664       222  TIP3  OH2          -6.8547701092       -0.7288574346      -13.6829724423  CLST         222          1.0000000000
       665       222  TIP3  H1           -6.3755124242       -1.5778781729      -13.3985992888  CLST         222          1.0000000000
       666       222  TIP3  H2           -7.6929556156       -1.1719819331      -13.8682280188  CLST         222          1.0000000000
       667       223  TIP3  OH2           2.7578534103      -10.8227855935      -11.6283944989  CLST         223          1.0000000000
       668       223  TIP3  H1            2.2854002468      -11.6945569209      -11.5003381254  CLST         223          1.0000000000
       669       223  TIP3  H2            3.5562954451      -10.9277984928      -11.1121975180  CLST         223          1.0000000000
       670       224  TIP3  OH2           7.5947454508        4.7945987009        0.6141000431  CLST         224          1.0000000000
       671       224  TIP3  H1            8.2961418462        5.4536893897        0.5594563928  CLST         224          1.0000000000
       672       224  TIP3  H2            7.5786246163        4.3203838908       -0.2322337870  CLST         224          1.0000000000
       673       225  TIP3  OH2          -0.3436382141        4.6371931548       -1.2573669453  CLST         225          1.0000000000
       674       225  TIP3  H1           -0.4095012995        4.4833243093       -0.3069694936  CLST         225          1.0000000000
       675       225  TIP3  H2           -0.4468144142        3.6301797201       -1.3877141241  CLST         225          1.0000000000
       676       226  TIP3  OH2          -5.6756993468       -4.3618182467        7.5036385631  CLST         226          1.0000000000
       677       226  TIP3  H1           -5.7220231327       -5.3308063185        7.5962990565  CLST         226          1.0000000000
       678       226  TIP3  H2           -5.6206727104       -4.3849812679        6.5448732674  CLST         226          1.0000000000
       679       227  TIP3  OH2          11.6654014451       -4.1617998146       -9.9043636399  CLST         227          1.0000000000
       680       227  TIP3  H1           11.7122602629       -3.5816456107       -9.1268970606  CLST         227          1.0000000000
       681       227  TIP3  H2           11.5035272943       -3.4715358031      -10.5516395811  CLST         227          1.0000000000
       682       228  TIP3  OH2           3.5606388865       12.4109364778        3.2618361209  CLST         228          1.0000000000
       683       228  TIP3  H1            2.6894890462       12.1361383239        3.5877404692  CLST         228          1.0000000000
       684       228  TIP3  H2            3.1300634821       12.7160437759        2.4857844413  CLST         228          1.0000000000
       685       229  TIP3  OH2         -11.5221982738      -13.0326596903        2.8927338947  CLST         229          1.0000000000
       686       229  TIP3  H1          -11.4311223149      -13.5845484905        2.1521280666  CLST         229          1.0000000000
       687       229  TIP3  H2          -11.2389976709      -12.2190907570        2.4438306180  CLST         229          1.0000000000
       688       230  TIP3  OH2          12.2586269500        6.2113390196       -3.4201971073  CLST         230          1.0000000000
       689       230  TIP3  H1           12.9637822191        6.1056274373       -2.7883626783  CLST         230          1.0000000000
       690       230  TIP3  H2           11.9980207216        5.2764298266       -3.3699705015  CLST         230          1.0000000000
       691       231  TIP3  OH2           7.1468637462        3.3916202394        4.8975726044  CLST         231          1.0000000000
       692       231  TIP3  H1            7.5282101219        4.2572171591        5.1184971890  CLST         231          1.0000000000
       693       231  TIP3  H2            6.3541326797        3.7365492932        4.4453989158  CLST         231          1.0000000000
       694       232  TIP3  OH2         -10.3430477958        9.0257342450        7.5151701226  CLST         232          1.0000000000
       695       232  TIP3  H1          -10.7978613684        9.6072293887        8.1572725182  CLST         232          1.0000000000
       696       232  TIP3  H2          -10.1626602183        8.2615043838        8.0857742120  CLST         232          1.0000000000
       697       233  TIP3  OH2           3.5945368503       -5.3144030896        8.0332140649  CLST         233          1.0000000000
       698       233  TIP3  H1            4.1363243123       -5.6559309959        8.7434291265  CLST         233          1.0000000000
       699       233  TIP3  H2            3.5134785221       -4.4220799081        8.4376226501  CLST         233          1.0000000000
       700       234  TIP3  OH2          -3.6868525349        8.5557923347       -0.5271575390  CLST         234          1.0000000000
       701       234  TIP3  H1           -3.1489266821        8.4505365259       -1.3316869956  CLST         234          1.0000000000
       702       234  TIP3  H2           -3.6293133992        9.5422946492       -0.5993378895  CLST         234          1.0000000000
       703       235  TIP3  OH2          -1.9472509992       -4.0839332683       -9.1206039117  CLST         235          1.0000000000
       704       235  TIP3  H1           -1.8229629061       -4.9482747430       -9.5451255728  CLST         235          1.0000000000
       705       235  TIP3  H2           -0.9833635471       -3.9024569735       -9.0545134630  CLST         235          1.0000000000
       706       236  TIP3  OH2          -0.3585138479      -13.6640430833       -3.0111641858  CLST         236          1.0000000000
       707       236  TIP3  H1            0.1421915060      -12.9713417923       -2.5325688644  CLST         236          1.0000000000
       708       236  TIP3  H2           -0.9786282467      -13.7815051183       -2.2546082753  CLST         236          1.0000000000
       709       237  TIP3  OH2          -3.6554709364       -5.1515097118       10.8841286152  CLST         237          1.0000000000
       710       237  TIP3  H1           -4.4876847136       -4.8100768499       11.1997061245  CLST         237          1.0000000000
       711       237  TIP3  H2           -4.0662805986       -5.6619644515       10.1973653767  CLST         237          1.0000000000
       712       238  TIP3  OH2           0.6678142620        4.7692789676        7.2802541000  CLST         238          1.0000000000
       713       238  TIP3  H1           -0.0049038299        5.3125394379        6.8229766249  CLST         238          1.0000000000
       714       238  TIP3  H2            0.5511615750        5.0191940282        8.2151171940  CLST         238          1.0000000000
       715       239  TIP3  OH2         -14.0698582001        5.9561915349        3.4875741569  CLST         239          1.0000000000
       716       239  TIP3  H1          -14.3145441403        6.4663307875        2.7445615237  CLST         239          1.0000000000
       717       239  TIP3  H2          -13.3945181730        5.4208262722        3.0885722687  CLST         239          1.0000000000
       718       240  TIP3  OH2         -14.1213019932        8.8583937987       -0.2440101995  CLST         240          1.0000000000
       719       240  TIP3  H1          -14.8225104922        9.0997250580        0.3376906783  CLST         240          1.0000000000
       720       240  TIP3  H2          -14.0178060103        7.9067187966        0.0408383747  CLST         240          1.0000000000
       721       241  TIP3  OH2          -7.6665054598       -7.7976211211       -8.5690000638  CLST         241          1.0000000000
       722       241  TIP3  H1           -7.8465441677       -7.9358132211       -7.6326695557  CLST         241          1.0000000000
       723       241  TIP3  H2           -7.6196853288       -6.8388281815       -8.5461964287  CLST         241          1.0000000000
       724       242  TIP3  OH2           6.0635010267       -5.7079983398        9.6607754634  CLST         242          1.0000000000
       725       242  TIP3  H1            6.4436313783       -4.8721921982        9.3832645218  CLST         242          1.0000000000
       726       242  TIP3  H2            6.8057012557       -6.2923324087        9.4263524885  CLST         242          1.0000000000
       727       243  TIP3  OH2          -6.6316635332       -7.2350186827       -4.2947451382  CLST         243          1.0000000000
       728       243  TIP3  H1           -6.5376958023       -7.8422904646       -5.0359062873  CLST         243          1.0000000000
       729       243  TIP3  H2           -6.3655139846       -7.9143376333       -3.6537535078  CLST         243          1.0000000000
       730       244  TIP3  OH2           4.8957108902        5.7589685048        5.4609703882  CLST         244          1.0000000000
       731       244  TIP3  H1            5.0866941231        5.5124548411        4.5594443541  CLST         244          1.0000000000
       732       244  TIP3  H2            4.2692321956        5.0521638582        5.7016822181  CLST         244          1.0000000000
       733       245  TIP3  OH2          -7.0527913047        3.6841309974       -7.7276932351  CLST         245          1.0000000000
       734       245  TIP3  H1           -6.9409237628        3.0814028788       -7.0056693391  CLST         245          1.0000000000
       735       245  TIP3  H2           -7.3048551322        4.3839704105       -7.1333351482  CLST         245          1.0000000000
       736       246  TIP3  OH2           1.9906933437       -6.6026032379       -1.8795761070  CLST         246          1.0000000000
       737       246  TIP3  H1            1.6629164838       -5.9488725421       -2.4984089157  CLST         246          1.0000000000
       738       246  TIP3  H2            2.9179895471       -6.5180829245       -1.9938853990  CLST         246          1.0000000000
       739       247  TIP3  OH2           6.0165216676        8.0279402098        0.5369109713  CLST         247          1.0000000000
       740       247  TIP3  H1            6.5583124472        7.8689806539       -0.2673671569  CLST         247          1.0000000000
       741       247  TIP3  H2            5.4773502073        8.7759367980        0.3098242910  CLST         247          1.0000000000
       742       248  TIP3  OH2          -2.4806811900        8.3398405250      -11.9517044607  CLST         248          1.0000000000
       743       248  TIP3  H1           -2.3018680339        8.7360956876      -12.7920098371  CLST         248          1.0000000000
       744       248  TIP3  H2           -1.9758254205        8.9425827774      -11.4000707918  CLST         248          1.0000000000
       745       249  TIP3  OH2           8.9040079593        4.7146577094       -7.8947806206  CLST         249          1.0000000000
       746       249  TIP3  H1            8.2757087557        5.4227486339       -7.8832687375  CLST         249          1.0000000000
       747       249  TIP3  H2            8.4054867037        4.0522284060       -7.4230482561  CLST         249          1.0000000000
       748       250  TIP3  OH2          -7.5380989195        9.6646848915       -5.3766593709  CLST         250          1.0000000000
       749       250  TIP3  H1           -7.9900257026        8.8749905185       -5.6525296835  CLST         250          1.0000000000
       750       250  TIP3  H2           -7.3215893914       10.0863682071       -6.2105118944  CLST         250          1.0000000000
       751       251  TIP3  OH2          -3.6369690059       12.4517749694        3.0029353011  CLST         251          1.0000000000
       752       251  TIP3  H1           -2.9083298218       12.7380443607        2.5118808648  CLST         251          1.0000000000
       753       251  TIP3  H2           -3.1454120845       12.3274265423        3.8536581018  CLST         251          1.0000000000
       754       252  TIP3  OH2           5.8787179317        5.2371129008       14.6443570121  CLST         252          1.0000000000
       755       252  TIP3  H1            5.7198154594        6.1061494097       14.3136082544  CLST         252          1.0000000000
       756       252  TIP3  H2            5.5425615823        5.3594356450       15.4982214316  CLST         252          1.0000000000
       757       253  TIP3  OH2           5.9917045045       13.9133563923        3.2844873418  CLST         253          1.0000000000
       758       253  TIP3  H1            5.2681189884       13.3028762155        3.4029549118  CLST         253          1.0000000000
       759       253  TIP3  H2            6.0715028044       13.9131140867        2.3625794391  CLST         253          1.0000000000
       760       254  TIP3  OH2          -4.1914681715        8.1501262480        3.0821884949  CLST         254          1.0000000000
       761       254  TIP3  H1           -4.6550256006        8.5388187171        2.3269339750  CLST         254          1.0000000000
       762       254  TIP3  H2           -4.8080795183        7.5210699668        3.4059163890  CLST         254          1.0000000000
       763       255  TIP3  OH2          -7.1303592328       10.4522577327        4.2309393316  CLST         255          1.0000000000
       764       255  TIP3  H1           -7.9978676369       10.8517520384        4.3950622185  CLST         255          1.0000000000
       765       255  TIP3  H2           -7.1957816348        9.7796173245        4.9164299086  CLST         255          1.0000000000
       766       256  TIP3  OH2          11.4544946191        3.7793838654       -1.3379217904  CLST         256          1.0000000000
       767       256  TIP3  H1           11.7665337793        2.9059284226       -1.5979805063  CLST         256          1.0000000000
       768       256  TIP3  H2           11.5878588996        3.7300916816       -0.4108262353  CLST         256          1.0000000000
       769       257  TIP3  OH2          -8.4603300620       -1.1904959692       -4.9868134318  CLST         257          1.0000000000
       770       257  TIP3  H1           -7.5993841836       -0.8605832973       -4.6950406827  CLST         257          1.0000000000
       771       257  TIP3  H2           -8.4445012612       -0.9421930497       -5.8999417583  CLST         257          1.0000000000
       772       258  TIP3  OH2          -5.3001130052       10.2227706910        7.8323965668  CLST         258          1.0000000000
       773       258  TIP3  H1           -5.0476692885       10.7715807425        7.0608677539  CLST         258          1.0000000000
       774       258  TIP3  H2           -6.0801864531       10.7705323693        8.1222424779  CLST         258          1.0000000000
       775       259  TIP3  OH2          10.1591243722        6.1347125958        1.0080313952  CLST         259          1.0000000000
       776       259  TIP3  H1           11.0080934288        6.5697343849        0.8834904379  CLST         259          1.0000000000
       777       259  TIP3  H2            9.8892593557        6.6574459112        1.7450051070  CLST         259          1.0000000000
       778       260  TIP3  OH2          -4.9887983956        7.7321896410        8.9108974052  CLST         260          1.0000000000
       779       260  TIP3  H1           -5.0644842504        8.5894811099        8.4613367139  CLST         260          1.0000000000
       780       260  TIP3  H2           -5.6832879049        7.2996523287        8.4019366694  CLST         260          1.0000000000
       781       261  TIP3  OH2           0.7632646298       -4.3103645291       12.3547931821  CLST         261          1.0000000000
       782       261  TIP3  H1            0.3097126033       -5.1874537424       12.3427531727  CLST         261          1.0000000000
       783       261  TIP3  H2            1.4841251408       -4.5554571922       12.9368808477  CLST         261          1.0000000000
       784       262  TIP3  OH2         -11.0734190212        4.8248948833        6.0071381995  CLST         262          1.0000000000
       785       262  TIP3  H1          -10.2161190585        4.6899084834        5.5394990513  CLST         262          1.0000000000
       786       262  TIP3  H2          -11.5830377132        5.1018716209        5.2283943630  CLST         262          1.0000000000
       787       263  TIP3  OH2           1.7568018785        0.8573161448        6.6402186210  CLST         263          1.0000000000
       788       263  TIP3  H1            2.4189695002        1.4495995337        6.9783885465  CLST         263          1.0000000000
       789       263  TIP3  H2            2.1695698801        0.0297407276        6.9058215457  CLST         263          1.0000000000
       790       264  TIP3  OH2           5.2569491709       -4.1671767530       -9.6441612671  CLST         264          1.0000000000
       791       264  TIP3  H1            5.2878769388       -5.0964742318       -9.9310208284  CLST         264          1.0000000000
       792       264  TIP3  H2            4.3278748432       -4.0556900602       -9.9866592691  CLST         264          1.0000000000
       793       265  TIP3  OH2           7.5552135570        4.9559807352      -10.1856518340  CLST         265          1.0000000000
       794       265  TIP3  H1            7.6752121390        5.9118102029      -10.3163566671  CLST         265          1.0000000000
       795       265  TIP3  H2            8.3652536566        4.7405059685       -9.7277535275  CLST         265          1.0000000000
       796       266  TIP3  OH2          -7.9909003239       -8.8384640213        0.1504426554  CLST         266          1.0000000000
       797       266  TIP3  H1           -7.6906651321       -9.1944265891        0.9942295372  CLST         266          1.0000000000
       798       266  TIP3  H2           -8.1560486738       -7.9162035324        0.3628302237  CLST         266          1.0000000000
       799       267  TIP3  OH2           1.2291186776        2.6358523912       -5.1927732152  CLST         267          1.0000000000
       800       267  TIP3  H1            1.2661165697        3.4376118878       -4.6509935447  CLST         267          1.0000000000
       801       267  TIP3  H2            2.1576378938        2.4242525884       -5.0330487911  CLST         267          1.0000000000
       802       268  TIP3  OH2           5.1285899158       -4.5372301735       -6.8272859178  CLST         268          1.0000000000
       803       268  TIP3  H1            5.1613793954       -4.1782210742       -7.7171713245  CLST         268          1.0000000000
       804       268  TIP3  H2            4.7489407699       -5.3847274919       -7.0939021094  CLST         268          1.0000000000
       805       269  TIP3  OH2           5.5518417666       10.8426051081       -0.0721446279  CLST         269          1.0000000000
       806       269  TIP3  H1            6.4072430083       10.7198104045       -0.4899275899  CLST         269          1.0000000000
       807       269  TIP3  H2            5.7412164649       11.6618331120        0.3922036689  CLST         269          1.0000000000
       808       270  TIP3  OH2           1.2582793004        9.3135522236       -7.9215687920  CLST         270          1.0000000000
       809       270  TIP3  H1            1.1634354940        8.4654449021       -8.3261079903  CLST         270          1.0000000000
       810       270  TIP3  H2            0.8494378252        8.9851328380       -7.0737019520  CLST         270          1.0000000000
       811       271  TIP3  OH2          -6.4376128230       -9.0877188603       -2.1734113740  CLST         271          1.0000000000
       812       271  TIP3  H1           -5.7682494567       -8.6846354005       -1.6154627834  CLST         271          1.0000000000
       813       271  TIP3  H2           -7.1498883374       -9.1940340500       -1.5135930968  CLST         271          1.0000000000
       814       272  TIP3  OH2           9.4568378532       -8.2232026416        5.8176739562  CLST         272          1.0000000000
       815       272  TIP3  H1            8.5056067909       -8.2991976727        6.0246271532  CLST         272          1.0000000000
       816       272  TIP3  H2            9.4801156133       -7.7094444603        4.9952723464  CLST         272          1.0000000000
       817       273  TIP3  OH2         -13.9483592535        9.4523706012        3.2373270054  CLST         273          1.0000000000
       818       273  TIP3  H1          -14.6951960554        9.5716762773        3.8542674133  CLST         273          1.0000000000
       819       273  TIP3  H2          -13.4358741841        8.8528456421        3.8003166221  CLST         273          1.0000000000
       820       274  TIP3  OH2           4.1189081119       13.0249217260       -4.0269430321  CLST         274          1.0000000000
       821       274  TIP3  H1            3.9892310963       12.3344720823       -3.3310924615  CLST         274          1.0000000000
       822       274  TIP3  H2            3.6819667862       13.7398017850       -3.6062182317  CLST         274          1.0000000000
       823       275  TIP3  OH2           8.8077226557      -11.1174467307        5.9571094981  CLST         275          1.0000000000
       824       275  TIP3  H1            9.3985291022      -10.3584472189        5.9985675643  CLST         275          1.0000000000
       825       275  TIP3  H2            9.3302433021      -11.7985980253        5.5756476463  CLST         275          1.0000000000
       826       276  TIP3  OH2          -0.2019564958       -5.9705612287        1.4573800082  CLST         276          1.0000000000
       827       276  TIP3  H1           -0.6803074299       -5.9711509032        0.6328000066  CLST         276          1.0000000000
       828       276  TIP3  H2           -0.7014429405       -5.3266300622        1.9715399796  CLST         276          1.0000000000
       829       277  TIP3  OH2           6.5156564471        6.4257634492       -6.9045082265  CLST         277          1.0000000000
       830       277  TIP3  H1            5.6855700576        6.0632836361       -7.1904399141  CLST         277          1.0000000000
       831       277  TIP3  H2            6.5641493514        7.2496646616       -7.3185946774  CLST         277          1.0000000000
       832       278  TIP3  OH2          -0.6900936071       -7.4948459796        3.4790090242  CLST         278          1.0000000000
       833       278  TIP3  H1           -0.3919927700       -6.9108534924        2.7592635816  CLST         278          1.0000000000
       834       278  TIP3  H2           -0.9857329407       -6.8190576619        4.1465833031  CLST         278          1.0000000000
       835       279  TIP3  OH2         -13.6075834213        6.5244475994        0.3748690583  CLST         279          1.0000000000
       836       279  TIP3  H1          -13.6064589404        5.5704323233        0.0760461077  CLST         279          1.0000000000
       837       279  TIP3  H2          -12.6736097082        6.5496388217        0.6505162010  CLST         279          1.0000000000
       838       280  TIP3  OH2          -3.3153588052      -10.0659715823        5.4662781622  CLST         280          1.0000000000
       839       280  TIP3  H1           -3.4424036410       -9.2712278237        5.9890772845  CLST         280          1.0000000000
       840       280  TIP3  H2           -3.6392041750       -9.6250561776        4.6666926585  CLST         280          1.0000000000
       841       281  TIP3  OH2           8.1351296334        7.7911271348      -10.6253323311  CLST         281          1.0000000000
       842       281  TIP3  H1            8.5102842171        8.7069889318      -10.6207314083  CLST         281          1.0000000000
       843       281  TIP3  H2            7.1868506087        7.9575154944      -10.6359496768  CLST         281          1.0000000000
       844       282  TIP3  OH2          -7.7436610336      -11.8739999829        9.9623157200  CLST         282          1.0000000000
       845       282  TIP3  H1           -8.3763242325      -11.4160887977        9.4215050059  CLST         282          1.0000000000
       846       282  TIP3  H2           -7.2599951193      -12.4142713881        9.3114608232  CLST         282          1.0000000000
       847       283  TIP3  OH2           4.5022706235        8.5980926440       -4.6998777763  CLST         283          1.0000000000
       848       283  TIP3  H1            4.6805103919        9.5573500530       -4.9082291503  CLST         283          1.0000000000
       849       283  TIP3  H2            3.8323076125        8.7394923637       -4.0114815927  CLST         283          1.0000000000
       850       284  TIP3  OH2          11.9183527626        8.3416322922       -1.4157687867  CLST         284          1.0000000000
       851       284  TIP3  H1           11.5769425654        7.6467475890       -1.9843672762  CLST         284          1.0000000000
       852       284  TIP3  H2           11.1512136849        8.8928351329       -1.5336161840  CLST         284          1.0000000000
       853       285  TIP3  OH2          -5.3155769137        1.8875863975        8.8955052968  CLST         285          1.0000000000
       854       285  TIP3  H1           -4.6542938143        1.6787000252        8.2156732930  CLST         285          1.0000000000
       855       285  TIP3  H2           -4.7671303349        2.6240217650        9.2169294968  CLST         285          1.0000000000
       856       286  TIP3  OH2           2.8930326274        5.7894884243       -0.5678929062  CLST         286          1.0000000000
       857       286  TIP3  H1            2.0587399032        5.4768288064       -0.2302009857  CLST         286          1.0000000000
       858       286  TIP3  H2            3.4150055675        5.4988792672        0.2521357134  CLST         286          1.0000000000
       859       287  TIP3  OH2          -4.3151068340        9.2582272560       11.1576395379  CLST         287          1.0000000000
       860       287  TIP3  H1           -4.6365683996       10.0069615725       11.6664839793  CLST         287          1.0000000000
       861       287  TIP3  H2           -5.1736333133        8.9117199676       10.8876716214  CLST         287          1.0000000000
       862       288  TIP3  OH2           5.6251552496        3.4473722264       -9.4883834360  CLST         288          1.0000000000
       863       288  TIP3  H1            5.5988681119        2.7827886069      -10.1610151329  CLST         288          1.0000000000
       864       288  TIP3  H2            6.3400062558        3.9997394914       -9.8894125370  CLST         288          1.0000000000
       865       289  TIP3  OH2          -7.0484966719       -5.0522543275       -8.2157550464  CLST         289          1.0000000000
       866       289  TIP3  H1           -7.8297151018       -4.4709488967       -8.2071311339  CLST         289          1.0000000000
       867       289  TIP3  H2           -6.3826266570       -4.4743934930       -7.9159475656  CLST         289          1.0000000000
       868       290  TIP3  OH2           2.1972535543      -12.0353665294       11.2590369680  CLST         290          1.0000000000
       869       290  TIP3  H1            2.7569030907      -12.7659872215       11.4329568089  CLST         290          1.0000000000
       870       290  TIP3  H2            2.5005619373      -11.4519832301       11.9265210712  CLST         290          1.0000000000
       871       291  TIP3  OH2         -10.2915769401       -3.5431013759        2.8705739708  CLST         291          1.0000000000
       872       291  TIP3  H1          -10.9231931122       -4.0902657939        3.3750778325  CLST         291          1.0000000000
       873       291  TIP3  H2          -10.6341888900       -3.7728139732        2.0188291400  CLST         291          1.0000000000
       874       292  TIP3  OH2          12.1125447282        3.4573744153       -4.6620956495  CLST         292          1.0000000000
       875       292  TIP3  H1           11.2504793322        3.0597176347       -4.7325832390  CLST         292          1.0000000000
       876       292  TIP3  H2           11.9078713416        4.2450911563       -5.2286150091  CLST         292          1.0000000000
       877       293  TIP3  OH2           9.0576868240       10.5845991423       11.1770337406  CLST         293          1.0000000000
       878       293  TIP3  H1            8.5937790365       11.3022708477       11.5677113125  CLST         293          1.0000000000
       879       293  TIP3  H2            9.2243660460       11.0495452149       10.3372968474  CLST         293          1.0000000000
       880       294  TIP3  OH2           4.1119598622        4.5749726630       -2.5107282143  CLST         294          1.0000000000
       881       294  TIP3  H1            3.5816226822        5.1063622380       -1.8765832966  CLST         294          1.0000000000
       882       294  TIP3  H2            4.4707241979        5.1584958826       -3.1731503313  CLST         294          1.0000000000
       883       295  TIP3  OH2          -2.3760201751      -13.4568380863       -8.7040662302  CLST         295          1.0000000000
       884       295  TIP3  H1           -3.1114783049      -13.5841307629       -8.0655323921  CLST         295          1.0000000000
       885       295  TIP3  H2           -1.7061951881      -13.5180535621       -7.9995352561  CLST         295          1.0000000000
       886       296  TIP3  OH2          -1.5667914987       11.5293061519      -13.0171563901  CLST         296          1.0000000000
       887       296  TIP3  H1           -0.6089861509       11.4746684358      -13.1613909022  CLST         296          1.0000000000
       888       296  TIP3  H2           -1.5708308845       11.2476543833      -12.1071560712  CLST         296          1.0000000000
       889       297  TIP3  OH2           8.0939111182       -0.4535954053       11.3273169007  CLST         297          1.0000000000
       890       297  TIP3  H1            8.6879220451       -1.1839930506       11.1179600216  CLST         297          1.0000000000
       891       297  TIP3  H2            7.2976664653       -0.9882277002       11.5196940655  CLST         297          1.0000000000
       892       298  TIP3  OH2           1.0164692531       -1.3460555774       -7.4513288999  CLST         298          1.0000000000
       893       298  TIP3  H1            1.4356300008       -0.6507678658       -8.0452178830  CLST         298          1.0000000000
       894       298  TIP3  H2            0.9434702315       -2.0431728692       -8.2085849240  CLST         298          1.0000000000
       895       299  TIP3  OH2           2.9706400666       10.2312109694       12.7308329475  CLST         299          1.0000000000
       896       299  TIP3  H1            2.2424676828       10.7090205119       12.3215996663  CLST         299          1.0000000000
       897       299  TIP3  H2            2.4910937968        9.4548356921       12.8496471402  CLST         299          1.0000000000
       898       300  TIP3  OH2         -10.8217405005        5.1820684013       -3.6768745250  CLST         300          1.0000000000
       899       300  TIP3  H1          -10.9559382053        5.5315665524       -4.5785405973  CLST         300          1.0000000000
       900       300  TIP3  H2          -10.7943141811        6.0912972128       -3.2395453608  CLST         300          1.0000000000
       901       301  TIP3  OH2           9.6430635486       -8.2328366225       11.3602827796  CLST         301          1.0000000000
       902       301  TIP3  H1            9.3646006505       -7.8581953313       12.1855927368  CLST         301          1.0000000000
       903       301  TIP3  H2            9.4947292982       -9.1845841854       11.6013748827  CLST         301          1.0000000000
       904       302  TIP3  OH2           7.7852539315       12.7839317409        5.3884764327  CLST         302          1.0000000000
       905       302  TIP3  H1            7.1157450526       13.4042424670        5.0997922331  CLST         302          1.0000000000
       906       302  TIP3  H2            7.1058548539       12.1912862302        5.7163961815  CLST         302          1.0000000000
       907       303  TIP3  OH2         -10.8876687316        1.3551481492       -2.0068173086  CLST         303          1.0000000000
       908       303  TIP3  H1          -10.0392414880        1.0092432485       -1.6292221290  CLST         303          1.0000000000
       909       303  TIP3  H2          -10.9687179106        0.7890561346       -2.8195001927  CLST         303          1.0000000000
       910       304  TIP3  OH2          -8.0008533937        1.2005962221      -14.9941789657  CLST         304          1.0000000000
       911       304  TIP3  H1           -7.6579452172        0.3705186191      -14.5931745714  CLST         304          1.0000000000
       912       304  TIP3  H2           -7.5708643599        1.2558917527      -15.8403966621  CLST         304          1.0000000000
       913       305  TIP3  OH2           3.4546985897       -3.8563170453       13.8951660478  CLST         305          1.0000000000
       914       305  TIP3  H1            4.2888831813       -3.9154148367       13.4445883639  CLST         305          1.0000000000
       915       305  TIP3  H2            3.4970291887       -2.9407965427       14.1250060294  CLST         305          1.0000000000
       916       306  TIP3  OH2           8.8340979495      -11.9615083955      -11.2078431770  CLST         306          1.0000000000
       917       306  TIP3  H1            9.3519128295      -12.0012003215      -12.0030066260  CLST         306          1.0000000000
       918       306  TIP3  H2            9.1293690442      -12.7173673713      -10.7535576587  CLST         306          1.0000000000
       919       307  TIP3  OH2           9.1945741542        7.8693200175       -7.6205788318  CLST         307          1.0000000000
       920       307  TIP3  H1            8.2745402843        8.1956702428       -7.6215581897  CLST         307          1.0000000000
       921       307  TIP3  H2            9.4673446970        8.2483333539       -6.7933910613  CLST         307          1.0000000000
       922       308  TIP3  OH2         -10.8362541633       -4.8173050126        8.7902107618  CLST         308          1.0000000000
       923       308  TIP3  H1          -10.9311545443       -5.4064399809        9.5811770073  CLST         308          1.0000000000
       924       308  TIP3  H2           -9.9655086559       -4.4819164790        9.0848177821  CLST         308          1.0000000000
       925       309  TIP3  OH2          -1.9814274236       -0.5182704842        5.5335788378  CLST         309          1.0000000000
       926       309  TIP3  H1           -2.7734011970       -0.7302619882        5.0653804663  CLST         309          1.0000000000
       927       309  TIP3  H2           -2.1690914093       -0.9963561440        6.3236704474  CLST         309          1.0000000000
       928       310  TIP3  OH2          -4.9992880450       -0.5640139321        7.2966727531  CLST         310          1.0000000000
       929       310  TIP3  H1           -4.1828547667       -0.1614599093        7.5541484957  CLST         310          1.0000000000
       930       310  TIP3  H2           -5.0517061726       -1.1935561203        8.0562160703  CLST         310          1.0000000000
       931       311  TIP3  OH2          -7.2141199883        8.3614297357      -12.2641521998  CLST         311          1.0000000000
       932       311  TIP3  H1           -6.7797590679        7.6123697259      -12.7357291923  CLST         311          1.0000000000
       933       311  TIP3  H2           -7.2373076785        8.0424344046      -11.3941216082  CLST         311          1.0000000000
       934       312  TIP3  OH2           6.4885108525       -0.9119243089       -6.2663474852  CLST         312          1.0000000000
       935       312  TIP3  H1            6.0795373578       -0.1392814095       -5.8426377393  CLST         312          1.0000000000
       936       312  TIP3  H2            6.3356101794       -1.5542473470       -5.5667434202  CLST         312          1.0000000000
       937       313  TIP3  OH2          -8.8956128306      -10.7425142537        7.0511659352  CLST         313          1.0000000000
       938       313  TIP3  H1           -8.4178909361       -9.9237961542        7.0612734357  CLST         313          1.0000000000
       939       313  TIP3  H2           -9.3416626801      -10.5982944966        6.1934947470  CLST         313          1.0000000000
       940       314  TIP3  OH2          -1.5337097905      -12.1261604982      -10.7936606814  CLST         314          1.0000000000
       941       314  TIP3  H1           -1.2919017704      -11.3892633601      -10.2111434700  CLST         314          1.0000000000
       942       314  TIP3  H2           -1.9760387194      -12.6959077851      -10.1321300587  CLST         314          1.0000000000
       943       315  TIP3  OH2          -1.4300970613       -0.6556213811       -6.3711430038  CLST         315          1.0000000000
       944       315  TIP3  H1           -0.5654414991       -1.0666999983       -6.5575054703  CLST         315          1.0000000000
       945       315  TIP3  H2           -1.2094658442       -0.3254098301       -5.4784544629  CLST         315          1.0000000000
       946       316  TIP3  OH2         -13.3522917705       -3.8502160560       -5.4349250159  CLST         316          1.0000000000
       947       316  TIP3  H1          -12.5989848988       -4.3870308889       -5.6131239729  CLST         316          1.0000000000
       948       316  TIP3  H2          -12.9668706343       -3.0493535495       -5.7178682140  CLST         316          1.0000000000
       949       317  TIP3  OH2          -6.1203070628       -0.1005829145       -3.7732704833  CLST         317          1.0000000000
       950       317  TIP3  H1           -5.2357177927       -0.0701051031       -3.3606250995  CLST         317          1.0000000000
       951       317  TIP3  H2           -6.5174905717        0.4387899181       -3.1032661664  CLST         317          1.0000000000
       952       318  TIP3  OH2          -3.9681000703       -9.5971146296       -9.4013546888  CLST         318          1.0000000000
       953       318  TIP3  H1           -4.2237741272       -9.6699538166       -8.4247856548  CLST         318          1.0000000000
       954       318  TIP3  H2           -3.0113558250       -9.6986061834       -9.2177037252  CLST         318          1.0000000000
       955       319  TIP3  OH2           5.6300660722       10.8295794924        8.7006605488  CLST         319          1.0000000000
       956       319  TIP3  H1            6.2035447550       10.1593227347        8.3262341490  CLST         319          1.0000000000
       957       319  TIP3  H2            6.2391811700       11.1195561239        9.3622584251  CLST         319          1.0000000000
       958       320  TIP3  OH2         -10.5978079182        1.0551220748      -14.5752704690  CLST         320          1.0000000000
       959       320  TIP3  H1           -9.7674955934        1.2428904554      -14.9865026534  CLST         320          1.0000000000
       960       320  TIP3  H2          -10.3589427004        0.2172784856      -14.1230445028  CLST         320          1.0000000000
       961       321  TIP3  OH2          -9.9382116766       10.2441202580       -9.7341516051  CLST         321          1.0000000000
       962       321  TIP3  H1          -10.8146288361        9.9502102731       -9.7044935531  CLST         321          1.0000000000
       963       321  TIP3  H2           -9.8234163193       10.1425623563      -10.7207244106  CLST         321          1.0000000000
       964       322  TIP3  OH2         -12.7074336252       -1.6692307329       -2.4867446435  CLST         322          1.0000000000
       965       322  TIP3  H1          -12.2588939591       -1.1431704727       -3.1725731429  CLST         322          1.0000000000
       966       322  TIP3  H2          -11.9755661011       -1.9748267850       -1.9661745392  CLST         322          1.0000000000
       967       323  TIP3  OH2          -1.0450143390        4.0197782929        4.2256456823  CLST         323          1.0000000000
       968       323  TIP3  H1           -0.7592528190        3.1184843213        4.4916211879  CLST         323          1.0000000000
       969       323  TIP3  H2           -1.0423599266        3.8870108057        3.2625058606  CLST         323          1.0000000000
       970       324  TIP3  OH2         -11.0385376795        6.3474974087        1.4944429020  CLST         324          1.0000000000
       971       324  TIP3  H1          -10.9800137192        5.4882616307        1.9194125494  CLST         324          1.0000000000
       972       324  TIP3  H2          -10.3299345293        6.7868560578        2.0985450249  CLST         324          1.0000000000
       973       325  TIP3  OH2          -4.5651267816        0.8748391330        3.6308392253  CLST         325          1.0000000000
       974       325  TIP3  H1           -5.5378951956        0.9088884812        3.5817025159  CLST         325          1.0000000000
       975       325  TIP3  H2           -4.3582949330        1.6932056331        3.1947800564  CLST         325          1.0000000000
       976       326  TIP3  OH2           9.1085209748        8.6672206948       -2.7047237067  CLST         326          1.0000000000
       977       326  TIP3  H1            8.8593365443        7.7384167941       -2.4730789367  CLST         326          1.0000000000
       978       326  TIP3  H2            8.4911933603        8.7143019103       -3.4469628096  CLST         326          1.0000000000
       979       327  TIP3  OH2          10.3996988545       -3.6735758855      -13.0935361895  CLST         327          1.0000000000
       980       327  TIP3  H1           10.1773779336       -3.2045712776      -13.8291854133  CLST         327          1.0000000000
       981       327  TIP3  H2           10.0474993280       -3.0867842049      -12.3446627581  CLST         327          1.0000000000
       982       328  TIP3  OH2           2.2227573306        6.9303084090       -9.7689565478  CLST         328          1.0000000000
       983       328  TIP3  H1            2.2482311845        6.0920849454       -9.3160123351  CLST         328          1.0000000000
       984       328  TIP3  H2            3.1135268722        7.0564490590      -10.0164462504  CLST         328          1.0000000000
       985       329  TIP3  OH2           1.4152013172      -11.6830256894       -2.2728604562  CLST         329          1.0000000000
       986       329  TIP3  H1            1.5331541988      -10.8177071139       -2.7218866258  CLST         329          1.0000000000
       987       329  TIP3  H2            2.2732980999      -11.6779804903       -1.8285129609  CLST         329          1.0000000000
       988       330  TIP3  OH2          -9.4063134780       -0.9706931517        3.4171210604  CLST         330          1.0000000000
       989       330  TIP3  H1           -9.7176942864       -1.8990572033        3.3115016288  CLST         330          1.0000000000
       990       330  TIP3  H2          -10.1131060213       -0.5908880818        3.9579454603  CLST         330          1.0000000000
       991       331  TIP3  OH2          12.3671399430        9.7152221873       -9.0963610695  CLST         331          1.0000000000
       992       331  TIP3  H1           13.0957420707        9.8559465661       -9.6378718283  CLST         331          1.0000000000
       993       331  TIP3  H2           12.4255624751        8.7715624758       -8.9218823814  CLST         331          1.0000000000
       994       332  TIP3  OH2          11.2910069657       -1.3230925909       -4.5197452821  CLST         332          1.0000000000
       995       332  TIP3  H1           12.0924013857       -1.5713859773       -5.0064354056  CLST         332          1.0000000000
       996       332  TIP3  H2           11.6456400160       -0.5225689880       -4.1888539061  CLST         332          1.0000000000
       997       333  TIP3  OH2          10.5403065718      -14.2330602927        8.0048646887  CLST         333          1.0000000000
       998       333  TIP3  H1            9.6625589201      -14.2775494483        8.2448814878  CLST         333          1.0000000000
       999       333  TIP3  H2           10.5614571081      -14.2884260528        7.0819108929  CLST         333          1.0000000000
      1000       334  TIP3  OH2         -10.6052593381       -9.6964554035        9.1430370888  CLST         334          1.0000000000
      1001       334  TIP3  H1          -11.4869320022       -9.7940581076        8.7776436214  CLST         334          1.0000000000
      1002       334  TIP3  H2          -10.2032453589      -10.2147225732        8.4608891165  CLST         334          1.0000000000
      1003       335  TIP3  OH2           6.7882979977      -10.0745592828        1.4754940615  CLST         335          1.0000000000
      1004       335  TIP3  H1            6.8120147859      -10.3940247311        2.3703421066  CLST         335          1.0000000000
      1005       335  TIP3  H2            5.8263647866       -9.8619994281        1.3905756591  CLST         335          1.0000000000
      1006       336  TIP3  OH2          -9.3373964855       -3.7559506943       -3.6693114814  CLST         336          1.0000000000
      1007       336  TIP3  H1           -8.8869919763       -4.4201587024       -4.1487603086  CLST         336          1.0000000000
      1008       336  TIP3  H2           -8.7911628897       -3.0417339343       -3.9053792956  CLST         336          1.0000000000
      1009       337  TIP3  OH2          -1.5440092320       -4.9780992453        8.0324499785  CLST         337          1.0000000000
      1010       337  TIP3  H1           -1.0610159721       -4.8353129773        8.8577009472  CLST         337          1.0000000000
      1011       337  TIP3  H2           -1.8129667664       -4.0207372555        7.9621769152  CLST         337          1.0000000000
      1012       338  TIP3  OH2          -0.4540321550        2.7216999919       10.7334205739  CLST         338          1.0000000000
      1013       338  TIP3  H1           -0.5420673164        2.7478496008        9.7674627516  CLST         338          1.0000000000
      1014       338  TIP3  H2           -0.1302855119        1.8321119152       10.8165496485  CLST         338          1.0000000000
      1015       339  TIP3  OH2           7.9514296085        7.9392747800        2.8470852806  CLST         339          1.0000000000
      1016       339  TIP3  H1            7.6297802699        8.6772231412        3.4216268780  CLST         339          1.0000000000
      1017       339  TIP3  H2            7.2628687009        7.9565376552        2.1583573262  CLST         339          1.0000000000
      1018       340  TIP3  OH2          -4.6327903908      -11.7245151426      -11.1657908861  CLST         340          1.0000000000
      1019       340  TIP3  H1           -4.3396057734      -10.9675245376      -10.6524192697  CLST         340          1.0000000000
      1020       340  TIP3  H2           -4.2267546568      -12.4538237742      -10.7122768045  CLST         340          1.0000000000
      1021       341  TIP3  OH2          -6.7305084368        4.6010935215        9.3448495048  CLST         341          1.0000000000
      1022       341  TIP3  H1           -5.7913935601        4.4062655353        9.4525645363  CLST         341          1.0000000000
      1023       341  TIP3  H2           -7.2051893921        3.9275448183        9.7788506736  CLST         341          1.0000000000
      1024       342  TIP3  OH2          -4.4696657390      -11.0084206449       13.9612014164  CLST         342          1.0000000000
      1025       342  TIP3  H1           -5.1926483322      -10.9900118636       13.3594701788  CLST         342          1.0000000000
      1026       342  TIP3  H2           -4.9410892473      -10.7257151979       14.7214656257  CLST         342          1.0000000000
      1027       343  TIP3  OH2           1.3635436475       -8.9424490227       -9.9124497665  CLST         343          1.0000000000
      1028       343  TIP3  H1            1.2058821228       -8.0261310473      -10.3215146609  CLST         343          1.0000000000
      1029       343  TIP3  H2            1.9135552796       -9.3223120956      -10.5967738049  CLST         343          1.0000000000
      1030       344  TIP3  OH2           5.5069136668       -3.9872470885        6.4006403104  CLST         344          1.0000000000
      1031       344  TIP3  H1            4.8339281021       -4.5014042370        6.8316465618  CLST         344          1.0000000000
      1032       344  TIP3  H2            6.1037111201       -4.6847977492        6.1163475465  CLST         344          1.0000000000
      1033       345  TIP3  OH2          13.1679171272        7.2857320316        8.8293735051  CLST         345          1.0000000000
      1034       345  TIP3  H1           12.5737565108        6.7869280143        8.2999856733  CLST         345          1.0000000000
      1035       345  TIP3  H2           12.5801203064        7.3395944210        9.6159715367  CLST         345          1.0000000000
      1036       346  TIP3  OH2           9.4276053494        9.1961738572        0.9184554755  CLST         346          1.0000000000
      1037       346  TIP3  H1            9.7567765898        9.9809190214        1.4173071143  CLST         346          1.0000000000
      1038       346  TIP3  H2            9.1001812348        8.6839839625        1.6568331776  CLST         346          1.0000000000
      1039       347  TIP3  OH2          -4.9115720911        2.8555489812       -9.6336843160  CLST         347          1.0000000000
      1040       347  TIP3  H1           -5.6289298650        3.3272728627       -9.2058267251  CLST         347          1.0000000000
      1041       347  TIP3  H2           -4.3173708136        2.9147037882       -8.8728713681  CLST         347          1.0000000000
      1042       348  TIP3  OH2          -1.2447175684        6.1427398865        5.8335026360  CLST         348          1.0000000000
      1043       348  TIP3  H1           -1.3665026165        5.2821596665        5.3477149531  CLST         348          1.0000000000
      1044       348  TIP3  H2           -0.9083128885        6.5429086709        5.0283470438  CLST         348          1.0000000000
      1045       349  TIP3  OH2          -4.0584356991        5.0176596001       -2.5783220872  CLST         349          1.0000000000
      1046       349  TIP3  H1           -3.8288360702        4.9482403189       -3.5083506221  CLST         349          1.0000000000
      1047       349  TIP3  H2           -3.4412297028        5.7568009263       -2.4225525921  CLST         349          1.0000000000
      1048       350  TIP3  OH2          -2.5832235660        8.8307358382        5.2917881153  CLST         350          1.0000000000
      1049       350  TIP3  H1           -3.1260176195        8.6221417375        4.5418622897  CLST         350          1.0000000000
      1050       350  TIP3  H2           -2.5471305904        8.0566609905        5.7751302699  CLST         350          1.0000000000
      1051       351  TIP3  OH2           4.8565921834       -7.5897166102       -7.6897119890  CLST         351          1.0000000000
      1052       351  TIP3  H1            4.1291572966       -8.1720680597       -7.5960709715  CLST         351          1.0000000000
      1053       351  TIP3  H2            4.8326711041       -7.3546055246       -8.6663760854  CLST         351          1.0000000000
      1054       352  TIP3  OH2         -10.3817271915      -10.9986950645        1.6548007722  CLST         352          1.0000000000
      1055       352  TIP3  H1           -9.4005936064      -11.0557941555        1.6147732783  CLST         352          1.0000000000
      1056       352  TIP3  H2          -10.5464284852      -10.3085951734        0.9957841512  CLST         352          1.0000000000
      1057       353  TIP3  OH2          10.8479509925       -8.1146662922       -8.6099302431  CLST         353          1.0000000000
      1058       353  TIP3  H1            9.9252152226       -8.2430849263       -8.7331725543  CLST         353          1.0000000000
      1059       353  TIP3  H2           11.0970906236       -8.5743980751       -7.8399073290  CLST         353          1.0000000000
      1060       354  TIP3  OH2           6.8640566978      -10.5923215817        4.0544344605  CLST         354          1.0000000000
      1061       354  TIP3  H1            7.4689939387      -10.8658553549        4.7770375449  CLST         354          1.0000000000
      1062       354  TIP3  H2            6.5154474010       -9.7799811764        4.5337641746  CLST         354          1.0000000000
      1063       355  TIP3  OH2          -7.1897999929        9.0973784890       -8.7811071155  CLST         355          1.0000000000
      1064       355  TIP3  H1           -6.4287393023        9.5944880563       -8.9962249409  CLST         355          1.0000000000
      1065       355  TIP3  H2           -7.8750798416        9.6358369758       -9.1921825500  CLST         355          1.0000000000
      1066       356  TIP3  OH2          12.4786923763        0.9899633408       -2.0024862500  CLST         356          1.0000000000
      1067       356  TIP3  H1           11.5696908647        0.7191851300       -2.1692429505  CLST         356          1.0000000000
      1068       356  TIP3  H2           12.6602780880        0.4404048310       -1.2353361494  CLST         356          1.0000000000
      1069       357  TIP3  OH2          -0.6403857558       -0.5402909523       -1.8262749139  CLST         357          1.0000000000
      1070       357  TIP3  H1            0.1214035639       -1.0470751639       -2.1492237388  CLST         357          1.0000000000
      1071       357  TIP3  H2           -0.8503790408       -0.2041277535       -2.7056725945  CLST         357          1.0000000000
      1072       358  TIP3  OH2          -5.5627770591        6.9951891723       -7.6282156025  CLST         358          1.0000000000
      1073       358  TIP3  H1           -6.2982529336        7.4186099843       -8.0701400535  CLST         358          1.0000000000
      1074       358  TIP3  H2           -6.1334162192        6.6462399677       -6.9418027823  CLST         358          1.0000000000
      1075       359  TIP3  OH2          -5.1251790378       12.1297002538        6.0963363401  CLST         359          1.0000000000
      1076       359  TIP3  H1           -5.4463275271       11.8930147451        5.2372059517  CLST         359          1.0000000000
      1077       359  TIP3  H2           -4.2062974468       12.3564270618        5.8582184197  CLST         359          1.0000000000
      1078       360  TIP3  OH2          -6.9081264639        5.8460346045       -3.2980524762  CLST         360          1.0000000000
      1079       360  TIP3  H1           -7.1349176715        6.6849076722       -2.9006286688  CLST         360          1.0000000000
      1080       360  TIP3  H2           -6.0345310936        5.7285905389       -2.9308770939  CLST         360          1.0000000000
      1081       361  TIP3  OH2          -1.6204645719       -0.9606733516        9.9024066677  CLST         361          1.0000000000
      1082       361  TIP3  H1           -1.5746179770       -0.4769831167       10.7650645080  CLST         361          1.0000000000
      1083       361  TIP3  H2           -1.6994786168       -1.8454414061       10.3205648473  CLST         361          1.0000000000
      1084       362  TIP3  OH2         -10.5797927352        2.7929226526        0.4729304156  CLST         362          1.0000000000
      1085       362  TIP3  H1          -10.6647301392        3.2682274807       -0.3457218173  CLST         362          1.0000000000
      1086       362  TIP3  H2          -11.3061231059        2.1591614363        0.3767441219  CLST         362          1.0000000000
      1087       363  TIP3  OH2          10.5678736578        2.6597810182       10.1617063997  CLST         363          1.0000000000
      1088       363  TIP3  H1           10.5970502404        1.7768386756        9.7672037630  CLST         363          1.0000000000
      1089       363  TIP3  H2           11.3472777369        2.6757298882       10.6897622227  CLST         363          1.0000000000
      1090       364  TIP3  OH2           7.6139994885       -5.6139183652       -6.2343775082  CLST         364          1.0000000000
      1091       364  TIP3  H1            6.8931099091       -5.2009962090       -6.7315637070  CLST         364          1.0000000000
      1092       364  TIP3  H2            8.2143814609       -5.5985421904       -7.0164702909  CLST         364          1.0000000000
      1093       365  TIP3  OH2          -6.1655484606       -6.7861958766        2.6840679327  CLST         365          1.0000000000
      1094       365  TIP3  H1           -6.4917445049       -6.0791766982        2.1302587140  CLST         365          1.0000000000
      1095       365  TIP3  H2           -6.9825250645       -7.3206102781        2.7523121019  CLST         365          1.0000000000
      1096       366  TIP3  OH2           1.9245975699       -1.4173013333       -2.9651131443  CLST         366          1.0000000000
      1097       366  TIP3  H1            2.8626811737       -1.4507759089       -2.6022392566  CLST         366          1.0000000000
      1098       366  TIP3  H2            2.0409725368       -0.9578011069       -3.8216806513  CLST         366          1.0000000000
      1099       367  TIP3  OH2          -5.2226526817       11.7260477158       12.3884168881  CLST         367          1.0000000000
      1100       367  TIP3  H1           -6.1735920539       11.6667563566       12.3239501100  CLST         367          1.0000000000
      1101       367  TIP3  H2           -5.0273089523       12.5243963637       12.8012757372  CLST         367          1.0000000000
      1102       368  TIP3  OH2          -2.5921624442        6.5490052050        1.0705782325  CLST         368          1.0000000000
      1103       368  TIP3  H1           -2.7933180153        7.2480753718        0.4416732038  CLST         368          1.0000000000
      1104       368  TIP3  H2           -2.6999988790        7.1583539699        1.7989019526  CLST         368          1.0000000000
      1105       369  TIP3  OH2         -11.5366063371       -1.7861955050       -6.4890733767  CLST         369          1.0000000000
      1106       369  TIP3  H1          -10.6475887837       -2.0421234308       -6.4067343244  CLST         369          1.0000000000
      1107       369  TIP3  H2          -11.7516756007       -2.2126322947       -7.3383773118  CLST         369          1.0000000000
      1108       370  TIP3  OH2         -12.0786713416        5.5684396537      -11.6250934722  CLST         370          1.0000000000
      1109       370  TIP3  H1          -12.4625365801        5.0084944506      -12.2868507810  CLST         370          1.0000000000
      1110       370  TIP3  H2          -12.6990217280        5.6610044132      -10.9631977131  CLST         370          1.0000000000
      1111       371  TIP3  OH2           2.1848993068        7.9629461925        5.8437067548  CLST         371          1.0000000000
      1112       371  TIP3  H1            2.0371971031        7.6093209111        6.7313205470  CLST         371          1.0000000000
      1113       371  TIP3  H2            3.1360540578        7.9112136324        5.7915468529  CLST         371          1.0000000000
      1114       372  TIP3  OH2           8.1242943697       -7.3935359703        9.0313952682  CLST         372          1.0000000000
      1115       372  TIP3  H1            8.6328381323       -7.3564196498        8.2250754849  CLST         372          1.0000000000
      1116       372  TIP3  H2            8.8396504714       -7.6652547895        9.6424500802  CLST         372          1.0000000000
      1117       373  TIP3  OH2          11.0270326317       -0.4384852780        6.4495612056  CLST         373          1.0000000000
      1118       373  TIP3  H1           11.2112280400        0.3276935240        5.9258885727  CLST         373          1.0000000000
      1119       373  TIP3  H2           10.2789510127       -0.8446339758        6.0707115752  CLST         373          1.0000000000
      1120       374  TIP3  OH2          -9.3948292428        4.7506703226      -12.2124600287  CLST         374          1.0000000000
      1121       374  TIP3  H1           -9.6683782365        5.2713555985      -12.9211940988  CLST         374          1.0000000000
      1122       374  TIP3  H2          -10.1884475183        4.8143321386      -11.7090493937  CLST         374          1.0000000000
      1123       375  TIP3  OH2           9.8148923016       -5.4345673489       -2.7868798696  CLST         375          1.0000000000
      1124       375  TIP3  H1           10.3540505584       -5.1125431216       -3.5493569560  CLST         375          1.0000000000
      1125       375  TIP3  H2            9.9025048620       -6.3918461620       -2.9705413165  CLST         375          1.0000000000
      1126       376  TIP3  OH2          -2.2068165941      -11.1584187332       12.0618149127  CLST         376          1.0000000000
      1127       376  TIP3  H1           -2.8226225315      -11.5552781755       12.7170694774  CLST         376          1.0000000000
      1128       376  TIP3  H2           -2.9169566308      -10.9216191371       11.4660207891  CLST         376          1.0000000000
      1129       377  TIP3  OH2         -10.0080820860       12.9635029064       10.4257291081  CLST         377          1.0000000000
      1130       377  TIP3  H1           -9.1789716854       12.4880826063       10.5318916496  CLST         377          1.0000000000
      1131       377  TIP3  H2           -9.8556530509       13.3676383824        9.5507693534  CLST         377          1.0000000000
      1132       378  TIP3  OH2           2.0810787426       -7.9435980704        7.2665365476  CLST         378          1.0000000000
      1133       378  TIP3  H1            2.1220544243       -7.0832226307        7.6486526697  CLST         378          1.0000000000
      1134       378  TIP3  H2            1.4664947024       -8.4115031921        7.8206197270  CLST         378          1.0000000000
      1135       379  TIP3  OH2          -9.4161928345        9.3373279253       -1.1400789438  CLST         379          1.0000000000
      1136       379  TIP3  H1           -8.9979618605        9.3670714424       -0.2869454294  CLST         379          1.0000000000
      1137       379  TIP3  H2           -9.5339548268       10.2667860681       -1.3552242846  CLST         379          1.0000000000
      1138       380  TIP3  OH2           2.9648597396       -4.1936835705      -11.2335843435  CLST         380          1.0000000000
      1139       380  TIP3  H1            2.5384342777       -3.3988125103      -11.6453102296  CLST         380          1.0000000000
      1140       380  TIP3  H2            3.4507432086       -4.5101198537      -12.0069637874  CLST         380          1.0000000000
      1141       381  TIP3  OH2          10.0723826459        4.1644111574        3.3302998051  CLST         381          1.0000000000
      1142       381  TIP3  H1            9.4744974861        4.8307095853        3.7504036830  CLST         381          1.0000000000
      1143       381  TIP3  H2           10.7059065349        4.8598769914        3.1291130684  CLST         381          1.0000000000
      1144       382  TIP3  OH2           1.9829260777       -5.3738835790        5.6586523495  CLST         382          1.0000000000
      1145       382  TIP3  H1            2.5804559554       -5.3663557066        6.3969241044  CLST         382          1.0000000000
      1146       382  TIP3  H2            2.4953697851       -6.0086819987        5.1217918673  CLST         382          1.0000000000
      1147       383  TIP3  OH2          10.1726686676        8.9107462834        4.7394891059  CLST         383          1.0000000000
      1148       383  TIP3  H1            9.3571029642        9.0420282430        4.2255271021  CLST         383          1.0000000000
      1149       383  TIP3  H2           10.1756860277        9.8652538045        4.9642348211  CLST         383          1.0000000000
      1150       384  TIP3  OH2          -3.2569198188       -1.7223354245       -8.2784986231  CLST         384          1.0000000000
      1151       384  TIP3  H1           -2.8615821547       -2.6025399466       -8.2928544922  CLST         384          1.0000000000
      1152       384  TIP3  H2           -2.7454837896       -1.2761966000       -7.5711798791  CLST         384          1.0000000000
      1153       385  TIP3  OH2           3.7180816181      -11.7696337333       -0.6829010702  CLST         385          1.0000000000
      1154       385  TIP3  H1            4.6557383216      -12.1142942234       -0.5847063506  CLST         385          1.0000000000
      1155       385  TIP3  H2            3.8699181740      -10.9074620452       -0.1995367366  CLST         385          1.0000000000
      1156       386  TIP3  OH2          -4.2632404603        9.3267652053       -6.1499188097  CLST         386          1.0000000000
      1157       386  TIP3  H1           -4.6938814294        8.5186306707       -6.4002748348  CLST         386          1.0000000000
      1158       386  TIP3  H2           -4.3015054107        9.7769324980       -6.9893745624  CLST         386          1.0000000000
      1159       387  TIP3  OH2          -9.7981262434       10.6231006124        2.7645704600  CLST         387          1.0000000000
      1160       387  TIP3  H1          -10.6242290106       10.3702874100        2.2479504830  CLST         387          1.0000000000
      1161       387  TIP3  H2           -9.1731368175       10.3123499120        2.0762070978  CLST         387          1.0000000000
      1162       388  TIP3  OH2          -1.7682526724      -12.2848976705        5.9853921504  CLST         388          1.0000000000
      1163       388  TIP3  H1           -2.3400899025      -11.5603775087        5.7093394324  CLST         388          1.0000000000
      1164       388  TIP3  H2           -1.7482515869      -12.1616110932        6.9405717483  CLST         388          1.0000000000
      1165       389  TIP3  OH2          -8.1456593953        3.3572793018       -3.6479615174  CLST         389          1.0000000000
      1166       389  TIP3  H1           -7.6224678584        4.1501834440       -3.5424667016  CLST         389          1.0000000000
      1167       389  TIP3  H2           -8.9076555588        3.8068137907       -3.2623665602  CLST         389          1.0000000000
      1168       390  TIP3  OH2          -5.8609865102       -3.9789490572        4.5456060231  CLST         390          1.0000000000
      1169       390  TIP3  H1           -5.4857833753       -3.0958545595        4.4655867791  CLST         390          1.0000000000
      1170       390  TIP3  H2           -5.0661642826       -4.4052401734        4.3541913495  CLST         390          1.0000000000
      1171       391  TIP3  OH2          -8.8091037762       -8.8649486088       -6.1900643231  CLST         391          1.0000000000
      1172       391  TIP3  H1           -9.1520432247       -9.5868377315       -6.7488347365  CLST         391          1.0000000000
      1173       391  TIP3  H2           -8.0983774795       -9.3605621007       -5.7123508717  CLST         391          1.0000000000
      1174       392  TIP3  OH2           0.9534014590       -1.9200652061       10.0675416626  CLST         392          1.0000000000
      1175       392  TIP3  H1            0.5600012655       -2.7889413725        9.9646736141  CLST         392          1.0000000000
      1176       392  TIP3  H2            0.1105830899       -1.4609984031        9.8471704570  CLST         392          1.0000000000
      1177       393  TIP3  OH2          10.8910785002      -12.2906349074       -0.8262446325  CLST         393          1.0000000000
      1178       393  TIP3  H1           11.2086027292      -11.3764960663       -0.7036875656  CLST         393          1.0000000000
      1179       393  TIP3  H2           11.7028592864      -12.5932399412       -1.2006930859  CLST         393          1.0000000000
      1180       394  TIP3  OH2           0.5133814921       11.9151436229       -8.5520441475  CLST         394          1.0000000000
      1181       394  TIP3  H1            0.8817513536       12.1468249668       -7.6857782352  CLST         394          1.0000000000
      1182       394  TIP3  H2            0.7351781138       10.9775725366       -8.4736080130  CLST         394          1.0000000000
      1183       395  TIP3  OH2           6.8811417840        7.4966840242       -4.4662931687  CLST         395          1.0000000000
      1184       395  TIP3  H1            6.0765824087        8.0114680256       -4.6509807316  CLST         395          1.0000000000
      1185       395  TIP3  H2            6.7820036574        6.8812429551       -5.1941031550  CLST         395          1.0000000000
      1186       396  TIP3  OH2          -1.0283607348       -9.9848036561       -9.0345085599  CLST         396          1.0000000000
      1187       396  TIP3  H1           -1.0621888009       -9.9425792462       -7.9977940796  CLST         396          1.0000000000
      1188       396  TIP3  H2           -0.1753761517       -9.5758525801       -9.1454160628  CLST         396          1.0000000000
      1189       397  TIP3  OH2          11.3455274518        7.1457212126       -8.9171340250  CLST         397          1.0000000000
      1190       397  TIP3  H1           11.3409063907        6.3370396970       -8.3730912761  CLST         397          1.0000000000
      1191       397  TIP3  H2           10.5507858099        7.5933814629       -8.5688075544  CLST         397          1.0000000000
      1192       398  TIP3  OH2          10.6082031190        7.7761071909       -4.8920839581  CLST         398          1.0000000000
      1193       398  TIP3  H1           10.3894839531        8.4120830213       -4.2022545805  CLST         398          1.0000000000
      1194       398  TIP3  H2           11.2987473946        7.2709105150       -4.4044694354  CLST         398          1.0000000000
      1195       399  TIP3  OH2           1.7504140583       11.0594965065        4.9267125013  CLST         399          1.0000000000
      1196       399  TIP3  H1            1.2354379076       10.2966291973        5.1472011466  CLST         399          1.0000000000
      1197       399  TIP3  H2            2.3612509779       11.1624502836        5.6663937238  CLST         399          1.0000000000
      1198       400  TIP3  OH2           3.9764092740       -2.9332866178       -4.9949800096  CLST         400          1.0000000000
      1199       400  TIP3  H1            4.7455220541       -2.9064149111       -4.4036678874  CLST         400          1.0000000000
      1200       400  TIP3  H2            4.4075279576       -3.3941448360       -5.7385890403  CLST         400          1.0000000000
      1201       401  TIP3  OH2         -15.3698953677       10.0300583596        5.4923554167  CLST         401          1.0000000000
      1202       401  TIP3  H1          -14.7610155592       10.5331010929        6.0779248992  CLST         401          1.0000000000
      1203       401  TIP3  H2          -15.5442252335        9.4092308748        6.2218563903  CLST         401          1.0000000000
      1204       402  TIP3  OH2           1.9183306004       -1.6347203655       12.8723318506  CLST         402          1.0000000000
      1205       402  TIP3  H1            1.8494948949       -2.5594981071       13.0504469506  CLST         402          1.0000000000
      1206       402  TIP3  H2            1.7595502302       -1.6809386384       11.9327401306  CLST         402          1.0000000000
      1207       403  TIP3  OH2          -1.9979710569       -7.0419618582       -0.8188728561  CLST         403          1.0000000000
      1208       403  TIP3  H1           -2.1631501594       -6.5063236122       -1.5487690641  CLST         403          1.0000000000
      1209       403  TIP3  H2           -1.6846723727       -7.8732111046       -1.2100583346  CLST         403          1.0000000000
      1210       404  TIP3  OH2          -4.8434264399       -2.3354586319        9.2992718608  CLST         404          1.0000000000
      1211       404  TIP3  H1           -5.1220669895       -2.6388198971       10.1744985418  CLST         404          1.0000000000
      1212       404  TIP3  H2           -5.1931506719       -3.0966282606        8.8190358397  CLST         404          1.0000000000
      1213       405  TIP3  OH2         -11.9458569639        7.2326384389       11.2810834483  CLST         405          1.0000000000
      1214       405  TIP3  H1          -11.9509937420        6.2801663314       11.1167699439  CLST         405          1.0000000000
      1215       405  TIP3  H2          -12.8058504337        7.3556168201       11.5747931799  CLST         405          1.0000000000
      1216       406  TIP3  OH2           1.0782358357        7.8969904120      -12.1529989403  CLST         406          1.0000000000
      1217       406  TIP3  H1            0.8835253672        8.8374215989      -12.2924260397  CLST         406          1.0000000000
      1218       406  TIP3  H2            1.3467402292        7.8446269122      -11.2394925846  CLST         406          1.0000000000
      1219       407  TIP3  OH2          10.3878385509      -13.3780130374        5.1299184319  CLST         407          1.0000000000
      1220       407  TIP3  H1           10.2544417133      -13.5267639528        4.2152486570  CLST         407          1.0000000000
      1221       407  TIP3  H2           11.2686694236      -13.0309923618        5.1411365252  CLST         407          1.0000000000
      1222       408  TIP3  OH2          -2.9846928724      -11.6091068968        1.9007773749  CLST         408          1.0000000000
      1223       408  TIP3  H1           -2.1801552429      -11.0633561640        1.8031962140  CLST         408          1.0000000000
      1224       408  TIP3  H2           -2.5814944659      -12.3967931963        2.3012553170  CLST         408          1.0000000000
      1225       409  TIP3  OH2           1.1674739427       -9.6444800675        9.6971317692  CLST         409          1.0000000000
      1226       409  TIP3  H1            0.8106312497       -9.1305494558       10.4061832327  CLST         409          1.0000000000
      1227       409  TIP3  H2            1.6107404133      -10.3355882653       10.1835529455  CLST         409          1.0000000000
      1228       410  TIP3  OH2           9.7468361796       -7.0633385093       -5.2513605934  CLST         410          1.0000000000
      1229       410  TIP3  H1            8.8527903495       -6.8462317899       -5.4805155375  CLST         410          1.0000000000
      1230       410  TIP3  H2           10.1930128277       -6.2783631278       -5.5947939367  CLST         410          1.0000000000
      1231       411  TIP3  OH2          -9.9214159146       -2.2473290092       -1.2735433184  CLST         411          1.0000000000
      1232       411  TIP3  H1           -9.2014524496       -2.3674739567       -0.7093018936  CLST         411          1.0000000000
      1233       411  TIP3  H2           -9.8791199162       -2.9532354757       -1.8846810836  CLST         411          1.0000000000
      1234       412  TIP3  OH2           6.7663342070      -10.5485110346      -11.9837251164  CLST         412          1.0000000000
      1235       412  TIP3  H1            5.9892139642      -10.8715265178      -11.5584082318  CLST         412          1.0000000000
      1236       412  TIP3  H2            7.4395619670      -11.2054921823      -11.7458973866  CLST         412          1.0000000000
      1237       413  TIP3  OH2           6.9555368716       13.0509810173        0.2698167684  CLST         413          1.0000000000
      1238       413  TIP3  H1            7.4888677289       12.3990948149       -0.1804703865  CLST         413          1.0000000000
      1239       413  TIP3  H2            7.7224449928       13.5302691250        0.5845305093  CLST         413          1.0000000000
      1240       414  TIP3  OH2           1.4335808932       -2.4082877793      -12.3641333756  CLST         414          1.0000000000
      1241       414  TIP3  H1            0.5183743922       -2.0985724207      -12.1836779944  CLST         414          1.0000000000
      1242       414  TIP3  H2            1.4331267372       -2.5468742780      -13.3200565955  CLST         414          1.0000000000
      1243       415  TIP3  OH2           4.1004293005        5.3389530537       -8.3460955117  CLST         415          1.0000000000
      1244       415  TIP3  H1            3.4631171796        4.6999425715       -7.9999649389  CLST         415          1.0000000000
      1245       415  TIP3  H2            4.6699362033        4.6477226088       -8.7615606104  CLST         415          1.0000000000
      1246       416  TIP3  OH2           5.5559426798       12.3594544037       -7.7782912153  CLST         416          1.0000000000
      1247       416  TIP3  H1            5.0997833692       13.0198673356       -8.2028195155  CLST         416          1.0000000000
      1248       416  TIP3  H2            6.4308940102       12.3208390346       -8.2499345647  CLST         416          1.0000000000
      1249       417  TIP3  OH2          12.6594477976      -11.1960249224        2.6685262294  CLST         417          1.0000000000
      1250       417  TIP3  H1           11.8453794954      -11.5279771559        2.3351813948  CLST         417          1.0000000000
      1251       417  TIP3  H2           12.8822655178      -10.4285720890        2.1111480072  CLST         417          1.0000000000
      1252       418  TIP3  OH2          -9.1684645150       -1.6829517465        8.3106803489  CLST         418          1.0000000000
      1253       418  TIP3  H1           -8.7848957526       -1.3088773728        7.4671806433  CLST         418          1.0000000000
      1254       418  TIP3  H2           -8.8297639220       -1.0341618104        8.9355318013  CLST         418          1.0000000000
      1255       419  TIP3  OH2          15.0955515308        0.3598336394       -6.0763383650  CLST         419          1.0000000000
      1256       419  TIP3  H1           14.5850739715        0.8151749546       -5.3845594617  CLST         419          1.0000000000
      1257       419  TIP3  H2           15.8383431784        0.9151442530       -5.8682688158  CLST         419          1.0000000000
      1258       420  TIP3  OH2          -8.1888472290       -8.2382607677        3.5542757572  CLST         420          1.0000000000
      1259       420  TIP3  H1           -8.9822120318       -7.7096775083        3.2786716962  CLST         420          1.0000000000
      1260       420  TIP3  H2           -8.6076555512       -9.1075214799        3.4306818368  CLST         420          1.0000000000
      1261       421  TIP3  OH2           3.4887744841       -6.3007661984      -13.3362113545  CLST         421          1.0000000000
      1262       421  TIP3  H1            4.4180088490       -6.5872186255      -13.2527062991  CLST         421          1.0000000000
      1263       421  TIP3  H2            3.0638733709       -7.1828493823      -13.3868228913  CLST         421          1.0000000000
      1264       422  TIP3  OH2          -1.8789705178       -9.4876236344       -1.7620628289  CLST         422          1.0000000000
      1265       422  TIP3  H1           -1.2684273414      -10.1888374582       -1.9736701498  CLST         422          1.0000000000
      1266       422  TIP3  H2           -2.7014323615      -10.0036309017       -1.7956232096  CLST         422          1.0000000000
      1267       423  TIP3  OH2           1.7721537077        4.8600104730       -3.8670682267  CLST         423          1.0000000000
      1268       423  TIP3  H1            2.5744257306        5.1850649604       -4.3012964774  CLST         423          1.0000000000
      1269       423  TIP3  H2            2.2269396754        4.3318357482       -3.1890684657  CLST         423          1.0000000000
      1270       424  TIP3  OH2          -9.0818251173        4.3995466232        4.4017300141  CLST         424          1.0000000000
      1271       424  TIP3  H1           -8.9849465767        3.7482989079        3.6800952209  CLST         424          1.0000000000
      1272       424  TIP3  H2           -8.2683057310        4.8767113066        4.2243547846  CLST         424          1.0000000000
      1273       425  TIP3  OH2           8.1785595877      -12.6422478939        8.3413249458  CLST         425          1.0000000000
      1274       425  TIP3  H1            8.3117166999      -12.6538364071        7.4047902133  CLST         425          1.0000000000
      1275       425  TIP3  H2            7.8557356683      -11.7237066771        8.4256341497  CLST         425          1.0000000000
      1276       426  TIP3  OH2           8.2675286949        2.1934864543        8.3745248990  CLST         426          1.0000000000
      1277       426  TIP3  H1            9.1647267624        1.9308696262        8.5997221235  CLST         426          1.0000000000
      1278       426  TIP3  H2            8.4705064819        3.1112467904        8.1316254311  CLST         426          1.0000000000
      1279       427  TIP3  OH2          11.5115297656        7.6161168160       10.9741791356  CLST         427          1.0000000000
      1280       427  TIP3  H1           11.2383736499        7.9945394450       11.8181438857  CLST         427          1.0000000000
      1281       427  TIP3  H2           10.6877941253        7.1049213762       10.7369132977  CLST         427          1.0000000000
      1282       428  TIP3  OH2          12.4589126680        7.6954030666        1.1585082019  CLST         428          1.0000000000
      1283       428  TIP3  H1           12.3205262361        8.3519308728        0.4617858440  CLST         428          1.0000000000
      1284       428  TIP3  H2           13.3512263314        7.5759446081        0.8903354701  CLST         428          1.0000000000
      1285       429  TIP3  OH2          11.8661086989       -9.8279638279       -0.7536511503  CLST         429          1.0000000000
      1286       429  TIP3  H1           12.4143303464       -9.3599031130       -0.0546396606  CLST         429          1.0000000000
      1287       429  TIP3  H2           11.6598496196       -9.0607732266       -1.3254984308  CLST         429          1.0000000000
      1288       430  TIP3  OH2           9.7445453864       -6.6554830764        3.5219475044  CLST         430          1.0000000000
      1289       430  TIP3  H1            9.7550478807       -7.2906011098        2.7423365669  CLST         430          1.0000000000
      1290       430  TIP3  H2           10.6391772316       -6.3078242055        3.4063208342  CLST         430          1.0000000000
      1291       431  TIP3  OH2         -12.7113903757        9.3778690623       -2.5729253393  CLST         431          1.0000000000
      1292       431  TIP3  H1          -13.5411940448        9.7448215195       -2.7931620145  CLST         431          1.0000000000
      1293       431  TIP3  H2          -12.9921420163        8.9592188016       -1.7347718103  CLST         431          1.0000000000
      1294       432  TIP3  OH2           5.4186622414        8.4592031371      -10.0372714187  CLST         432          1.0000000000
      1295       432  TIP3  H1            5.5526637001        8.8377187551       -9.1656911279  CLST         432          1.0000000000
      1296       432  TIP3  H2            4.7299024906        9.0554296890      -10.2740332851  CLST         432          1.0000000000
      1297       433  TIP3  OH2          -0.7740888299        8.1203602140        7.7629119338  CLST         433          1.0000000000
      1298       433  TIP3  H1           -1.5858176436        8.5926940634        7.9931537100  CLST         433          1.0000000000
      1299       433  TIP3  H2           -1.1411327474        7.5571215364        7.0907101191  CLST         433          1.0000000000
      1300       434  TIP3  OH2          -7.3321973651        0.6356170209        3.8653513158  CLST         434          1.0000000000
      1301       434  TIP3  H1           -7.7446076345        1.3231632848        3.2743022114  CLST         434          1.0000000000
      1302       434  TIP3  H2           -8.0355025095       -0.0370596175        3.6988911843  CLST         434          1.0000000000
      1303       435  TIP3  OH2           9.8673449360       -0.3761639831       -7.1990693950  CLST         435          1.0000000000
      1304       435  TIP3  H1            9.4705034421       -0.1649035412       -6.3782653456  CLST         435          1.0000000000
      1305       435  TIP3  H2           10.6176708102        0.1680191756       -7.1768091602  CLST         435          1.0000000000
      1306       436  TIP3  OH2           3.6910387843       10.5557045600       -9.0367728113  CLST         436          1.0000000000
      1307       436  TIP3  H1            3.8902970290       11.0834661422       -8.2461016967  CLST         436          1.0000000000
      1308       436  TIP3  H2            2.9094773834       10.1215866871       -8.6895759401  CLST         436          1.0000000000
      1309       437  TIP3  OH2          -8.4719554748       -0.8853335104       -7.9659562465  CLST         437          1.0000000000
      1310       437  TIP3  H1           -8.6587017248       -0.5010990152       -8.8511219750  CLST         437          1.0000000000
      1311       437  TIP3  H2           -7.5469977566       -0.5679169787       -7.8100890641  CLST         437          1.0000000000
      1312       438  TIP3  OH2          -3.2778475110        5.4538627969       -8.0333507245  CLST         438          1.0000000000
      1313       438  TIP3  H1           -4.1355458917        5.9637739950       -8.0258770129  CLST         438          1.0000000000
      1314       438  TIP3  H2           -3.1706484895        5.7947930285       -8.9346534518  CLST         438          1.0000000000
      1315       439  TIP3  OH2          14.3871902681        1.5397363667       -4.0814952665  CLST         439          1.0000000000
      1316       439  TIP3  H1           13.8142901405        2.2643762264       -4.3058926061  CLST         439          1.0000000000
      1317       439  TIP3  H2           13.9449629358        1.3198135471       -3.2430069859  CLST         439          1.0000000000
      1318       440  TIP3  OH2           1.2206459226      -12.9260476653      -11.2195683442  CLST         440          1.0000000000
      1319       440  TIP3  H1            0.3060290400      -12.6081899341      -11.2458696252  CLST         440          1.0000000000
      1320       440  TIP3  H2            1.1395865713      -13.8417648212      -11.0613636093  CLST         440          1.0000000000
      1321       441  TIP3  OH2          -1.5402417974       -4.2384127062        3.1737826381  CLST         441          1.0000000000
      1322       441  TIP3  H1           -1.7502496952       -3.3647053224        3.3686316914  CLST         441          1.0000000000
      1323       441  TIP3  H2           -1.3662951243       -4.6734206896        4.0690524421  CLST         441          1.0000000000
      1324       442  TIP3  OH2           3.2435608635       -9.8961963777       -7.9968026232  CLST         442          1.0000000000
      1325       442  TIP3  H1            3.9129297374      -10.2018990465       -8.6287354482  CLST         442          1.0000000000
      1326       442  TIP3  H2            2.5538330229       -9.5928154936       -8.6229454865  CLST         442          1.0000000000
      1327       443  TIP3  OH2           1.2559631487       10.3187712342      -12.8954648032  CLST         443          1.0000000000
      1328       443  TIP3  H1            1.6243758308       11.1918858953      -12.5757820952  CLST         443          1.0000000000
      1329       443  TIP3  H2            2.0619557987        9.8831626670      -12.9751576188  CLST         443          1.0000000000
      1330       444  TIP3  OH2          -7.9501415045        1.3111633157       -1.7529532207  CLST         444          1.0000000000
      1331       444  TIP3  H1           -7.9724743878        2.0355461402       -2.3572219228  CLST         444          1.0000000000
      1332       444  TIP3  H2           -7.4478098042        1.7879186469       -1.0936805969  CLST         444          1.0000000000
      1333       445  TIP3  OH2         -11.4559782634       -5.3005348055        6.1817471840  CLST         445          1.0000000000
      1334       445  TIP3  H1          -11.4508314703       -4.3349886018        5.9240145847  CLST         445          1.0000000000
      1335       445  TIP3  H2          -11.3938713754       -5.1709703914        7.1427739642  CLST         445          1.0000000000
      1336       446  TIP3  OH2          -2.9168844546        4.7131227650       -5.3648681821  CLST         446          1.0000000000
      1337       446  TIP3  H1           -2.9459599446        4.9511257497       -6.3081748132  CLST         446          1.0000000000
      1338       446  TIP3  H2           -2.0204798011        5.0997285299       -5.2525755092  CLST         446          1.0000000000
      1339       447  TIP3  OH2          -5.0683524242      -12.6645797060       -3.8083964912  CLST         447          1.0000000000
      1340       447  TIP3  H1           -5.1950743256      -13.5389739222       -3.5624095377  CLST         447          1.0000000000
      1341       447  TIP3  H2           -4.6309616815      -12.3460447932       -2.9955272898  CLST         447          1.0000000000
      1342       448  TIP3  OH2           7.2858773348        9.6867135752        4.7561754615  CLST         448          1.0000000000
      1343       448  TIP3  H1            7.5281853434        9.6088053584        5.7467929543  CLST         448          1.0000000000
      1344       448  TIP3  H2            6.5506584536       10.3442270893        4.9107387611  CLST         448          1.0000000000
      1345       449  TIP3  OH2           4.2349102360        5.1181560036        8.3901823560  CLST         449          1.0000000000
      1346       449  TIP3  H1            4.8275548216        4.5685961443        8.9135743599  CLST         449          1.0000000000
      1347       449  TIP3  H2            4.0364814428        4.6386401599        7.5921545489  CLST         449          1.0000000000
      1348       450  TIP3  OH2          -4.0954017787        0.4434689283       -1.9453060003  CLST         450          1.0000000000
      1349       450  TIP3  H1           -3.9499501054        1.2591740982       -2.4068249127  CLST         450          1.0000000000
      1350       450  TIP3  H2           -3.2459447363        0.3492092063       -1.5276265058  CLST         450          1.0000000000
      1351       451  TIP3  OH2          13.7485506887       -1.7966255611       -5.8529029135  CLST         451          1.0000000000
      1352       451  TIP3  H1           14.3341834713       -2.3941660913       -5.4229221127  CLST         451          1.0000000000
      1353       451  TIP3  H2           14.4292276528       -1.0766930488       -5.9417171474  CLST         451          1.0000000000
      1354       452  TIP3  OH2           8.3928259083        4.9815085395        8.0177581611  CLST         452          1.0000000000
      1355       452  TIP3  H1            7.6842362623        5.6482723474        8.0235090831  CLST         452          1.0000000000
      1356       452  TIP3  H2            9.0592027835        5.5008286208        7.5545966070  CLST         452          1.0000000000
      1357       453  TIP3  OH2           6.9507797582        2.8218805372       -6.0086736976  CLST         453          1.0000000000
      1358       453  TIP3  H1            6.2740739080        2.5262919334       -5.3917585624  CLST         453          1.0000000000
      1359       453  TIP3  H2            6.4786970549        2.6817301345       -6.8067884455  CLST         453          1.0000000000
      1360       454  TIP3  OH2           1.1354143549        5.4278109994        1.9040926915  CLST         454          1.0000000000
      1361       454  TIP3  H1            0.2130969035        5.1921966636        1.6826563685  CLST         454          1.0000000000
      1362       454  TIP3  H2            0.9368125579        6.0456208190        2.6019509592  CLST         454          1.0000000000
      1363       455  TIP3  OH2          -1.1634795475        0.7640143796      -10.3909683891  CLST         455          1.0000000000
      1364       455  TIP3  H1           -1.8654321198        1.2020015829       -9.9078784521  CLST         455          1.0000000000
      1365       455  TIP3  H2           -0.6390655424        1.5873260459      -10.2680607512  CLST         455          1.0000000000
      1366       456  TIP3  OH2           5.2703208527       11.3586044209        5.1886317371  CLST         456          1.0000000000
      1367       456  TIP3  H1            4.6048753269       11.4954615191        4.4831072380  CLST         456          1.0000000000
      1368       456  TIP3  H2            4.6567173286       11.2757683498        5.9694304148  CLST         456          1.0000000000
      1369       457  TIP3  OH2          -4.9069516270       -7.6716756799        4.8092462416  CLST         457          1.0000000000
      1370       457  TIP3  H1           -5.5693638105       -8.0248545993        5.3784790582  CLST         457          1.0000000000
      1371       457  TIP3  H2           -5.3759352335       -7.1582243284        4.1229481066  CLST         457          1.0000000000
      1372       458  TIP3  OH2           7.9253970417       -6.4066489698      -11.3106018998  CLST         458          1.0000000000
      1373       458  TIP3  H1            8.8815735905       -6.3157811570      -11.5933613476  CLST         458          1.0000000000
      1374       458  TIP3  H2            7.8460361993       -5.5589202873      -10.8495623091  CLST         458          1.0000000000
      1375       459  TIP3  OH2           6.5458004480       -9.8948408883       -7.8462568417  CLST         459          1.0000000000
      1376       459  TIP3  H1            6.1252722899       -9.1145702766       -7.4718268651  CLST         459          1.0000000000
      1377       459  TIP3  H2            7.2356823701       -9.4427244183       -8.3848533052  CLST         459          1.0000000000
      1378       460  TIP3  OH2           9.2918448000       -2.1032700481       -2.8320926509  CLST         460          1.0000000000
      1379       460  TIP3  H1            9.8709433733       -2.6319168868       -2.2947758131  CLST         460          1.0000000000
      1380       460  TIP3  H2            9.9112319182       -1.5567535974       -3.3318163567  CLST         460          1.0000000000
      1381       461  TIP3  OH2          -1.2429215685      -12.8181250662       -5.3774844341  CLST         461          1.0000000000
      1382       461  TIP3  H1           -0.4474555780      -12.8153690523       -5.9184322240  CLST         461          1.0000000000
      1383       461  TIP3  H2           -0.9447417125      -13.2012667772       -4.5454254173  CLST         461          1.0000000000
      1384       462  TIP3  OH2           0.0031236525        5.4751413753      -12.6580941593  CLST         462          1.0000000000
      1385       462  TIP3  H1            0.3943769565        6.3814227424      -12.6207077585  CLST         462          1.0000000000
      1386       462  TIP3  H2            0.7158436410        5.0496236844      -13.0279412292  CLST         462          1.0000000000
      1387       463  TIP3  OH2          -1.7731037991        1.7996369059       -7.8284856829  CLST         463          1.0000000000
      1388       463  TIP3  H1           -1.5635745952        0.8928481479       -7.5820172481  CLST         463          1.0000000000
      1389       463  TIP3  H2           -2.6769766889        1.8495626354       -7.4875252569  CLST         463          1.0000000000
      1390       464  TIP3  OH2          -6.5370511704        6.1969328139        4.2616224886  CLST         464          1.0000000000
      1391       464  TIP3  H1           -6.2285637639        5.5794383101        4.8877168089  CLST         464          1.0000000000
      1392       464  TIP3  H2           -7.0443518031        6.7954915305        4.8286818420  CLST         464          1.0000000000
      1393       465  TIP3  OH2          -4.6392639929      -12.5266921105        6.3589547292  CLST         465          1.0000000000
      1394       465  TIP3  H1           -3.7943499851      -13.0120380187        6.3016016151  CLST         465          1.0000000000
      1395       465  TIP3  H2           -4.2806934334      -11.6301850566        6.3417151603  CLST         465          1.0000000000
      1396       466  TIP3  OH2          -2.4560032569        9.1535755407       -4.3048749792  CLST         466          1.0000000000
      1397       466  TIP3  H1           -3.0668868574        9.3336733451       -5.0551065023  CLST         466          1.0000000000
      1398       466  TIP3  H2           -2.5735074024        9.9612812259       -3.7877535245  CLST         466          1.0000000000
      1399       467  TIP3  OH2           8.2613670432        5.9899355756        4.6398639396  CLST         467          1.0000000000
      1400       467  TIP3  H1            8.6346062857        6.5452482259        5.3158604312  CLST         467          1.0000000000
      1401       467  TIP3  H2            8.0439953315        6.7226291004        4.0371431567  CLST         467          1.0000000000
      1402       468  TIP3  OH2          -0.5010292429      -12.3643679602       10.4301697567  CLST         468          1.0000000000
      1403       468  TIP3  H1           -0.9880982533      -11.9369208556       11.1332399977  CLST         468          1.0000000000
      1404       468  TIP3  H2            0.4228148447      -12.2152608490       10.6197168166  CLST         468          1.0000000000
      1405       469  TIP3  OH2           5.4662309695        8.3802213947       14.2268467399  CLST         469          1.0000000000
      1406       469  TIP3  H1            6.3318466307        8.6029383783       13.8889390222  CLST         469          1.0000000000
      1407       469  TIP3  H2            5.0696645232        9.0728811706       13.7090560523  CLST         469          1.0000000000
      1408       470  TIP3  OH2         -11.1944086141       12.7644588997        0.5833243101  CLST         470          1.0000000000
      1409       470  TIP3  H1          -11.3382884022       13.0081335883       -0.2690972382  CLST         470          1.0000000000
      1410       470  TIP3  H2          -11.4358656807       11.7895276827        0.6776575423  CLST         470          1.0000000000
      1411       471  TIP3  OH2          -4.3484361142        9.5914672780       -8.9511907598  CLST         471          1.0000000000
      1412       471  TIP3  H1           -4.6985676569        8.7198218587       -8.9865387974  CLST         471          1.0000000000
      1413       471  TIP3  H2           -4.5534260437        9.8429835136       -9.8828818776  CLST         471          1.0000000000
      1414       472  TIP3  OH2         -11.7937800972        3.8677074404        2.9112725640  CLST         472          1.0000000000
      1415       472  TIP3  H1          -12.1596562144        3.0503052490        3.3267020476  CLST         472          1.0000000000
      1416       472  TIP3  H2          -11.8943948392        3.4416757538        2.0420435927  CLST         472          1.0000000000
      1417       473  TIP3  OH2           5.3487758056        0.7965113947       10.1509543603  CLST         473          1.0000000000
      1418       473  TIP3  H1            5.8228886177        1.6375881642       10.0543535419  CLST         473          1.0000000000
      1419       473  TIP3  H2            4.6778926073        1.0769624101       10.7436695245  CLST         473          1.0000000000
      1420       474  TIP3  OH2           1.3448204398        1.7456512908        1.4150841877  CLST         474          1.0000000000
      1421       474  TIP3  H1            0.3990358165        1.5200481742        1.5366380441  CLST         474          1.0000000000
      1422       474  TIP3  H2            1.6239875262        0.8940471981        1.0930027275  CLST         474          1.0000000000
      1423       475  TIP3  OH2           6.0853089973       -8.6062778404       12.0487248974  CLST         475          1.0000000000
      1424       475  TIP3  H1            6.9035714966       -8.2048481856       11.7541135741  CLST         475          1.0000000000
      1425       475  TIP3  H2            6.2164161194       -9.3549731660       11.4416014947  CLST         475          1.0000000000
      1426       476  TIP3  OH2         -11.5913289089       -9.0558340959       -0.0950741509  CLST         476          1.0000000000
      1427       476  TIP3  H1          -12.0898996761       -8.3017341207       -0.5199864230  CLST         476          1.0000000000
      1428       476  TIP3  H2          -10.8548453071       -8.9264697928       -0.7037849966  CLST         476          1.0000000000
      1429       477  TIP3  OH2         -12.5547178226        3.6272111495      -13.5060116348  CLST         477          1.0000000000
      1430       477  TIP3  H1          -12.7723659827        2.7370583506      -13.3314542653  CLST         477          1.0000000000
      1431       477  TIP3  H2          -11.9500156563        3.4478184247      -14.1996864907  CLST         477          1.0000000000
      1432       478  TIP3  OH2          -3.9763431537        6.5417989539      -10.6864870187  CLST         478          1.0000000000
      1433       478  TIP3  H1           -4.5831705157        6.5651031075      -11.4140143358  CLST         478          1.0000000000
      1434       478  TIP3  H2           -3.3688789845        7.1793682097      -11.0978550346  CLST         478          1.0000000000
      1435       479  TIP3  OH2           7.8634692572       -1.4985315321       -8.5780053313  CLST         479          1.0000000000
      1436       479  TIP3  H1            8.5993483437       -1.2073845679       -8.0077722347  CLST         479          1.0000000000
      1437       479  TIP3  H2            7.1329907362       -1.1693707173       -8.0273662344  CLST         479          1.0000000000
      1438       480  TIP3  OH2          -6.0929067068        7.5635110273       -0.0461508507  CLST         480          1.0000000000
      1439       480  TIP3  H1           -5.2320797164        7.8712165199       -0.3655866528  CLST         480          1.0000000000
      1440       480  TIP3  H2           -5.8596585739        6.6707119475        0.0832326554  CLST         480          1.0000000000
      1441       481  TIP3  OH2          -2.9915023228        2.3750550358       11.9452661344  CLST         481          1.0000000000
      1442       481  TIP3  H1           -2.0600155983        2.1928552010       11.7918219227  CLST         481          1.0000000000
      1443       481  TIP3  H2           -3.1828923951        1.5322657414       12.3306755324  CLST         481          1.0000000000
      1444       482  TIP3  OH2          -7.9208775130       11.5153298400       -7.5400922759  CLST         482          1.0000000000
      1445       482  TIP3  H1           -8.6323070815       11.5049533684       -8.1520420053  CLST         482          1.0000000000
      1446       482  TIP3  H2           -7.2309420820       11.8163417473       -8.1323418795  CLST         482          1.0000000000
      1447       483  TIP3  OH2           6.2865058515       -5.8422831121       12.6102329878  CLST         483          1.0000000000
      1448       483  TIP3  H1            5.9026099577       -6.6493169426       12.8867374440  CLST         483          1.0000000000
      1449       483  TIP3  H2            6.0554053760       -5.7361363883       11.6913536368  CLST         483          1.0000000000
      1450       484  TIP3  OH2           6.8009216580       -2.9797511425        3.0037297546  CLST         484          1.0000000000
      1451       484  TIP3  H1            5.8560881196       -3.3003439763        3.0640369732  CLST         484          1.0000000000
      1452       484  TIP3  H2            6.7018275656       -2.1940412198        3.6065121895  CLST         484          1.0000000000
      1453       485  TIP3  OH2         -11.7434421054        4.4694818232       10.0345508512  CLST         485          1.0000000000
      1454       485  TIP3  H1          -11.3123502732        3.5713665575        9.8278013635  CLST         485          1.0000000000
      1455       485  TIP3  H2          -12.5466497496        4.3002536726        9.5378360449  CLST         485          1.0000000000
      1456       486  TIP3  OH2           8.4469828109       -7.2384287337       13.6737361108  CLST         486          1.0000000000
      1457       486  TIP3  H1            8.7555657084       -6.9102758561       14.4834357160  CLST         486          1.0000000000
      1458       486  TIP3  H2            7.9255462930       -6.4785071021       13.4586953365  CLST         486          1.0000000000
      1459       487  TIP3  OH2          12.2867500007       -8.4517969587        6.0492718774  CLST         487          1.0000000000
      1460       487  TIP3  H1           11.3416324669       -8.4309507780        5.8768634631  CLST         487          1.0000000000
      1461       487  TIP3  H2           12.2356604718       -8.5227537953        7.0517438714  CLST         487          1.0000000000
      1462       488  TIP3  OH2          15.2559764626        8.3692976389        7.7297348003  CLST         488          1.0000000000
      1463       488  TIP3  H1           15.8670573977        7.7500277068        7.3373244200  CLST         488          1.0000000000
      1464       488  TIP3  H2           14.6901949926        7.8029128150        8.2594043326  CLST         488          1.0000000000
      1465       489  TIP3  OH2          -6.2207357277      -10.7637978298       11.7008761372  CLST         489          1.0000000000
      1466       489  TIP3  H1           -6.3283687720       -9.9057068006       11.3436353413  CLST         489          1.0000000000
      1467       489  TIP3  H2           -7.0022398699      -11.1786324466       11.2669639220  CLST         489          1.0000000000
      1468       490  TIP3  OH2           6.8372592637      -13.0202598349        2.3612078605  CLST         490          1.0000000000
      1469       490  TIP3  H1            6.4846169453      -12.2117314717        2.7046007719  CLST         490          1.0000000000
      1470       490  TIP3  H2            7.1819255398      -13.5050906945        3.0789893509  CLST         490          1.0000000000
      1471       491  TIP3  OH2           3.1218914362       -9.2005044162        5.0386603280  CLST         491          1.0000000000
      1472       491  TIP3  H1            2.2366052106       -9.1906166330        5.4725549544  CLST         491          1.0000000000
      1473       491  TIP3  H2            2.6865187604       -9.4786644262        4.2010968896  CLST         491          1.0000000000
      1474       492  TIP3  OH2          -0.5979077066       -6.5010416427       12.2490752671  CLST         492          1.0000000000
      1475       492  TIP3  H1           -0.4281704985       -7.4730218106       12.2639290543  CLST         492          1.0000000000
      1476       492  TIP3  H2           -1.5281465164       -6.5434575984       12.3877942040  CLST         492          1.0000000000
      1477       493  TIP3  OH2           3.4269582648       10.6640091365        7.0653393737  CLST         493          1.0000000000
      1478       493  TIP3  H1            4.1000630298       10.5703363847        7.7675416677  CLST         493          1.0000000000
      1479       493  TIP3  H2            2.6663047972       10.3637693157        7.7001531377  CLST         493          1.0000000000
      1480       494  TIP3  OH2          -9.2417803991        5.4624376778       -0.8002480312  CLST         494          1.0000000000
      1481       494  TIP3  H1           -9.6300584370        5.9092707693       -1.5536064844  CLST         494          1.0000000000
      1482       494  TIP3  H2           -9.5813696718        5.9118523568       -0.0172085560  CLST         494          1.0000000000
      1483       495  TIP3  OH2           5.0884204656       -6.8050051417       -1.9831990880  CLST         495          1.0000000000
      1484       495  TIP3  H1            5.7816988984       -6.3350844735       -2.4826732697  CLST         495          1.0000000000
      1485       495  TIP3  H2            5.7155325011       -7.4062692642       -1.5198735348  CLST         495          1.0000000000
      1486       496  TIP3  OH2         -12.8641375824      -10.7027806494        7.5472865570  CLST         496          1.0000000000
      1487       496  TIP3  H1          -13.4875326961      -11.3800633066        7.7074763764  CLST         496          1.0000000000
      1488       496  TIP3  H2          -12.5672318624      -11.1991544529        6.7982159166  CLST         496          1.0000000000
      1489       497  TIP3  OH2          -9.6918526942      -13.4834404728       -7.3152008093  CLST         497          1.0000000000
      1490       497  TIP3  H1          -10.1766898273      -14.2577160977       -7.4144574696  CLST         497          1.0000000000
      1491       497  TIP3  H2           -9.9432407357      -12.7767612654       -7.8779850431  CLST         497          1.0000000000
      1492       498  TIP3  OH2          -5.6476888772        0.5431038720      -11.2304523402  CLST         498          1.0000000000
      1493       498  TIP3  H1           -5.8374799335        0.7079725909      -12.1481089368  CLST         498          1.0000000000
      1494       498  TIP3  H2           -5.4643145999        1.3655615451      -10.8204116595  CLST         498          1.0000000000
      1495       499  TIP3  OH2          11.5778407468        6.6351989705        3.6450280718  CLST         499          1.0000000000
      1496       499  TIP3  H1           11.8955402122        7.0914028343        2.8875189327  CLST         499          1.0000000000
      1497       499  TIP3  H2           11.3472095516        7.3326407718        4.2350296220  CLST         499          1.0000000000
      1498       500  TIP3  OH2           2.3405732436       -8.7441759070      -13.2912367697  CLST         500          1.0000000000
      1499       500  TIP3  H1            1.6629124552       -9.3383963210      -13.5798431799  CLST         500          1.0000000000
      1500       500  TIP3  H2            2.8666579976       -9.3947966708      -12.8082442712  CLST         500          1.0000000000
      1501       501  TIP3  OH2           1.3363438918      -11.0780736247       14.0057777199  CLST         501          1.0000000000
      1502       501  TIP3  H1            1.2623020068      -11.9836514494       14.0886912270  CLST         501          1.0000000000
      1503       501  TIP3  H2            2.2372947383      -10.8480069561       14.0117712830  CLST         501          1.0000000000
      1504       502  TIP3  OH2           6.2116269744        3.7661395738        9.7320266784  CLST         502          1.0000000000
      1505       502  TIP3  H1            6.6451037439        4.1172985859       10.5104412347  CLST         502          1.0000000000
      1506       502  TIP3  H2            6.9549659324        3.2672204413        9.3905290512  CLST         502          1.0000000000
      1507       503  TIP3  OH2          10.3374135531       -0.7531432697        0.2518143973  CLST         503          1.0000000000
      1508       503  TIP3  H1           11.0804524652       -0.4829227128        0.7967088637  CLST         503          1.0000000000
      1509       503  TIP3  H2           10.0374509556        0.0584723298       -0.1371839256  CLST         503          1.0000000000
      1510       504  TIP3  OH2           8.3025390465      -13.8517273127       10.8046271622  CLST         504          1.0000000000
      1511       504  TIP3  H1            8.6920576406      -13.6391625748        9.9618213593  CLST         504          1.0000000000
      1512       504  TIP3  H2            7.9395359573      -14.6550104521       10.5017501269  CLST         504          1.0000000000
      1513       505  TIP3  OH2           3.5132812023      -10.8302058864       -5.5740877892  CLST         505          1.0000000000
      1514       505  TIP3  H1            3.4869875779      -10.2257565993       -6.3273933537  CLST         505          1.0000000000
      1515       505  TIP3  H2            2.7108069552      -10.5580025073       -5.1408880031  CLST         505          1.0000000000
      1516       506  TIP3  OH2          -9.1633630324       -3.4236535930       -8.0735583704  CLST         506          1.0000000000
      1517       506  TIP3  H1           -8.9338504658       -2.4590431005       -8.0879249943  CLST         506          1.0000000000
      1518       506  TIP3  H2           -9.7836178745       -3.3667210337       -8.7977929314  CLST         506          1.0000000000
      1519       507  TIP3  OH2          11.1818617608        9.8054080965      -12.8585806087  CLST         507          1.0000000000
      1520       507  TIP3  H1           11.6408066621        9.6868222511      -13.6307976588  CLST         507          1.0000000000
      1521       507  TIP3  H2           11.0552257932        8.8427746201      -12.5782821631  CLST         507          1.0000000000
      1522       508  TIP3  OH2           9.1842092257       12.2203109484        8.7585081434  CLST         508          1.0000000000
      1523       508  TIP3  H1            9.0930251354       12.0523389452        7.8166175110  CLST         508          1.0000000000
      1524       508  TIP3  H2           10.0466955497       12.6561214656        8.7129943896  CLST         508          1.0000000000
      1525       509  TIP3  OH2          -0.8817449739       -1.5504786387      -11.3566173251  CLST         509          1.0000000000
      1526       509  TIP3  H1           -1.8273146557       -1.7272882207      -11.5321111716  CLST         509          1.0000000000
      1527       509  TIP3  H2           -1.0366434032       -0.6642356183      -10.9180782466  CLST         509          1.0000000000
      1528       510  TIP3  OH2           8.1161535718        2.2772718891       11.5163146457  CLST         510          1.0000000000
      1529       510  TIP3  H1            8.0962588537        1.2861396603       11.5883135874  CLST         510          1.0000000000
      1530       510  TIP3  H2            8.9943219936        2.2536861903       11.1181903551  CLST         510          1.0000000000
      1531       511  TIP3  OH2          -8.7568254188       -5.8971661282       -0.7283895219  CLST         511          1.0000000000
      1532       511  TIP3  H1           -9.6143489552       -6.0922744292       -1.1156537733  CLST         511          1.0000000000
      1533       511  TIP3  H2           -8.5164351426       -5.1120127770       -1.1181268331  CLST         511          1.0000000000
      1534       512  TIP3  OH2          10.1087876568        7.0055304021        6.8773212728  CLST         512          1.0000000000
      1535       512  TIP3  H1           10.0993182501        7.5774281429        7.6349100507  CLST         512          1.0000000000
      1536       512  TIP3  H2           10.3989069183        7.6742066353        6.2370856079  CLST         512          1.0000000000
      1537       513  TIP3  OH2         -11.7599524795       10.4367737803        9.3678120718  CLST         513          1.0000000000
      1538       513  TIP3  H1          -11.3907718903       11.2596357455        9.7128643682  CLST         513          1.0000000000
      1539       513  TIP3  H2          -11.8310705081        9.9843472310       10.2124166438  CLST         513          1.0000000000
      1540       514  TIP3  OH2          -4.8155334378        4.9493236904        0.3252662071  CLST         514          1.0000000000
      1541       514  TIP3  H1           -4.0639969188        5.4795653590        0.6277684468  CLST         514          1.0000000000
      1542       514  TIP3  H2           -4.5835377751        4.8886415939       -0.5774759178  CLST         514          1.0000000000
      1543       515  TIP3  OH2          -0.6994430820        0.9874170110       -4.2874967686  CLST         515          1.0000000000
      1544       515  TIP3  H1           -1.4968315584        1.5554700526       -4.5185763885  CLST         515          1.0000000000
      1545       515  TIP3  H2           -0.0332592707        1.5755637655       -4.6915505581  CLST         515          1.0000000000
      1546       516  TIP3  OH2          -7.1811112176       -8.5761284118        6.4391492205  CLST         516          1.0000000000
      1547       516  TIP3  H1           -7.4278471707       -8.7160922044        5.5182768129  CLST         516          1.0000000000
      1548       516  TIP3  H2           -7.7648505331       -7.7162777411        6.5203504534  CLST         516          1.0000000000
      1549       517  TIP3  OH2           0.6101165483       11.0696435255       11.5089830989  CLST         517          1.0000000000
      1550       517  TIP3  H1            0.4291576375       10.6942013528       10.6536572358  CLST         517          1.0000000000
      1551       517  TIP3  H2           -0.2858250126       11.4116172587       11.6010868672  CLST         517          1.0000000000
      1552       518  TIP3  OH2         -11.6391595623       -3.4335066985      -11.4636660422  CLST         518          1.0000000000
      1553       518  TIP3  H1          -12.1904650757       -3.2165967515      -12.2053942404  CLST         518          1.0000000000
      1554       518  TIP3  H2          -10.7992262135       -3.5342605366      -11.9373825589  CLST         518          1.0000000000
      1555       519  TIP3  OH2           1.9973721996        3.3772324507        3.3057055535  CLST         519          1.0000000000
      1556       519  TIP3  H1            1.9949679703        4.2270770245        2.8489663859  CLST         519          1.0000000000
      1557       519  TIP3  H2            1.6711530660        2.7800345802        2.5863916971  CLST         519          1.0000000000
      1558       520  TIP3  OH2         -10.2808319926        6.2247589646        8.1698973335  CLST         520          1.0000000000
      1559       520  TIP3  H1          -10.4637346044        5.6067744139        7.4281305307  CLST         520          1.0000000000
      1560       520  TIP3  H2          -10.8677954757        5.7743393551        8.8049108626  CLST         520          1.0000000000
      1561       521  TIP3  OH2           8.3481541775       -8.8616693086       -9.5760440267  CLST         521          1.0000000000
      1562       521  TIP3  H1            8.5763090166       -9.4704761625      -10.2868077884  CLST         521          1.0000000000
      1563       521  TIP3  H2            8.2428466366       -8.0678318690      -10.1177978741  CLST         521          1.0000000000
      1564       522  TIP3  OH2          -5.6158979164       -7.1284922113        8.1045602042  CLST         522          1.0000000000
      1565       522  TIP3  H1           -6.2025754270       -7.8132176686        7.7979593273  CLST         522          1.0000000000
      1566       522  TIP3  H2           -4.8115062457       -7.6079873356        8.1901964165  CLST         522          1.0000000000
      1567       523  TIP3  OH2          -4.0942532628       12.1241092393      -13.7414106476  CLST         523          1.0000000000
      1568       523  TIP3  H1           -3.2120474734       11.8825426804      -13.4409458208  CLST         523          1.0000000000
      1569       523  TIP3  H2           -3.9077892952       12.8115996750      -14.3459379630  CLST         523          1.0000000000
      1570       524  TIP3  OH2           7.0026866754        3.8573041843       -1.8214425660  CLST         524          1.0000000000
      1571       524  TIP3  H1            7.0654588806        2.9649102880       -2.2091793441  CLST         524          1.0000000000
      1572       524  TIP3  H2            6.0674641587        3.9878142176       -2.0581428796  CLST         524          1.0000000000
      1573       525  TIP3  OH2           0.4313432155        6.9318118706       -2.5597249190  CLST         525          1.0000000000
      1574       525  TIP3  H1            0.9509181968        6.5777703996       -3.2535973315  CLST         525          1.0000000000
      1575       525  TIP3  H2            0.2707857073        6.0660333793       -2.1316205683  CLST         525          1.0000000000
      1576       526  TIP3  OH2           7.0407505939       -5.5855854849       -3.6561925871  CLST         526          1.0000000000
      1577       526  TIP3  H1            7.1594155570       -5.8374758255       -4.5832989243  CLST         526          1.0000000000
      1578       526  TIP3  H2            7.9398132842       -5.4629571615       -3.3480988197  CLST         526          1.0000000000
      1579       527  TIP3  OH2           0.3429578845        7.2372427027        3.9382197178  CLST         527          1.0000000000
      1580       527  TIP3  H1            0.9715024050        6.9620593263        4.5979658499  CLST         527          1.0000000000
      1581       527  TIP3  H2            0.3417862398        8.1830492949        3.9821626783  CLST         527          1.0000000000
      1582       528  TIP3  OH2          -2.8941409980        9.8623403022        8.8177158473  CLST         528          1.0000000000
      1583       528  TIP3  H1           -3.4308104045        9.4027709581        9.4780114017  CLST         528          1.0000000000
      1584       528  TIP3  H2           -3.6358012930       10.3754303143        8.4836342501  CLST         528          1.0000000000
      1585       529  TIP3  OH2          -5.9429872549       12.3006913019       -9.4370789825  CLST         529          1.0000000000
      1586       529  TIP3  H1           -5.1163235305       12.1323873734       -9.0449252828  CLST         529          1.0000000000
      1587       529  TIP3  H2           -5.6634581576       12.3321414237      -10.3599224321  CLST         529          1.0000000000
      1588       530  TIP3  OH2          -4.3750118864       -5.6133718771      -13.1402468656  CLST         530          1.0000000000
      1589       530  TIP3  H1           -4.3324343656       -6.6459919263      -13.1201503589  CLST         530          1.0000000000
      1590       530  TIP3  H2           -3.5015749251       -5.4052603225      -13.3776492663  CLST         530          1.0000000000
      1591       531  TIP3  OH2         -11.5511613692       -0.2993024590       10.4642182980  CLST         531          1.0000000000
      1592       531  TIP3  H1          -12.3346440797       -0.1656448880       10.9366102412  CLST         531          1.0000000000
      1593       531  TIP3  H2          -11.7572296436       -0.9045417205        9.7863621345  CLST         531          1.0000000000
      1594       532  TIP3  OH2         -12.0860783481       -3.1195167601       -8.7292323127  CLST         532          1.0000000000
      1595       532  TIP3  H1          -12.9354178729       -3.4084375378       -8.4727709154  CLST         532          1.0000000000
      1596       532  TIP3  H2          -12.1092817518       -3.3286120937       -9.6908317238  CLST         532          1.0000000000
      1597       533  TIP3  OH2          -2.8500599232       -7.2583514291        8.7148069673  CLST         533          1.0000000000
      1598       533  TIP3  H1           -2.1167561060       -7.8722483268        8.6911404562  CLST         533          1.0000000000
      1599       533  TIP3  H2           -2.3458245870       -6.4904466446        8.4017730213  CLST         533          1.0000000000
      1600       534  TIP3  OH2           0.3622378315      -13.1328643628       -7.6813791574  CLST         534          1.0000000000
      1601       534  TIP3  H1            0.8102197373      -13.2683268423       -8.5168018553  CLST         534          1.0000000000
      1602       534  TIP3  H2            1.1880830959      -13.2198657786       -7.1618503170  CLST         534          1.0000000000
      1603       535  TIP3  OH2           2.6775133569        3.2125801292       -7.5282595932  CLST         535          1.0000000000
      1604       535  TIP3  H1            3.2142782483        2.6930493459       -6.9179736321  CLST         535          1.0000000000
      1605       535  TIP3  H2            1.8060059185        2.8167036407       -7.4010297375  CLST         535          1.0000000000
      1606       536  TIP3  OH2           8.0126931889      -12.6995043309       -3.4488460339  CLST         536          1.0000000000
      1607       536  TIP3  H1            7.2437417562      -12.5827730082       -3.9802811547  CLST         536          1.0000000000
      1608       536  TIP3  H2            8.3134021450      -13.5432706832       -3.6165057679  CLST         536          1.0000000000
      1609       537  TIP3  OH2          11.6840706731       -2.6246105428       -7.5287145749  CLST         537          1.0000000000
      1610       537  TIP3  H1           11.3618547999       -1.7831861360       -7.2183523475  CLST         537          1.0000000000
      1611       537  TIP3  H2           12.5931226997       -2.3820561888       -7.5171622669  CLST         537          1.0000000000
      1612       538  TIP3  OH2          -5.2174501702      -10.9776002946        0.8242951536  CLST         538          1.0000000000
      1613       538  TIP3  H1           -4.3872221469      -11.1155487738        1.3387389680  CLST         538          1.0000000000
      1614       538  TIP3  H2           -5.0802580334      -10.0028491261        0.6895559181  CLST         538          1.0000000000
      1615       539  TIP3  OH2           2.5009253578       -5.0621306743        0.8389286908  CLST         539          1.0000000000
      1616       539  TIP3  H1            1.6241946209       -5.3965540020        1.0712370980  CLST         539          1.0000000000
      1617       539  TIP3  H2            2.3828479511       -5.0061806878       -0.0868427712  CLST         539          1.0000000000
      1618       540  TIP3  OH2           3.9564043345       -6.7643359877        4.8035885699  CLST         540          1.0000000000
      1619       540  TIP3  H1            3.7313201940       -7.6305108997        5.1736576707  CLST         540          1.0000000000
      1620       540  TIP3  H2            4.2019012113       -7.0734491693        3.9176254273  CLST         540          1.0000000000
      1621       541  TIP3  OH2          -5.5469263624       10.4762001019        2.0550718817  CLST         541          1.0000000000
      1622       541  TIP3  H1           -6.0071868512       10.5017974667        2.9030038189  CLST         541          1.0000000000
      1623       541  TIP3  H2           -4.8965215268       11.1793162157        2.2343246768  CLST         541          1.0000000000
      1624       542  TIP3  OH2         -10.9695035697       14.4588587953        5.5363227264  CLST         542          1.0000000000
      1625       542  TIP3  H1          -10.2850143052       15.0359886568        5.2683197628  CLST         542          1.0000000000
      1626       542  TIP3  H2          -10.9508632649       13.9168769876        4.7268290632  CLST         542          1.0000000000
      1627       543  TIP3  OH2         -10.6305724934       11.4014155742       -2.4261599693  CLST         543          1.0000000000
      1628       543  TIP3  H1          -11.5287616598       11.2138304880       -2.6621994932  CLST         543          1.0000000000
      1629       543  TIP3  H2          -10.3345713274       11.5550923605       -3.3304407951  CLST         543          1.0000000000
      1630       544  TIP3  OH2          -0.3862290338        5.5496347010       -5.4859068317  CLST         544          1.0000000000
      1631       544  TIP3  H1           -0.3697765122        5.2305991501       -6.4569970045  CLST         544          1.0000000000
      1632       544  TIP3  H2            0.3650829828        5.1806267978       -5.0524322333  CLST         544          1.0000000000
      1633       545  TIP3  OH2          -7.9734423253        2.3754588624      -12.7689350900  CLST         545          1.0000000000
      1634       545  TIP3  H1           -8.0353156474        2.1570261450      -13.7268466743  CLST         545          1.0000000000
      1635       545  TIP3  H2           -8.5416016858        3.1387560409      -12.7405951507  CLST         545          1.0000000000
      1636       546  TIP3  OH2           3.8520666478       11.1076751400       -2.2337395741  CLST         546          1.0000000000
      1637       546  TIP3  H1            3.4203888082       10.2722739754       -2.3602847153  CLST         546          1.0000000000
      1638       546  TIP3  H2            4.2574215415       10.9508869763       -1.3556337025  CLST         546          1.0000000000
      1639       547  TIP3  OH2          -3.4323059356       -2.2242215281      -11.0688497109  CLST         547          1.0000000000
      1640       547  TIP3  H1           -3.4100127194       -2.3678695674      -10.0938759655  CLST         547          1.0000000000
      1641       547  TIP3  H2           -3.9495302606       -1.4184656241      -11.1248277177  CLST         547          1.0000000000
      1642       548  TIP3  OH2          10.5689513464        2.3391956030        1.4198890939  CLST         548          1.0000000000
      1643       548  TIP3  H1            9.5884194627        2.3011587530        1.4142359991  CLST         548          1.0000000000
      1644       548  TIP3  H2           10.5655709380        2.9380604364        2.1898180664  CLST         548          1.0000000000
