* Geometry rescue: heat segment 2/8 at step 2500
*
        1644  EXT
         1         1  TIP3  OH2           4.5885801973       -1.5104683463       -2.2905915629  CLST           1          1.0000000000
         2         1  TIP3  H1            4.9024424664       -1.6902031189       -1.3540981627  CLST           1          1.0000000000
         3         1  TIP3  H2            5.2502350707       -2.1350267055       -2.7307763282  CLST           1          1.0000000000
         4         2  TIP3  OH2          10.7164150696        7.4067118199      -11.8403585466  CLST           2          1.0000000000
         5         2  TIP3  H1           11.0959222274        7.3320645968      -10.9247352401  CLST           2          1.0000000000
         6         2  TIP3  H2            9.7994920185        7.1544379804      -11.6295628758  CLST           2          1.0000000000
         7         3  TIP3  OH2           8.9015088924        5.3215702685       -4.1899250020  CLST           3          1.0000000000
         8         3  TIP3  H1            9.1710172573        5.6435325631       -3.3033733518  CLST           3          1.0000000000
         9         3  TIP3  H2            8.8191435044        6.1158744761       -4.7336363479  CLST           3          1.0000000000
        10         4  TIP3  OH2          -2.8146064523        6.6190258014       10.0683156007  CLST           4          1.0000000000
        11         4  TIP3  H1           -3.5682816159        6.9418946346        9.5208511408  CLST           4          1.0000000000
        12         4  TIP3  H2           -3.0628070625        7.1621167162       10.8545238701  CLST           4          1.0000000000
        13         5  TIP3  OH2           9.1102504131        6.1515464936       10.6474368966  CLST           5          1.0000000000
        14         5  TIP3  H1            8.5619267526        5.6136769230       11.2985542560  CLST           5          1.0000000000
        15         5  TIP3  H2            9.0215261072        5.4873003019        9.9090248766  CLST           5          1.0000000000
        16         6  TIP3  OH2          10.5133897498       -5.9615716391      -11.6448094637  CLST           6          1.0000000000
        17         6  TIP3  H1           11.0328799851       -5.4945012244      -10.9455776732  CLST           6          1.0000000000
        18         6  TIP3  H2           10.5593497474       -5.2165115606      -12.3214050857  CLST           6          1.0000000000
        19         7  TIP3  OH2         -12.3152747424        8.3090903140        5.7904399056  CLST           7          1.0000000000
        20         7  TIP3  H1          -12.7619929786        9.1211317499        6.1463735609  CLST           7          1.0000000000
        21         7  TIP3  H2          -11.5128315455        8.4161763319        6.3729520123  CLST           7          1.0000000000
        22         8  TIP3  OH2          -4.4608628418       -8.3132978197        0.5215614702  CLST           8          1.0000000000
        23         8  TIP3  H1           -4.8684794087       -7.8717741891        1.3054020524  CLST           8          1.0000000000
        24         8  TIP3  H2           -3.6916229152       -7.7519128904        0.3037925110  CLST           8          1.0000000000
        25         9  TIP3  OH2           2.6678872936      -14.1979968338       -4.1577540399  CLST           9          1.0000000000
        26         9  TIP3  H1            1.7331564386      -14.4047196603       -3.8877191607  CLST           9          1.0000000000
        27         9  TIP3  H2            2.8127428045      -13.5598945021       -3.4154753904  CLST           9          1.0000000000
        28        10  TIP3  OH2         -14.1126170162       -1.1839375412       -0.3433398973  CLST          10          1.0000000000
        29        10  TIP3  H1          -13.5730025498       -1.5308903957       -1.1725969105  CLST          10          1.0000000000
        30        10  TIP3  H2          -14.6578992278       -1.7288038160        0.0251476896  CLST          10          1.0000000000
        31        11  TIP3  OH2           6.9503358311        6.7991734262       -1.8672250116  CLST          11          1.0000000000
        32        11  TIP3  H1            7.2772058737        5.8950594119       -1.6871100512  CLST          11          1.0000000000
        33        11  TIP3  H2            6.9075830813        6.7939191107       -2.8511520689  CLST          11          1.0000000000
        34        12  TIP3  OH2          -8.2868646759        2.7381924112        1.9022973416  CLST          12          1.0000000000
        35        12  TIP3  H1           -7.7852366713        2.8819355721        1.0437424169  CLST          12          1.0000000000
        36        12  TIP3  H2           -9.2088221891        2.7200525854        1.4475004082  CLST          12          1.0000000000
        37        13  TIP3  OH2           7.7148239324        2.3462506060        2.1368074346  CLST          13          1.0000000000
        38        13  TIP3  H1            7.7101876313        3.2458876127        1.6899695589  CLST          13          1.0000000000
        39        13  TIP3  H2            7.6102571293        2.6486238779        3.0852699722  CLST          13          1.0000000000
        40        14  TIP3  OH2          -0.3877544509        2.2398347053        7.9871997637  CLST          14          1.0000000000
        41        14  TIP3  H1           -0.0683138653        3.1399005053        7.6859056893  CLST          14          1.0000000000
        42        14  TIP3  H2            0.2802797819        1.6942237771        7.4966439291  CLST          14          1.0000000000
        43        15  TIP3  OH2          -8.9730094336       -3.8860881425      -12.6574022995  CLST          15          1.0000000000
        44        15  TIP3  H1           -8.1401533395       -3.9414240473      -13.2008813871  CLST          15          1.0000000000
        45        15  TIP3  H2           -8.5356024479       -4.5271432546      -11.9865008393  CLST          15          1.0000000000
        46        16  TIP3  OH2          -3.7729593265      -12.7041365666       -6.1897759974  CLST          16          1.0000000000
        47        16  TIP3  H1           -4.3615601590      -12.7333044257       -5.3821081494  CLST          16          1.0000000000
        48        16  TIP3  H2           -2.8580423603      -12.7289734718       -5.7913120029  CLST          16          1.0000000000
        49        17  TIP3  OH2           4.8504105900      -13.3462191680       -8.5142721769  CLST          17          1.0000000000
        50        17  TIP3  H1            5.5055151880      -13.2327002561       -7.7596192083  CLST          17          1.0000000000
        51        17  TIP3  H2            4.1065181781      -13.5364307926       -7.9063803804  CLST          17          1.0000000000
        52        18  TIP3  OH2         -11.6588748983       -6.7245840295       -1.4725078361  CLST          18          1.0000000000
        53        18  TIP3  H1          -12.0743137906       -5.8245388045       -1.7978252474  CLST          18          1.0000000000
        54        18  TIP3  H2          -11.7174687238       -7.0671695051       -2.4341180533  CLST          18          1.0000000000
        55        19  TIP3  OH2          10.9988198259       -0.0273455366        9.5577065267  CLST          19          1.0000000000
        56        19  TIP3  H1           10.6456634690       -0.8706490663        9.8994251069  CLST          19          1.0000000000
        57        19  TIP3  H2           11.1890143188       -0.2976200682        8.6320774455  CLST          19          1.0000000000
        58        20  TIP3  OH2         -13.2404836099        1.5273313388        2.8045594562  CLST          20          1.0000000000
        59        20  TIP3  H1          -13.0600536676        1.1983796951        1.8833269469  CLST          20          1.0000000000
        60        20  TIP3  H2          -14.1745450660        1.6921029519        2.7823328849  CLST          20          1.0000000000
        61        21  TIP3  OH2         -10.0767905211       12.5366557742       -5.2761061833  CLST          21          1.0000000000
        62        21  TIP3  H1          -10.4107085820       13.3456626619       -5.5351885658  CLST          21          1.0000000000
        63        21  TIP3  H2           -9.4761664582       12.2437992157       -5.9676287869  CLST          21          1.0000000000
        64        22  TIP3  OH2           2.7029733825       12.1964860339       -6.4707890006  CLST          22          1.0000000000
        65        22  TIP3  H1            3.2729261029       11.4689108980       -6.2453789744  CLST          22          1.0000000000
        66        22  TIP3  H2            3.0526762118       12.8006625194       -5.5903386238  CLST          22          1.0000000000
        67        23  TIP3  OH2           5.6380995828       -1.7698015339       11.4741617551  CLST          23          1.0000000000
        68        23  TIP3  H1            5.3292032601       -2.3661412424       10.7832802967  CLST          23          1.0000000000
        69        23  TIP3  H2            5.3547916411       -0.9138680776       11.1016623243  CLST          23          1.0000000000
        70        24  TIP3  OH2          -0.1579697179        1.0968649218        4.4361581545  CLST          24          1.0000000000
        71        24  TIP3  H1            0.7400690785        1.0221646451        4.7632692674  CLST          24          1.0000000000
        72        24  TIP3  H2           -0.6555658571        0.3934155592        4.9644704170  CLST          24          1.0000000000
        73        25  TIP3  OH2           3.2598157567        1.9869295298       -2.5886057953  CLST          25          1.0000000000
        74        25  TIP3  H1            3.6313600823        1.4176058874       -1.8848793399  CLST          25          1.0000000000
        75        25  TIP3  H2            3.7464484746        2.8332653426       -2.4154429203  CLST          25          1.0000000000
        76        26  TIP3  OH2          11.4107896391        5.4114126518       -6.6387622349  CLST          26          1.0000000000
        77        26  TIP3  H1           10.5535187924        5.1636741328       -7.0338397549  CLST          26          1.0000000000
        78        26  TIP3  H2           11.1087163450        6.1977449727       -6.1389459757  CLST          26          1.0000000000
        79        27  TIP3  OH2         -10.2999073169        7.4497401276       -5.5606460086  CLST          27          1.0000000000
        80        27  TIP3  H1          -10.3120304515        8.1120215094       -4.8538466289  CLST          27          1.0000000000
        81        27  TIP3  H2          -10.9008577143        7.7503148229       -6.2215864046  CLST          27          1.0000000000
        82        28  TIP3  OH2          -4.2818994415      -10.2436968432       -6.7716709550  CLST          28          1.0000000000
        83        28  TIP3  H1           -4.1179154547      -11.2554446364       -6.6840971041  CLST          28          1.0000000000
        84        28  TIP3  H2           -5.0170859890      -10.1477910196       -6.1190275687  CLST          28          1.0000000000
        85        29  TIP3  OH2         -10.8019566638        7.6565991533       -2.5039327968  CLST          29          1.0000000000
        86        29  TIP3  H1          -10.2500689968        8.3038361783       -1.9511093282  CLST          29          1.0000000000
        87        29  TIP3  H2          -11.5562200175        8.3180547328       -2.6194513824  CLST          29          1.0000000000
        88        30  TIP3  OH2           8.7909721806      -10.4648576479       -2.1745546060  CLST          30          1.0000000000
        89        30  TIP3  H1            9.2770672838      -10.8808731718       -1.4392118653  CLST          30          1.0000000000
        90        30  TIP3  H2            8.5054984176      -11.2875006550       -2.6981917984  CLST          30          1.0000000000
        91        31  TIP3  OH2          -9.7202361781       -1.1377551559      -13.0366975659  CLST          31          1.0000000000
        92        31  TIP3  H1           -9.5352138137       -2.0893655238      -12.8574249829  CLST          31          1.0000000000
        93        31  TIP3  H2           -9.6260667299       -0.7314432954      -12.1524956229  CLST          31          1.0000000000
        94        32  TIP3  OH2          -8.8372956830       -6.5120973556        6.9237458427  CLST          32          1.0000000000
        95        32  TIP3  H1           -9.8027350409       -6.3767023374        6.9152126017  CLST          32          1.0000000000
        96        32  TIP3  H2           -8.5623307750       -5.7997829544        6.2877505322  CLST          32          1.0000000000
        97        33  TIP3  OH2          11.7849196351       -9.0344886376        8.7643900974  CLST          33          1.0000000000
        98        33  TIP3  H1           11.7948319424      -10.0220614372        8.9117675238  CLST          33          1.0000000000
        99        33  TIP3  H2           11.2538943931       -8.8314571467        9.5716839387  CLST          33          1.0000000000
       100        34  TIP3  OH2           4.2023080757       -3.9154102089        2.9356476291  CLST          34          1.0000000000
       101        34  TIP3  H1            3.6598090041       -4.1583852528        2.1484140017  CLST          34          1.0000000000
       102        34  TIP3  H2            4.2217823033       -4.7610660255        3.4279976325  CLST          34          1.0000000000
       103        35  TIP3  OH2           6.1244205347       -0.8597337846        4.3736519561  CLST          35          1.0000000000
       104        35  TIP3  H1            5.2166581840       -1.1859714886        4.6621769434  CLST          35          1.0000000000
       105        35  TIP3  H2            6.4039138674       -0.2860003952        5.1156792714  CLST          35          1.0000000000
       106        36  TIP3  OH2          -1.4633563478        1.4454220948        2.2217627893  CLST          36          1.0000000000
       107        36  TIP3  H1           -2.1559276589        0.7967179999        2.0808397551  CLST          36          1.0000000000
       108        36  TIP3  H2           -1.0985264303        1.2193707605        3.1281157123  CLST          36          1.0000000000
       109        37  TIP3  OH2          -4.3333472379       -8.1498319513      -13.1365577780  CLST          37          1.0000000000
       110        37  TIP3  H1           -4.8231556939       -8.4862447654      -12.3767001150  CLST          37          1.0000000000
       111        37  TIP3  H2           -3.9443145738       -9.0023452749      -13.4705633985  CLST          37          1.0000000000
       112        38  TIP3  OH2          -3.1396074191        2.0741027370       -4.5445228287  CLST          38          1.0000000000
       113        38  TIP3  H1           -3.1010948527        3.0668745511       -4.6442849303  CLST          38          1.0000000000
       114        38  TIP3  H2           -3.7321662794        1.8504379380       -5.2991077922  CLST          38          1.0000000000
       115        39  TIP3  OH2           1.6449847601      -11.0331525497        2.0327909012  CLST          39          1.0000000000
       116        39  TIP3  H1            1.4010857364      -11.5403233918        2.8570123403  CLST          39          1.0000000000
       117        39  TIP3  H2            0.7087438878      -10.7137615522        1.8057656383  CLST          39          1.0000000000
       118        40  TIP3  OH2          -7.0091447083       12.5498577865        8.1758949015  CLST          40          1.0000000000
       119        40  TIP3  H1           -7.9200430715       12.7492240573        7.8882105981  CLST          40          1.0000000000
       120        40  TIP3  H2           -6.4827652605       12.7345320107        7.3414535135  CLST          40          1.0000000000
       121        41  TIP3  OH2           9.7685187359       -2.2832784278      -11.0791850791  CLST          41          1.0000000000
       122        41  TIP3  H1            9.0486143998       -2.8867191682      -10.7159206107  CLST          41          1.0000000000
       123        41  TIP3  H2            9.2887206819       -1.4603488003      -10.8930915080  CLST          41          1.0000000000
       124        42  TIP3  OH2           9.6728292464       10.3277877476      -10.6244877817  CLST          42          1.0000000000
       125        42  TIP3  H1           10.4533998259       10.3744078941      -10.0374273182  CLST          42          1.0000000000
       126        42  TIP3  H2           10.1731533842       10.3142728323      -11.5062969846  CLST          42          1.0000000000
       127        43  TIP3  OH2          11.9728356350       12.5874183695        7.7235477811  CLST          43          1.0000000000
       128        43  TIP3  H1           12.5398647306       13.3310247617        7.7434047324  CLST          43          1.0000000000
       129        43  TIP3  H2           12.4447439847       11.8778056535        8.2726149179  CLST          43          1.0000000000
       130        44  TIP3  OH2           7.7785313371        0.9304641497        6.0614619837  CLST          44          1.0000000000
       131        44  TIP3  H1            7.9675103606        1.4724840737        6.9009212222  CLST          44          1.0000000000
       132        44  TIP3  H2            7.5481307909        1.7054001674        5.4757336563  CLST          44          1.0000000000
       133        45  TIP3  OH2           7.7900459143        9.4055286093        7.3425821110  CLST          45          1.0000000000
       134        45  TIP3  H1            7.6841238158        8.4544002802        7.6019289781  CLST          45          1.0000000000
       135        45  TIP3  H2            8.6836581964        9.5701753715        7.7380419871  CLST          45          1.0000000000
       136        46  TIP3  OH2          -5.7857839648       -3.1882746457      -12.9628631079  CLST          46          1.0000000000
       137        46  TIP3  H1           -5.4205182817       -4.1449144490      -13.0620658968  CLST          46          1.0000000000
       138        46  TIP3  H2           -5.0472440631       -2.9598482604      -12.3418971499  CLST          46          1.0000000000
       139        47  TIP3  OH2           1.2678222357       -6.5648104150      -11.0506551895  CLST          47          1.0000000000
       140        47  TIP3  H1            1.6571531842       -5.7330659462      -10.7421912551  CLST          47          1.0000000000
       141        47  TIP3  H2            1.3843139755       -6.4161194976      -12.0011429898  CLST          47          1.0000000000
       142        48  TIP3  OH2           5.0525822463        5.6344757460        1.0805866375  CLST          48          1.0000000000
       143        48  TIP3  H1            6.0088250461        5.3209657810        0.8997004335  CLST          48          1.0000000000
       144        48  TIP3  H2            5.3122333800        6.6190771402        0.9959012992  CLST          48          1.0000000000
       145        49  TIP3  OH2          -3.3521649233      -10.6496499356      -13.7394217469  CLST          49          1.0000000000
       146        49  TIP3  H1           -2.5015039164      -10.9594187264      -13.9226828905  CLST          49          1.0000000000
       147        49  TIP3  H2           -3.7162465123      -11.2275083497      -13.0381739892  CLST          49          1.0000000000
       148        50  TIP3  OH2           2.8429137237        3.8465997549        5.9173036355  CLST          50          1.0000000000
       149        50  TIP3  H1            2.0209884058        4.2294874175        6.3530577119  CLST          50          1.0000000000
       150        50  TIP3  H2            2.4841168607        3.5948778991        5.0199720802  CLST          50          1.0000000000
       151        51  TIP3  OH2          -6.4816079652       -9.9658311432       -4.6384284684  CLST          51          1.0000000000
       152        51  TIP3  H1           -6.6462786135       -9.8063865418       -3.6438435533  CLST          51          1.0000000000
       153        51  TIP3  H2           -6.2532894261      -10.9480257753       -4.5650915975  CLST          51          1.0000000000
       154        52  TIP3  OH2           9.0837671412       -5.6030235487       -0.1383531567  CLST          52          1.0000000000
       155        52  TIP3  H1            9.3673569240       -5.5632820932       -1.1102316052  CLST          52          1.0000000000
       156        52  TIP3  H2            9.1259895908       -4.6299979140        0.1064297050  CLST          52          1.0000000000
       157        53  TIP3  OH2          -9.6522933806        9.9323787719      -12.3138230233  CLST          53          1.0000000000
       158        53  TIP3  H1           -9.7205632308       10.0291217642      -13.2679365708  CLST          53          1.0000000000
       159        53  TIP3  H2           -8.7437261431        9.4302492068      -12.2884728130  CLST          53          1.0000000000
       160        54  TIP3  OH2           0.4227362293       -2.9227928430       -9.5430121396  CLST          54          1.0000000000
       161        54  TIP3  H1            1.1463447086       -3.2352807083      -10.1082143869  CLST          54          1.0000000000
       162        54  TIP3  H2           -0.0736584527       -2.3223626941      -10.1756897837  CLST          54          1.0000000000
       163        55  TIP3  OH2           2.8942024546       -4.1623400505      -14.7009668504  CLST          55          1.0000000000
       164        55  TIP3  H1            3.0095969237       -5.0507455735      -14.2731510570  CLST          55          1.0000000000
       165        55  TIP3  H2            3.1215362530       -4.3167318274      -15.6184656888  CLST          55          1.0000000000
       166        56  TIP3  OH2          -9.9545547893       11.0665367882        5.7246197430  CLST          56          1.0000000000
       167        56  TIP3  H1          -10.0559164856       10.1654777293        6.0885655315  CLST          56          1.0000000000
       168        56  TIP3  H2          -10.1210981197       10.9508663142        4.7607709278  CLST          56          1.0000000000
       169        57  TIP3  OH2           1.6205276579      -13.2336004383        0.4464122223  CLST          57          1.0000000000
       170        57  TIP3  H1            1.7138489037      -12.4363663465        1.0195363698  CLST          57          1.0000000000
       171        57  TIP3  H2            2.4314298421      -13.0336957985       -0.1067284230  CLST          57          1.0000000000
       172        58  TIP3  OH2         -13.1895054455       10.6115190712        6.9338137228  CLST          58          1.0000000000
       173        58  TIP3  H1          -12.5792333720       11.3328741635        6.6626582972  CLST          58          1.0000000000
       174        58  TIP3  H2          -12.8643691595       10.5206770618        7.8603545945  CLST          58          1.0000000000
       175        59  TIP3  OH2         -11.4957198724       -2.7214024311        5.5532539458  CLST          59          1.0000000000
       176        59  TIP3  H1          -11.6879621088       -2.3051594721        6.4399018831  CLST          59          1.0000000000
       177        59  TIP3  H2          -11.5733317087       -1.9349758058        4.9477258217  CLST          59          1.0000000000
       178        60  TIP3  OH2           1.4022060807        9.5885701602        8.5648536233  CLST          60          1.0000000000
       179        60  TIP3  H1            0.6868175411        8.9972437192        8.1509759942  CLST          60          1.0000000000
       180        60  TIP3  H2            1.8958197610        8.7898558687        8.9055062459  CLST          60          1.0000000000
       181        61  TIP3  OH2           2.7436641003       -0.6632256567       -5.4917930435  CLST          61          1.0000000000
       182        61  TIP3  H1            3.2846776339       -1.5095044329       -5.4052487967  CLST          61          1.0000000000
       183        61  TIP3  H2            2.0964031491       -0.9455192992       -6.1879743132  CLST          61          1.0000000000
       184        62  TIP3  OH2           7.9834334861        8.3324270602       12.4616451595  CLST          62          1.0000000000
       185        62  TIP3  H1            8.1213974049        7.6063391036       11.8111556048  CLST          62          1.0000000000
       186        62  TIP3  H2            8.2707123818        9.0691482458       11.8692415841  CLST          62          1.0000000000
       187        63  TIP3  OH2           4.4725498724       -6.9429618366      -10.3214338854  CLST          63          1.0000000000
       188        63  TIP3  H1            3.5853989794       -6.9386508139      -10.7381478633  CLST          63          1.0000000000
       189        63  TIP3  H2            5.0336002707       -7.3839515891      -10.9888362826  CLST          63          1.0000000000
       190        64  TIP3  OH2          -2.4323944922       11.8524111810        5.4386751283  CLST          64          1.0000000000
       191        64  TIP3  H1           -2.3061857343       10.8664473383        5.3989819992  CLST          64          1.0000000000
       192        64  TIP3  H2           -1.7552228138       11.9561961125        6.2006718739  CLST          64          1.0000000000
       193        65  TIP3  OH2          10.9010486081       -4.3288080870       -5.3275886320  CLST          65          1.0000000000
       194        65  TIP3  H1           11.1120920793       -4.0685793199       -6.2727074412  CLST          65          1.0000000000
       195        65  TIP3  H2           11.2318318426       -3.5170238093       -4.8982150993  CLST          65          1.0000000000
       196        66  TIP3  OH2           6.2365369911       -9.8848551441        9.4634628675  CLST          66          1.0000000000
       197        66  TIP3  H1            5.5312829514       -9.8905347430        8.7551671132  CLST          66          1.0000000000
       198        66  TIP3  H2            6.7322264571       -9.1458711686        9.0323144859  CLST          66          1.0000000000
       199        67  TIP3  OH2         -11.6155729175       -7.6069524161       -3.8723098590  CLST          67          1.0000000000
       200        67  TIP3  H1          -10.7644854747       -7.2952535356       -4.2644851513  CLST          67          1.0000000000
       201        67  TIP3  H2          -12.1290496234       -7.8717880499       -4.6395251993  CLST          67          1.0000000000
       202        68  TIP3  OH2          -0.6769008232       -5.4909508340        5.3361508813  CLST          68          1.0000000000
       203        68  TIP3  H1            0.3158034409       -5.3505296436        5.5679037533  CLST          68          1.0000000000
       204        68  TIP3  H2           -0.9795195864       -5.4105053955        6.2851067254  CLST          68          1.0000000000
       205        69  TIP3  OH2           8.0173654791       11.4942415648       -8.7525123799  CLST          69          1.0000000000
       206        69  TIP3  H1            8.3453235033       11.1295856779       -9.6280054692  CLST          69          1.0000000000
       207        69  TIP3  H2            8.9392403059       11.6080107023       -8.3451762037  CLST          69          1.0000000000
       208        70  TIP3  OH2          -1.0890711851      -12.3823870854       -0.5283912321  CLST          70          1.0000000000
       209        70  TIP3  H1           -0.1056175493      -12.3354733970       -0.5424393191  CLST          70          1.0000000000
       210        70  TIP3  H2           -1.1756996087      -12.5919902660        0.4379108926  CLST          70          1.0000000000
       211        71  TIP3  OH2         -10.2942068973       -7.3979357273        1.9887534056  CLST          71          1.0000000000
       212        71  TIP3  H1          -11.0196589514       -6.8439930128        2.3116609434  CLST          71          1.0000000000
       213        71  TIP3  H2          -10.7284496979       -7.9607126180        1.3282822050  CLST          71          1.0000000000
       214        72  TIP3  OH2           0.3451071367        2.0325153749       -1.4697062973  CLST          72          1.0000000000
       215        72  TIP3  H1           -0.0332408492        1.1124223443       -1.5370864573  CLST          72          1.0000000000
       216        72  TIP3  H2            1.0722732773        1.9403104819       -2.0997334739  CLST          72          1.0000000000
       217        73  TIP3  OH2          -9.6313077485       13.1010535192        7.4799757923  CLST          73          1.0000000000
       218        73  TIP3  H1           -9.7694936677       12.3216254375        6.8656294041  CLST          73          1.0000000000
       219        73  TIP3  H2          -10.1407130552       13.7171297101        6.8154319052  CLST          73          1.0000000000
       220        74  TIP3  OH2           6.5486548450       -2.8350472321       -3.5906370568  CLST          74          1.0000000000
       221        74  TIP3  H1            6.7224739000       -3.8172928971       -3.8296492216  CLST          74          1.0000000000
       222        74  TIP3  H2            7.4621157981       -2.5458615932       -3.4083451350  CLST          74          1.0000000000
       223        75  TIP3  OH2           2.8176529889      -13.3088234243       -6.6336600395  CLST          75          1.0000000000
       224        75  TIP3  H1            3.0364121970      -12.3779844179       -6.3340518693  CLST          75          1.0000000000
       225        75  TIP3  H2            2.8204024518      -13.7017137466       -5.7083675859  CLST          75          1.0000000000
       226        76  TIP3  OH2           3.8862933730       -9.7982882042        1.1400650847  CLST          76          1.0000000000
       227        76  TIP3  H1            3.8264247096       -8.8357136274        1.3438372127  CLST          76          1.0000000000
       228        76  TIP3  H2            3.0614514115      -10.1676081708        1.5520799539  CLST          76          1.0000000000
       229        77  TIP3  OH2          10.2396524850       -8.2843099220       -2.6953406812  CLST          77          1.0000000000
       230        77  TIP3  H1            9.8110212279       -9.1939100287       -2.5827775542  CLST          77          1.0000000000
       231        77  TIP3  H2           10.3422302394       -8.2841403014       -3.6655214741  CLST          77          1.0000000000
       232        78  TIP3  OH2          10.7229274057       11.6923324915       -7.8351039378  CLST          78          1.0000000000
       233        78  TIP3  H1           11.3599652112       10.9679420489       -8.1340889992  CLST          78          1.0000000000
       234        78  TIP3  H2           11.0706713108       12.2357407153       -7.3083142335  CLST          78          1.0000000000
       235        79  TIP3  OH2          12.8239125490        0.6658759078        1.1615240620  CLST          79          1.0000000000
       236        79  TIP3  H1           13.4592573732        0.8622107149        1.8226800162  CLST          79          1.0000000000
       237        79  TIP3  H2           12.1241355586        1.3658403462        1.3336086259  CLST          79          1.0000000000
       238        80  TIP3  OH2          -7.4044044347        0.0419316446        6.6481792988  CLST          80          1.0000000000
       239        80  TIP3  H1           -7.2201335494        0.0839905823        5.6890657322  CLST          80          1.0000000000
       240        80  TIP3  H2           -6.4140880020       -0.0496195297        6.9017915841  CLST          80          1.0000000000
       241        81  TIP3  OH2          -7.4278043759      -10.8384265516        2.1076459848  CLST          81          1.0000000000
       242        81  TIP3  H1           -6.6522031759      -11.0682856075        1.5154570047  CLST          81          1.0000000000
       243        81  TIP3  H2           -6.9945430184      -11.1081403746        2.9651133025  CLST          81          1.0000000000
       244        82  TIP3  OH2          -1.5593640365       -9.8995521530       -6.5406796720  CLST          82          1.0000000000
       245        82  TIP3  H1           -2.5201611486       -9.8588105992       -6.5392333070  CLST          82          1.0000000000
       246        82  TIP3  H2           -1.3793171020      -10.6095409343       -5.9127208022  CLST          82          1.0000000000
       247        83  TIP3  OH2          12.2706229025       -8.5794613687        1.6189422408  CLST          83          1.0000000000
       248        83  TIP3  H1           12.5061698192       -7.8982447279        2.3018832115  CLST          83          1.0000000000
       249        83  TIP3  H2           11.2871496324       -8.3863221033        1.5462864412  CLST          83          1.0000000000
       250        84  TIP3  OH2          -3.5878605593       10.8768688452       -2.0511852301  CLST          84          1.0000000000
       251        84  TIP3  H1           -5.1181853416       11.1721645606       -2.1912149451  CLST          84          1.0000000000
       252        84  TIP3  H2           -3.8837678735       11.6808752125       -2.0896805348  CLST          84          1.0000000000
       253        85  TIP3  OH2           5.9216216067       -1.9959796716       -0.0437283199  CLST          85          1.0000000000
       254        85  TIP3  H1            6.0591209830       -1.4658137542        0.7999324683  CLST          85          1.0000000000
       255        85  TIP3  H2            6.5669823026       -2.7152544649        0.1020040834  CLST          85          1.0000000000
       256        86  TIP3  OH2           6.6574905189       -8.4400163368        5.8415034776  CLST          86          1.0000000000
       257        86  TIP3  H1            5.8871616682       -8.5290681205        6.4470570034  CLST          86          1.0000000000
       258        86  TIP3  H2            6.6140422170       -7.4849136922        5.5891468864  CLST          86          1.0000000000
       259        87  TIP3  OH2          -1.3254750751       -3.7942484599       10.6366959028  CLST          87          1.0000000000
       260        87  TIP3  H1           -0.7139342896       -4.0408644947       11.3374802143  CLST          87          1.0000000000
       261        87  TIP3  H2           -2.1677466308       -4.2913236371       10.7962925639  CLST          87          1.0000000000
       262        88  TIP3  OH2          -0.8264381077        4.3870807699       -7.9917713009  CLST          88          1.0000000000
       263        88  TIP3  H1           -1.0073421484        3.3809956399       -7.8973911980  CLST          88          1.0000000000
       264        88  TIP3  H2           -1.7832816254        4.6309915770       -8.1125118614  CLST          88          1.0000000000
       265        89  TIP3  OH2           3.4960630734        0.6971125003      -11.7461193201  CLST          89          1.0000000000
       266        89  TIP3  H1            3.7433083747        1.1367969274      -12.5519197185  CLST          89          1.0000000000
       267        89  TIP3  H2            3.2465982661       -0.0696376766      -12.2676762682  CLST          89          1.0000000000
       268        90  TIP3  OH2           5.5729389127       11.1630472734       -5.4613065659  CLST          90          1.0000000000
       269        90  TIP3  H1            5.1107332203       12.3818062340       -5.3531897272  CLST          90          1.0000000000
       270        90  TIP3  H2            5.4765214473       12.2521332217       -6.2354600409  CLST          90          1.0000000000
       271        91  TIP3  OH2           5.9384029164       -7.9801820066      -12.3044297353  CLST          91          1.0000000000
       272        91  TIP3  H1            6.2187435836       -8.9345448077      -12.3552089686  CLST          91          1.0000000000
       273        91  TIP3  H2            6.8309415694       -7.5664401507      -12.0887751084  CLST          91          1.0000000000
       274        92  TIP3  OH2           9.8781201811       11.5460934940        2.5630247820  CLST          92          1.0000000000
       275        92  TIP3  H1           10.1827876491       11.6293787783        3.4746034835  CLST          92          1.0000000000
       276        92  TIP3  H2            9.6803061219       12.5122980554        2.4056779665  CLST          92          1.0000000000
       277        93  TIP3  OH2          -8.8287052227        7.3425348826        2.6844864475  CLST          93          1.0000000000
       278        93  TIP3  H1           -8.5716826881        8.1180096403        2.1597096843  CLST          93          1.0000000000
       279        93  TIP3  H2           -8.0067180731        7.0777505231        3.0688578459  CLST          93          1.0000000000
       280        94  TIP3  OH2         -14.1873736981        6.5858709521        6.4627536333  CLST          94          1.0000000000
       281        94  TIP3  H1          -13.3922142653        7.1363276144        6.1686153657  CLST          94          1.0000000000
       282        94  TIP3  H2          -14.4363402051        6.3581869957        5.5330626631  CLST          94          1.0000000000
       283        95  TIP3  OH2           9.8132773227        5.8685012881       -1.7302414607  CLST          95          1.0000000000
       284        95  TIP3  H1            9.8984916932        6.1091505445       -0.7643309228  CLST          95          1.0000000000
       285        95  TIP3  H2           10.2831867549        4.9729046392       -1.6554550082  CLST          95          1.0000000000
       286        96  TIP3  OH2           9.6630868069      -10.9202421222       11.3166464987  CLST          96          1.0000000000
       287        96  TIP3  H1           10.4375220928      -11.2481860254       10.8062692359  CLST          96          1.0000000000
       288        96  TIP3  H2            9.1154762128      -11.7435602361       11.3627656147  CLST          96          1.0000000000
       289        97  TIP3  OH2          -7.7367993250        6.9217776758        8.5440583749  CLST          97          1.0000000000
       290        97  TIP3  H1           -7.4079309008        6.0073872019        8.8801950447  CLST          97          1.0000000000
       291        97  TIP3  H2           -8.6983328884        6.6251745589        8.4834575692  CLST          97          1.0000000000
       292        98  TIP3  OH2           6.0048549672        0.5005189565       -3.4846708048  CLST          98          1.0000000000
       293        98  TIP3  H1            6.6738895233        0.2689128763       -2.7834383733  CLST          98          1.0000000000
       294        98  TIP3  H2            5.3331599897       -0.1592021405       -3.1197500342  CLST          98          1.0000000000
       295        99  TIP3  OH2          -6.8674326524      -11.5036344006        4.9528560590  CLST          99          1.0000000000
       296        99  TIP3  H1           -7.0118805214      -11.0427494786        5.7910710810  CLST          99          1.0000000000
       297        99  TIP3  H2           -6.1071482690      -12.0464014091        5.1968529696  CLST          99          1.0000000000
       298       100  TIP3  OH2           2.2293084218        0.4980365785       -9.1664596758  CLST         100          1.0000000000
       299       100  TIP3  H1            2.6623979643        0.5978050014      -10.0449496696  CLST         100          1.0000000000
       300       100  TIP3  H2            2.2517512747        1.4180220438       -8.8754041262  CLST         100          1.0000000000
       301       101  TIP3  OH2          12.6952057333       -6.8662424098        3.9605370841  CLST         101          1.0000000000
       302       101  TIP3  H1           12.6777981836       -7.3823047986        4.8271212874  CLST         101          1.0000000000
       303       101  TIP3  H2           13.3428997528       -6.3174283478        3.9648094619  CLST         101          1.0000000000
       304       102  TIP3  OH2         -12.1701586088       10.4995076275        1.4317700899  CLST         102          1.0000000000
       305       102  TIP3  H1          -12.8598016043       10.3225557699        2.1384594428  CLST         102          1.0000000000
       306       102  TIP3  H2          -12.5308630881        9.8181363481        0.7929522195  CLST         102          1.0000000000
       307       103  TIP3  OH2          -0.6548645189       -9.3266489567        7.7422136092  CLST         103          1.0000000000
       308       103  TIP3  H1            0.0076922333       -9.5233438820        8.4485576095  CLST         103          1.0000000000
       309       103  TIP3  H2           -1.1772297337      -10.1787014655        7.8641001702  CLST         103          1.0000000000
       310       104  TIP3  OH2          -4.3165084019      -12.1573663357       10.0234964047  CLST         104          1.0000000000
       311       104  TIP3  H1           -4.8995637368      -11.6653497625       10.6695952037  CLST         104          1.0000000000
       312       104  TIP3  H2           -4.9704602077      -12.5666475323        9.4349384020  CLST         104          1.0000000000
       313       105  TIP3  OH2          -5.2154787249       10.6562126530      -11.4453172131  CLST         105          1.0000000000
       314       105  TIP3  H1           -4.7231227469       11.2350714988      -12.8219503445  CLST         105          1.0000000000
       315       105  TIP3  H2           -5.6253154825       10.2994478524      -12.3972701648  CLST         105          1.0000000000
       316       106  TIP3  OH2           7.3988840208       -8.1291322269       -1.4137513598  CLST         106          1.0000000000
       317       106  TIP3  H1            8.2777528546       -7.7107037814       -1.4158041932  CLST         106          1.0000000000
       318       106  TIP3  H2            7.7131571565       -9.0340615398       -1.6719847029  CLST         106          1.0000000000
       319       107  TIP3  OH2          -8.2922799638       -4.7996736050        5.0337416074  CLST         107          1.0000000000
       320       107  TIP3  H1           -9.0143129585       -4.4843581019        4.4651802249  CLST         107          1.0000000000
       321       107  TIP3  H2           -7.4865373006       -4.3245297925        4.7146096583  CLST         107          1.0000000000
       322       108  TIP3  OH2         -10.5897181888        2.0683661767        9.5001178223  CLST         108          1.0000000000
       323       108  TIP3  H1           -9.6299358488        1.8681148919        9.3341359585  CLST         108          1.0000000000
       324       108  TIP3  H2          -10.9335078419        1.1911971263        9.8543282636  CLST         108          1.0000000000
       325       109  TIP3  OH2           2.2449942266        7.1277814922        8.8276312688  CLST         109          1.0000000000
       326       109  TIP3  H1            1.4868684289        6.6286948475        9.1606660845  CLST         109          1.0000000000
       327       109  TIP3  H2            2.9181250850        6.3972543632        8.7739901352  CLST         109          1.0000000000
       328       110  TIP3  OH2           1.5742302008       12.4777555950      -11.1115945758  CLST         110          1.0000000000
       329       110  TIP3  H1            2.3255555622       13.2458815332      -10.7430506052  CLST         110          1.0000000000
       330       110  TIP3  H2            1.2277081036       12.1893180015      -10.1741600456  CLST         110          1.0000000000
       331       111  TIP3  OH2          11.8542446635      -11.6604286994        9.5698016530  CLST         111          1.0000000000
       332       111  TIP3  H1           12.7808020955      -11.9077940582        9.7350015096  CLST         111          1.0000000000
       333       111  TIP3  H2           11.6312592483      -12.3284568253        8.8764927240  CLST         111          1.0000000000
       334       112  TIP3  OH2           6.3442135092       -0.1348840464        1.8184346748  CLST         112          1.0000000000
       335       112  TIP3  H1            6.8047787200        0.7510135387        1.8413672292  CLST         112          1.0000000000
       336       112  TIP3  H2            6.3048813423       -0.3304884207        2.7969858872  CLST         112          1.0000000000
       337       113  TIP3  OH2         -12.9529844227        0.9931363467        0.0207594834  CLST         113          1.0000000000
       338       113  TIP3  H1          -13.5392121182        0.1072387352       -0.1082516157  CLST         113          1.0000000000
       339       113  TIP3  H2          -12.3634180316        0.8680605959       -0.7659622418  CLST         113          1.0000000000
       340       114  TIP3  OH2         -13.8829394768        3.5210394506       -0.2517155004  CLST         114          1.0000000000
       341       114  TIP3  H1          -13.7188456379        2.5401493243       -0.1636071107  CLST         114          1.0000000000
       342       114  TIP3  H2          -13.4868756202        3.6097904856       -1.1626645097  CLST         114          1.0000000000
       343       115  TIP3  OH2          -8.9007647096        0.4250431352      -10.8345181188  CLST         115          1.0000000000
       344       115  TIP3  H1           -8.3063689718        0.9884401728      -11.4158779932  CLST         115          1.0000000000
       345       115  TIP3  H2           -9.5424353490        1.1747779408      -10.7220559748  CLST         115          1.0000000000
       346       116  TIP3  OH2           6.8983650198       -5.6440638635        2.1411524403  CLST         116          1.0000000000
       347       116  TIP3  H1            7.4059395942       -5.8229554561        1.3113991522  CLST         116          1.0000000000
       348       116  TIP3  H2            7.0527768689       -4.6631561212        2.2045477020  CLST         116          1.0000000000
       349       117  TIP3  OH2          -0.7610102095        0.0297687289       12.3764152755  CLST         117          1.0000000000
       350       117  TIP3  H1           -0.0066634057       -0.4845829482       12.7335963346  CLST         117          1.0000000000
       351       117  TIP3  H2           -0.8066745999        0.7140505962       13.0477654297  CLST         117          1.0000000000
       352       118  TIP3  OH2           0.2251256189       -9.6303862451        4.9994081574  CLST         118          1.0000000000
       353       118  TIP3  H1           -0.1005707587       -9.2743689419        5.8609284270  CLST         118          1.0000000000
       354       118  TIP3  H2           -0.0816158502       -8.9315564732        4.3668339995  CLST         118          1.0000000000
       355       119  TIP3  OH2          -9.2942366084      -10.4549014253       -8.8618183888  CLST         119          1.0000000000
       356       119  TIP3  H1           -9.5300030499      -10.9385946706       -9.7642465367  CLST         119          1.0000000000
       357       119  TIP3  H2           -9.0275245262       -9.6123128050       -9.2497648444  CLST         119          1.0000000000
       358       120  TIP3  OH2           9.6555536030       -7.9177069038        1.2566604276  CLST         120          1.0000000000
       359       120  TIP3  H1            8.8367084049       -8.4659078778        1.2039908831  CLST         120          1.0000000000
       360       120  TIP3  H2            9.3662414110       -7.1096832640        0.7198623970  CLST         120          1.0000000000
       361       121  TIP3  OH2          -5.6939027320       -0.2902342594       -8.0714587874  CLST         121          1.0000000000
       362       121  TIP3  H1           -5.7194099553       -0.0505033735       -9.0175673125  CLST         121          1.0000000000
       363       121  TIP3  H2           -4.9725031813       -0.9971253523       -8.1036972272  CLST         121          1.0000000000
       364       122  TIP3  OH2          10.4299169183       12.1049777346        5.2092505815  CLST         122          1.0000000000
       365       122  TIP3  H1            9.5216961493       12.4666494024        5.3908331250  CLST         122          1.0000000000
       366       122  TIP3  H2           10.9452910661       12.5002935464        5.9842462469  CLST         122          1.0000000000
       367       123  TIP3  OH2          -7.4061368950       -5.4869273972      -11.1828156770  CLST         123          1.0000000000
       368       123  TIP3  H1           -6.6737516134       -5.9460937114      -11.6194268623  CLST         123          1.0000000000
       369       123  TIP3  H2           -7.1451346725       -5.4126480858      -10.2436224345  CLST         123          1.0000000000
       370       124  TIP3  OH2          -6.0315354959       -8.5937569855      -10.8452174401  CLST         124          1.0000000000
       371       124  TIP3  H1           -5.2788032456       -8.8661556249      -10.2528042580  CLST         124          1.0000000000
       372       124  TIP3  H2           -6.6338009315       -8.2295045378      -10.1405514523  CLST         124          1.0000000000
       373       125  TIP3  OH2         -13.5783204414        4.1355942852        8.1238630509  CLST         125          1.0000000000
       374       125  TIP3  H1          -13.0633421441        3.5515572377        7.5317617493  CLST         125          1.0000000000
       375       125  TIP3  H2          -13.8496846676        4.9014574704        7.5872752871  CLST         125          1.0000000000
       376       126  TIP3  OH2          -6.8709605997      -10.6625955712      -12.2473328555  CLST         126          1.0000000000
       377       126  TIP3  H1           -6.0428733060      -11.1462198171      -11.9394675561  CLST         126          1.0000000000
       378       126  TIP3  H2           -6.7628265245       -9.8034046034      -11.6954968504  CLST         126          1.0000000000
       379       127  TIP3  OH2          -7.4132236388      -11.6097277545       -7.0414003945  CLST         127          1.0000000000
       380       127  TIP3  H1           -8.0485710649      -12.3641579274       -6.8590560920  CLST         127          1.0000000000
       381       127  TIP3  H2           -7.9911807428      -11.2134358707       -7.7615359341  CLST         127          1.0000000000
       382       128  TIP3  OH2           9.9908085975        0.7575586837       -2.4217328690  CLST         128          1.0000000000
       383       128  TIP3  H1            9.0999115794        0.4608410407       -2.1211348355  CLST         128          1.0000000000
       384       128  TIP3  H2            9.7275416400        1.5259118240       -3.0047398688  CLST         128          1.0000000000
       385       129  TIP3  OH2          -7.7700196484        9.4801959965        1.0554536123  CLST         129          1.0000000000
       386       129  TIP3  H1           -6.9341382698        9.9535461682        1.3926928442  CLST         129          1.0000000000
       387       129  TIP3  H2           -7.1811267541        8.7651779575        0.5993356097  CLST         129          1.0000000000
       388       130  TIP3  OH2          -4.0505546502        3.9613095511        9.9539263968  CLST         130          1.0000000000
       389       130  TIP3  H1           -3.5933490652        4.8195355767       10.0753764222  CLST         130          1.0000000000
       390       130  TIP3  H2           -3.6614030492        3.4806261106       10.7515928952  CLST         130          1.0000000000
       391       131  TIP3  OH2           7.7687628492       -3.7700449205       -9.9110578780  CLST         131          1.0000000000
       392       131  TIP3  H1            7.7745079438       -2.9395709956       -9.3462316049  CLST         131          1.0000000000
       393       131  TIP3  H2            6.7567626309       -3.9179678381       -9.7838866313  CLST         131          1.0000000000
       394       132  TIP3  OH2         -11.6064631970       11.3977902789       12.2409118384  CLST         132          1.0000000000
       395       132  TIP3  H1          -11.1003739110       12.1556373208       11.8581655355  CLST         132          1.0000000000
       396       132  TIP3  H2          -12.2098678114       11.6622314272       12.8074513672  CLST         132          1.0000000000
       397       133  TIP3  OH2          10.3179589988        9.3631251913        8.6473406485  CLST         133          1.0000000000
       398       133  TIP3  H1           10.3852553295        9.0561067312        9.5834959582  CLST         133          1.0000000000
       399       133  TIP3  H2           11.2615149983        9.7130510959        8.5989902521  CLST         133          1.0000000000
       400       134  TIP3  OH2          -7.6595504742        5.7505636038       -5.9708122024  CLST         134          1.0000000000
       401       134  TIP3  H1           -8.6001780763        5.9687545027       -5.8719286586  CLST         134          1.0000000000
       402       134  TIP3  H2           -7.3609547459        5.7856693104       -5.0275615686  CLST         134          1.0000000000
       403       135  TIP3  OH2          10.6431094135      -11.2855503968      -13.0525504981  CLST         135          1.0000000000
       404       135  TIP3  H1           10.8393097118      -10.3322551717      -12.6840149381  CLST         135          1.0000000000
       405       135  TIP3  H2           10.5415235408      -11.1331976969      -13.9615836410  CLST         135          1.0000000000
       406       136  TIP3  OH2          -4.3436435988        1.8172128073       -6.9658755970  CLST         136          1.0000000000
       407       136  TIP3  H1           -4.8101209929        0.9832608265       -7.2679719008  CLST         136          1.0000000000
       408       136  TIP3  H2           -5.1395091508        2.2845264737       -6.6051876025  CLST         136          1.0000000000
       409       137  TIP3  OH2          12.9032677185       10.3238503957        9.0909339747  CLST         137          1.0000000000
       410       137  TIP3  H1           13.1257458513       10.2160148643       10.0511079421  CLST         137          1.0000000000
       411       137  TIP3  H2           13.5169116454        9.7145824638        8.6855389572  CLST         137          1.0000000000
       412       138  TIP3  OH2          -0.8310406836      -10.0467774411        1.5386585659  CLST         138          1.0000000000
       413       138  TIP3  H1           -0.9596848070       -9.6222327024        0.6601174821  CLST         138          1.0000000000
       414       138  TIP3  H2           -0.9125271052       -9.2759430538        2.1333609734  CLST         138          1.0000000000
       415       139  TIP3  OH2          -9.5294330223      -10.8585350007        4.5359956451  CLST         139          1.0000000000
       416       139  TIP3  H1           -9.9419195225      -10.9481584361        3.6670229310  CLST         139          1.0000000000
       417       139  TIP3  H2           -8.6964160218      -11.3764152549        4.4822657311  CLST         139          1.0000000000
       418       140  TIP3  OH2          -7.0624813759        3.4296620791       -0.3544925695  CLST         140          1.0000000000
       419       140  TIP3  H1           -6.2539835042        3.9674316233       -0.1274970842  CLST         140          1.0000000000
       420       140  TIP3  H2           -7.6849001667        4.1653292701       -0.5499243240  CLST         140          1.0000000000
       421       141  TIP3  OH2           2.0999461140       -4.5172231967       -3.5371305962  CLST         141          1.0000000000
       422       141  TIP3  H1            1.7822757188       -3.6238890450       -3.2971438749  CLST         141          1.0000000000
       423       141  TIP3  H2            2.7956116701       -4.1373007017       -4.1522149311  CLST         141          1.0000000000
       424       142  TIP3  OH2         -11.6195662031       -0.0244345397        4.6922654536  CLST         142          1.0000000000
       425       142  TIP3  H1          -11.5043547534        0.6664191058        5.3961288883  CLST         142          1.0000000000
       426       142  TIP3  H2          -12.4651442369        0.3148226320        4.3096083124  CLST         142          1.0000000000
       427       143  TIP3  OH2           9.1636137180       -5.7513897951       -8.2852124031  CLST         143          1.0000000000
       428       143  TIP3  H1            9.1736697002       -5.1523963605       -9.0549790410  CLST         143          1.0000000000
       429       143  TIP3  H2            9.8814787951       -6.4007251420       -8.4237850714  CLST         143          1.0000000000
       430       144  TIP3  OH2           3.2623399333       -2.8478289010        9.0449379949  CLST         144          1.0000000000
       431       144  TIP3  H1            2.3856647026       -2.4306264816        9.3039208817  CLST         144          1.0000000000
       432       144  TIP3  H2            3.6345333226       -2.0423021372        8.5648241144  CLST         144          1.0000000000
       433       145  TIP3  OH2         -10.2601097951       13.3907727255        3.1896899693  CLST         145          1.0000000000
       434       145  TIP3  H1          -10.5555506001       13.5467977918        2.2498196676  CLST         145          1.0000000000
       435       145  TIP3  H2          -10.0704737666       12.4351397530        3.0613542937  CLST         145          1.0000000000
       436       146  TIP3  OH2           9.1482659224        2.7437312515       -4.1761703013  CLST         146          1.0000000000
       437       146  TIP3  H1            8.9901127972        3.7389768614       -4.2060507102  CLST         146          1.0000000000
       438       146  TIP3  H2            8.4564075831        2.5628352284       -4.8461744008  CLST         146          1.0000000000
       439       147  TIP3  OH2         -11.0988277652       -0.2564108640       -4.2067314511  CLST         147          1.0000000000
       440       147  TIP3  H1          -10.1602870439       -0.5346820386       -4.3964218719  CLST         147          1.0000000000
       441       147  TIP3  H2          -11.4747194451       -0.5649770834       -5.0889164889  CLST         147          1.0000000000
       442       148  TIP3  OH2          -7.9692315525        1.3966727874        8.9692848284  CLST         148          1.0000000000
       443       148  TIP3  H1           -7.8612951611        0.9821953819        8.0698839524  CLST         148          1.0000000000
       444       148  TIP3  H2           -6.9831160437        1.6091778333        9.0563155779  CLST         148          1.0000000000
       445       149  TIP3  OH2           8.6695066110       -2.9407244168        0.7927944835  CLST         149          1.0000000000
       446       149  TIP3  H1            9.2487315458       -2.1176573645        0.6189244456  CLST         149          1.0000000000
       447       149  TIP3  H2            8.5190731510       -2.8437450991        1.7625895729  CLST         149          1.0000000000
       448       150  TIP3  OH2          -2.1151588570      -11.5382803564        8.4418468202  CLST         150          1.0000000000
       449       150  TIP3  H1           -2.9681908867      -11.6903230119        8.9824251507  CLST         150          1.0000000000
       450       150  TIP3  H2           -1.5090333822      -11.9176002594        9.1435390479  CLST         150          1.0000000000
       451       151  TIP3  OH2          -9.1671419286       -6.5341116290       -4.9265654967  CLST         151          1.0000000000
       452       151  TIP3  H1           -8.2138261604       -6.5789582709       -4.5760100312  CLST         151          1.0000000000
       453       151  TIP3  H2           -9.0567635244       -7.3742065721       -5.4667542611  CLST         151          1.0000000000
       454       152  TIP3  OH2           4.0295654391       -2.1648854641        5.0949606182  CLST         152          1.0000000000
       455       152  TIP3  H1            4.5917110373       -2.9225333032        5.4469813287  CLST         152          1.0000000000
       456       152  TIP3  H2            3.7541489214       -2.5932464717        4.2389926597  CLST         152          1.0000000000
       457       153  TIP3  OH2          -2.7686641123        4.8812361117      -14.1944092133  CLST         153          1.0000000000
       458       153  TIP3  H1           -1.8486351596        5.0700749420      -14.0908407248  CLST         153          1.0000000000
       459       153  TIP3  H2           -2.8212475476        4.2925805721      -13.4258835736  CLST         153          1.0000000000
       460       154  TIP3  OH2           4.4034095139       -6.9168554795        1.9330518180  CLST         154          1.0000000000
       461       154  TIP3  H1            5.3258356338       -6.5771005862        1.9129173045  CLST         154          1.0000000000
       462       154  TIP3  H2            3.9207024159       -6.3099604165        1.3128234349  CLST         154          1.0000000000
       463       155  TIP3  OH2           9.4322856551       -2.7148566103       10.3192205022  CLST         155          1.0000000000
       464       155  TIP3  H1            8.7348566342       -3.2115826045        9.7916908041  CLST         155          1.0000000000
       465       155  TIP3  H2           10.0440940851       -3.3010780986       10.6078545175  CLST         155          1.0000000000
       466       156  TIP3  OH2          -2.1990932490       11.3800672266       11.6686530381  CLST         156          1.0000000000
       467       156  TIP3  H1           -3.0208733770       11.9358226843       11.6675225785  CLST         156          1.0000000000
       468       156  TIP3  H2           -2.6877296886       10.5371111844       11.7246086576  CLST         156          1.0000000000
       469       157  TIP3  OH2           3.8968767232       -0.8714508519        7.3883110304  CLST         157          1.0000000000
       470       157  TIP3  H1            4.8538761003       -0.7305771711        7.5919555803  CLST         157          1.0000000000
       471       157  TIP3  H2            3.8815764374       -1.3987435912        6.5553226323  CLST         157          1.0000000000
       472       158  TIP3  OH2          10.5755894465        9.1478786936       13.1026293435  CLST         158          1.0000000000
       473       158  TIP3  H1            9.7689007238        8.7146469596       13.4175537354  CLST         158          1.0000000000
       474       158  TIP3  H2           10.1425743948        9.9115251208       12.6414271342  CLST         158          1.0000000000
       475       159  TIP3  OH2           0.4596964946      -12.1562409175        4.3524814606  CLST         159          1.0000000000
       476       159  TIP3  H1           -0.3548560463      -12.3587748741        4.9385896868  CLST         159          1.0000000000
       477       159  TIP3  H2            0.4020443869      -11.1885875699        4.6280075533  CLST         159          1.0000000000
       478       160  TIP3  OH2           7.3894198893       -3.5306546764        8.5942308295  CLST         160          1.0000000000
       479       160  TIP3  H1            7.0533484554       -3.7232673320        7.6846283074  CLST         160          1.0000000000
       480       160  TIP3  H2            6.9442324544       -2.6049460376        8.6024703326  CLST         160          1.0000000000
       481       161  TIP3  OH2          -2.4519123565       -2.3350243819        7.8415102160  CLST         161          1.0000000000
       482       161  TIP3  H1           -2.1553627041       -1.6885496409        8.5364078264  CLST         161          1.0000000000
       483       161  TIP3  H2           -3.3075786638       -2.5554361311        8.3290693200  CLST         161          1.0000000000
       484       162  TIP3  OH2          -0.7712622869        3.6218520374      -10.6206575876  CLST         162          1.0000000000
       485       162  TIP3  H1           -0.6390740835        4.2055688578      -11.3975803997  CLST         162          1.0000000000
       486       162  TIP3  H2           -0.5739261005        4.2168970887       -9.8481372485  CLST         162          1.0000000000
       487       163  TIP3  OH2         -10.0619396967        9.1594776153       11.2052445651  CLST         163          1.0000000000
       488       163  TIP3  H1          -10.7201793287        8.4446905670       11.2578759200  CLST         163          1.0000000000
       489       163  TIP3  H2          -10.4463634252        9.8903154182       11.7506568207  CLST         163          1.0000000000
       490       164  TIP3  OH2           4.0134220857      -10.3349596313       13.0835278130  CLST         164          1.0000000000
       491       164  TIP3  H1            4.6402515382       -9.7009427911       12.6116210839  CLST         164          1.0000000000
       492       164  TIP3  H2            4.6724324997      -11.0909774547       13.0179619229  CLST         164          1.0000000000
       493       165  TIP3  OH2         -12.1006823826       -5.4648456120        3.5557603113  CLST         165          1.0000000000
       494       165  TIP3  H1          -11.8867970421       -5.6215913274        4.5068427854  CLST         165          1.0000000000
       495       165  TIP3  H2          -12.9887918713       -5.2666961975        3.5754547007  CLST         165          1.0000000000
       496       166  TIP3  OH2          -1.6834999955       -6.3600809378      -10.4605464180  CLST         166          1.0000000000
       497       166  TIP3  H1           -0.7555721289       -6.6278407920      -10.6283537463  CLST         166          1.0000000000
       498       166  TIP3  H2           -2.2254504748       -7.1497616351      -10.3924369900  CLST         166          1.0000000000
       499       167  TIP3  OH2           8.1491910400       10.5973725878       -0.8565711812  CLST         167          1.0000000000
       500       167  TIP3  H1            8.7014951643       10.2729540162       -0.0638030973  CLST         167          1.0000000000
       501       167  TIP3  H2            8.5079080157        9.9514393182       -1.5043395085  CLST         167          1.0000000000
       502       168  TIP3  OH2          -0.7095572394      -13.3305938488        2.1417328261  CLST         168          1.0000000000
       503       168  TIP3  H1           -0.2505632097      -13.0196284964        2.9552754197  CLST         168          1.0000000000
       504       168  TIP3  H2            0.0751289164      -13.7507666214        1.6913432749  CLST         168          1.0000000000
       505       169  TIP3  OH2           5.0727511725        4.1656368673        3.3233352884  CLST         169          1.0000000000
       506       169  TIP3  H1            4.2224909244        3.6553407323        3.3620464042  CLST         169          1.0000000000
       507       169  TIP3  H2            4.9336289857        4.6845740930        2.4689572182  CLST         169          1.0000000000
       508       170  TIP3  OH2          -1.0932925758        4.3554350869        1.5138433908  CLST         170          1.0000000000
       509       170  TIP3  H1           -1.8087129084        5.0765626626        1.4492504012  CLST         170          1.0000000000
       510       170  TIP3  H2           -1.6010091659        3.5313493758        1.4662782823  CLST         170          1.0000000000
       511       171  TIP3  OH2          -3.0031854222        1.3309940052        7.2873988834  CLST         171          1.0000000000
       512       171  TIP3  H1           -2.5287182239        1.0049914559        6.4978057111  CLST         171          1.0000000000
       513       171  TIP3  H2           -2.2178288403        1.7073760409        7.7480910485  CLST         171          1.0000000000
       514       172  TIP3  OH2          -6.4111002949      -13.1410541019        8.0826084293  CLST         172          1.0000000000
       515       172  TIP3  H1           -6.6048563851      -14.0262436874        8.1122852879  CLST         172          1.0000000000
       516       172  TIP3  H2           -5.7461302863      -12.9682926746        7.3403154159  CLST         172          1.0000000000
       517       173  TIP3  OH2          10.1595160624      -12.6343122080        1.8109936834  CLST         173          1.0000000000
       518       173  TIP3  H1           10.3475111087      -12.5233553330        0.8374717576  CLST         173          1.0000000000
       519       173  TIP3  H2            9.1862888630      -12.5869903630        1.8093724416  CLST         173          1.0000000000
       520       174  TIP3  OH2           0.0475023119        5.4824488131        9.7256418947  CLST         174          1.0000000000
       521       174  TIP3  H1           -0.3196395061        4.7965409974       10.3143678375  CLST         174          1.0000000000
       522       174  TIP3  H2           -0.7069040660        6.0939995754        9.7192084470  CLST         174          1.0000000000
       523       175  TIP3  OH2          -5.7231314855       10.2643463810       -3.6629197444  CLST         175          1.0000000000
       524       175  TIP3  H1           -5.2000643428        9.9103977928       -4.4428565382  CLST         175          1.0000000000
       525       175  TIP3  H2           -6.5980386404       10.0787504694       -4.1329182808  CLST         175          1.0000000000
       526       176  TIP3  OH2           6.7513677241        9.2690267709       -7.7134151062  CLST         176          1.0000000000
       527       176  TIP3  H1            7.1954134889       10.0757257593       -8.0687092537  CLST         176          1.0000000000
       528       176  TIP3  H2            6.5343153749        9.6647471805       -6.8140902686  CLST         176          1.0000000000
       529       177  TIP3  OH2          -3.7619700415      -11.3821795762       -1.5264436600  CLST         177          1.0000000000
       530       177  TIP3  H1           -2.9518226542      -11.7725809341       -1.1389773677  CLST         177          1.0000000000
       531       177  TIP3  H2           -4.2902701001      -11.2508831217       -0.6561715522  CLST         177          1.0000000000
       532       178  TIP3  OH2          10.8120895437       -8.8513665864      -11.4282127298  CLST         178          1.0000000000
       533       178  TIP3  H1           10.9549710800       -8.7405748971      -10.4405231700  CLST         178          1.0000000000
       534       178  TIP3  H2           10.7262043088       -7.8960342938      -11.6234305476  CLST         178          1.0000000000
       535       179  TIP3  OH2           6.4488617703       -1.0089662896        8.4042929996  CLST         179          1.0000000000
       536       179  TIP3  H1            6.2131198374       -0.3254218065        9.1038533599  CLST         179          1.0000000000
       537       179  TIP3  H2            7.0301301680       -0.4789369742        7.8474149437  CLST         179          1.0000000000
       538       180  TIP3  OH2          -7.5987637980        8.0800663178        6.0311800516  CLST         180          1.0000000000
       539       180  TIP3  H1           -7.3813447194        8.0391914703        7.0060983434  CLST         180          1.0000000000
       540       180  TIP3  H2           -8.5666248660        8.1474359002        6.1989957220  CLST         180          1.0000000000
       541       181  TIP3  OH2           5.9964667302      -13.0597400026       -0.3269184406  CLST         181          1.0000000000
       542       181  TIP3  H1            6.7718210070      -12.9219360315       -0.8608856707  CLST         181          1.0000000000
       543       181  TIP3  H2            6.3174695123      -13.1309351109        0.6071442294  CLST         181          1.0000000000
       544       182  TIP3  OH2          -1.6617652758       10.4695430987      -10.3806932338  CLST         182          1.0000000000
       545       182  TIP3  H1           -1.0505548664       10.7842018992       -9.7393314486  CLST         182          1.0000000000
       546       182  TIP3  H2           -2.5108395216       10.3351943153       -9.8503650509  CLST         182          1.0000000000
       547       183  TIP3  OH2          -5.3469229522        3.6611396577      -12.3058428598  CLST         183          1.0000000000
       548       183  TIP3  H1           -4.9874687594        3.5842564184      -11.3922638789  CLST         183          1.0000000000
       549       183  TIP3  H2           -6.1885845691        3.1617585145      -12.2383874052  CLST         183          1.0000000000
       550       184  TIP3  OH2           2.9481485558        8.3383920766       -2.4191285499  CLST         184          1.0000000000
       551       184  TIP3  H1            3.2162520846        7.6861485345       -1.7445984447  CLST         184          1.0000000000
       552       184  TIP3  H2            1.9929872695        8.0791014348       -2.4278843421  CLST         184          1.0000000000
       553       185  TIP3  OH2           7.5416730581        4.6320793665       12.1200639353  CLST         185          1.0000000000
       554       185  TIP3  H1            7.8439142116        3.6770183362       12.0970006363  CLST         185          1.0000000000
       555       185  TIP3  H2            7.0640172983        4.7213788449       12.9910060542  CLST         185          1.0000000000
       556       186  TIP3  OH2           3.7070404734        5.9211636211       -5.1198890648  CLST         186          1.0000000000
       557       186  TIP3  H1            3.8760496303        6.8878771303       -5.0173788596  CLST         186          1.0000000000
       558       186  TIP3  H2            3.8838538290        5.8281768246       -6.0941411104  CLST         186          1.0000000000
       559       187  TIP3  OH2           3.9274327126        1.7033368276       -5.6411103527  CLST         187          1.0000000000
       560       187  TIP3  H1            3.9952482261        1.7718427167       -4.6474577225  CLST         187          1.0000000000
       561       187  TIP3  H2            3.6555605270        0.7293591631       -5.6590394180  CLST         187          1.0000000000
       562       188  TIP3  OH2          -4.4966612205       -1.5491265628        4.8778319032  CLST         188          1.0000000000
       563       188  TIP3  H1           -4.5953580707       -0.6864403985        4.3557184501  CLST         188          1.0000000000
       564       188  TIP3  H2           -4.7996420920       -1.1864997106        5.7603244540  CLST         188          1.0000000000
       565       189  TIP3  OH2          -5.0065479816        3.4775451059      -15.1507220584  CLST         189          1.0000000000
       566       189  TIP3  H1           -5.0881168413        3.1902336043      -14.2257024107  CLST         189          1.0000000000
       567       189  TIP3  H2           -4.2741752560        4.0852966626      -15.0421628609  CLST         189          1.0000000000
       568       190  TIP3  OH2           7.1995852036       -5.7334844173        5.1118651732  CLST         190          1.0000000000
       569       190  TIP3  H1            7.0900058542       -5.5877229002        4.1205325538  CLST         190          1.0000000000
       570       190  TIP3  H2            8.1709086444       -5.8272064375        5.0630518680  CLST         190          1.0000000000
       571       191  TIP3  OH2         -11.0345262671       -4.8968822981       -6.6103490749  CLST         191          1.0000000000
       572       191  TIP3  H1          -10.5731411763       -4.5003120080       -7.3620979635  CLST         191          1.0000000000
       573       191  TIP3  H2          -10.3011905817       -5.3646711395       -6.1494051750  CLST         191          1.0000000000
       574       192  TIP3  OH2           8.7800909557       14.2384504317        1.9393339082  CLST         192          1.0000000000
       575       192  TIP3  H1            8.2356085487       14.3185970546        2.7269075434  CLST         192          1.0000000000
       576       192  TIP3  H2            9.2089854033       15.0648875482        1.7692295126  CLST         192          1.0000000000
       577       193  TIP3  OH2           5.9458249527      -12.1435994139       11.8211157517  CLST         193          1.0000000000
       578       193  TIP3  H1            6.7430152768      -12.6824207192       11.7146050332  CLST         193          1.0000000000
       579       193  TIP3  H2            6.0367775514      -11.5310443044       11.0777074632  CLST         193          1.0000000000
       580       194  TIP3  OH2          -6.2500552086       -4.3507023130       10.9851010859  CLST         194          1.0000000000
       581       194  TIP3  H1           -6.5624088821       -4.4275994751       11.8580546345  CLST         194          1.0000000000
       582       194  TIP3  H2           -7.0705480332       -4.4445447933       10.4650277257  CLST         194          1.0000000000
       583       195  TIP3  OH2          -7.5841796198        9.1602460032       10.3709953577  CLST         195          1.0000000000
       584       195  TIP3  H1           -8.5438305782        9.0938771074       10.6653270847  CLST         195          1.0000000000
       585       195  TIP3  H2           -7.5271747966        8.2825223730        9.9265327701  CLST         195          1.0000000000
       586       196  TIP3  OH2           5.9882054327      -12.2542109173       -6.0535587090  CLST         196          1.0000000000
       587       196  TIP3  H1            6.3802728798      -11.4728575112       -6.5485024115  CLST         196          1.0000000000
       588       196  TIP3  H2            5.1415298080      -11.8540834385       -5.7850457498  CLST         196          1.0000000000
       589       197  TIP3  OH2           2.1961522451       -9.1975451856       -2.8355799717  CLST         197          1.0000000000
       590       197  TIP3  H1            1.9775654182       -8.2334565403       -2.5557072260  CLST         197          1.0000000000
       591       197  TIP3  H2            3.0968062745       -9.1164098712       -2.5034845633  CLST         197          1.0000000000
       592       198  TIP3  OH2          10.9023467496        1.9103422857        4.6368557539  CLST         198          1.0000000000
       593       198  TIP3  H1            9.9745650651        1.6796968958        4.7581662838  CLST         198          1.0000000000
       594       198  TIP3  H2           10.7092415034        2.8237453347        4.2793065409  CLST         198          1.0000000000
       595       199  TIP3  OH2          -0.0758918260        8.4081357472       -5.8900107152  CLST         199          1.0000000000
       596       199  TIP3  H1           -0.9223022010        8.6995186609       -5.4530455734  CLST         199          1.0000000000
       597       199  TIP3  H2           -0.1059142644        7.4402489641       -5.6531877151  CLST         199          1.0000000000
       598       200  TIP3  OH2          -7.5742230068       11.8450415739       10.8268817415  CLST         200          1.0000000000
       599       200  TIP3  H1           -7.5576260012       10.8633216785       10.6106201411  CLST         200          1.0000000000
       600       200  TIP3  H2           -7.1864976764       12.2424346817       10.0682452529  CLST         200          1.0000000000
       601       201  TIP3  OH2           4.4601337792        1.0435060029        0.0812501207  CLST         201          1.0000000000
       602       201  TIP3  H1            3.8715952724        1.4050404064        0.7775233734  CLST         201          1.0000000000
       603       201  TIP3  H2            5.0260198122        0.4859532662        0.6397180182  CLST         201          1.0000000000
       604       202  TIP3  OH2          -2.1282545179       -4.2508735016      -12.3861743049  CLST         202          1.0000000000
       605       202  TIP3  H1           -2.0139425464       -4.8836757080      -11.6428946319  CLST         202          1.0000000000
       606       202  TIP3  H2           -2.6708882990       -3.5440083855      -11.9673887645  CLST         202          1.0000000000
       607       203  TIP3  OH2          -0.7117552759       11.3901982123        7.5614568780  CLST         203          1.0000000000
       608       203  TIP3  H1            0.1295940236       10.9720346372        7.8946052815  CLST         203          1.0000000000
       609       203  TIP3  H2           -1.3293912397       10.9037054099        8.1647223883  CLST         203          1.0000000000
       610       204  TIP3  OH2          -5.3047819157        6.2940614516      -13.2885118124  CLST         204          1.0000000000
       611       204  TIP3  H1           -4.5755501419        6.1288734011      -13.8859945625  CLST         204          1.0000000000
       612       204  TIP3  H2           -5.4585395355        5.3110726080      -13.0475215451  CLST         204          1.0000000000
       613       205  TIP3  OH2          -2.3499058549        7.1925156294       -2.6200664135  CLST         205          1.0000000000
       614       205  TIP3  H1           -2.2978571999        7.9219813190       -3.2941147501  CLST         205          1.0000000000
       615       205  TIP3  H2           -1.3819691166        6.9557412707       -2.5380532490  CLST         205          1.0000000000
       616       206  TIP3  OH2           4.9904256285      -10.9982632344       -9.6958368744  CLST         206          1.0000000000
       617       206  TIP3  H1            4.8709678419      -11.9187076989       -9.2878640290  CLST         206          1.0000000000
       618       206  TIP3  H2            5.7211336030      -10.7436802552       -9.0499372095  CLST         206          1.0000000000
       619       207  TIP3  OH2          12.9064389233       10.0825289862       12.2663904021  CLST         207          1.0000000000
       620       207  TIP3  H1           12.1188900129        9.6953509546       12.7005833919  CLST         207          1.0000000000
       621       207  TIP3  H2           13.6100958290       10.1894260848       12.6743497300  CLST         207          1.0000000000
       622       208  TIP3  OH2         -11.6219405358        2.2037790558        6.9263907987  CLST         208          1.0000000000
       623       208  TIP3  H1          -11.2569826158        2.0826110809        7.8516095615  CLST         208          1.0000000000
       624       208  TIP3  H2          -11.2249260738        3.0645593479        6.6349891233  CLST         208          1.0000000000
       625       209  TIP3  OH2           4.4815577249       -9.2153291697        7.3980279443  CLST         209          1.0000000000
       626       209  TIP3  H1            4.0769001060       -9.5097034158        6.5352542318  CLST         209          1.0000000000
       627       209  TIP3  H2            3.6876476843       -8.6281847799        7.5883515179  CLST         209          1.0000000000
       628       210  TIP3  OH2          12.2361334014      -11.2310989253        5.2803991256  CLST         210          1.0000000000
       629       210  TIP3  H1           12.5356428987      -11.2935912946        4.3080971816  CLST         210          1.0000000000
       630       210  TIP3  H2           12.4961405544      -10.3171856676        5.4583912229  CLST         210          1.0000000000
       631       211  TIP3  OH2          -0.2594573521       -9.2582486413       12.3043187747  CLST         211          1.0000000000
       632       211  TIP3  H1            0.2858825566       -9.8623819275       12.9243666679  CLST         211          1.0000000000
       633       211  TIP3  H2           -1.1055529737       -9.7721047786       12.3500459558  CLST         211          1.0000000000
       634       212  TIP3  OH2         -12.3944315705        3.3828400798       -2.4343638745  CLST         212          1.0000000000
       635       212  TIP3  H1          -11.8431509424        4.0508212726       -2.9136342617  CLST         212          1.0000000000
       636       212  TIP3  H2          -11.7802792909        2.5969858332       -2.3069392084  CLST         212          1.0000000000
       637       213  TIP3  OH2          -9.6220558279      -11.3745124055      -11.3709391284  CLST         213          1.0000000000
       638       213  TIP3  H1           -9.1203395464      -11.4138814264      -12.2140176812  CLST         213          1.0000000000
       639       213  TIP3  H2           -7.7673367282      -10.9786131336      -12.7978274028  CLST         213          1.0000000000
       640       214  TIP3  OH2          -6.5095583550        2.1851041914       -5.4200528556  CLST         214          1.0000000000
       641       214  TIP3  H1           -6.3141618404        1.3534026348       -4.9090171026  CLST         214          1.0000000000
       642       214  TIP3  H2           -7.1885735388        2.6295151299       -4.8296850134  CLST         214          1.0000000000
       643       215  TIP3  OH2         -11.7588659658      -12.7487117246        5.6577186975  CLST         215          1.0000000000
       644       215  TIP3  H1          -10.8534651172      -12.4126535833        5.6702925802  CLST         215          1.0000000000
       645       215  TIP3  H2          -11.7382297488      -12.9585449162        4.6795670269  CLST         215          1.0000000000
       646       216  TIP3  OH2         -11.8892824774       -2.3151445506        8.0895569259  CLST         216          1.0000000000
       647       216  TIP3  H1          -10.9196740397       -1.9963520123        8.1772094405  CLST         216          1.0000000000
       648       216  TIP3  H2          -11.6866822436       -3.2459384766        8.3115531269  CLST         216          1.0000000000
       649       217  TIP3  OH2           7.6871366484       -0.2605312573       -1.5246893313  CLST         217          1.0000000000
       650       217  TIP3  H1            7.9943686999       -1.1040020064       -1.9642188778  CLST         217          1.0000000000
       651       217  TIP3  H2            7.0395641675       -0.6815458883       -0.8879995251  CLST         217          1.0000000000
       652       218  TIP3  OH2          -8.3549468447       -3.9484972454        9.1381233843  CLST         218          1.0000000000
       653       218  TIP3  H1           -8.5638803404       -3.0178210274        8.9234404888  CLST         218          1.0000000000
       654       218  TIP3  H2           -7.7807011442       -4.2343502307        8.4110757705  CLST         218          1.0000000000
       655       219  TIP3  OH2         -12.5410038544       -4.5377417748       -2.7775630849  CLST         219          1.0000000000
       656       219  TIP3  H1          -12.6264867837       -3.5432191977       -2.7350676151  CLST         219          1.0000000000
       657       219  TIP3  H2          -12.7071901362       -4.6096123051       -3.7365985508  CLST         219          1.0000000000
       658       220  TIP3  OH2           6.4265772403        6.7631645080        7.5982893685  CLST         220          1.0000000000
       659       220  TIP3  H1            6.0049195219        6.5530194806        6.7141651615  CLST         220          1.0000000000
       660       220  TIP3  H2            5.6824486339        6.3029704622        8.0903146670  CLST         220          1.0000000000
       661       221  TIP3  OH2         -10.3651005645       -7.1072334805       10.2799293997  CLST         221          1.0000000000
       662       221  TIP3  H1           -9.4589247006       -7.2161180638        9.9029910172  CLST         221          1.0000000000
       663       221  TIP3  H2          -10.7097130877       -7.9709798765        9.9392394007  CLST         221          1.0000000000
       664       222  TIP3  OH2          -6.8389829166       -0.7349874795      -13.7071013588  CLST         222          1.0000000000
       665       222  TIP3  H1           -6.3935234060       -1.5983196524      -13.5090216276  CLST         222          1.0000000000
       666       222  TIP3  H2           -7.7517926070       -1.0815027699      -13.6515101342  CLST         222          1.0000000000
       667       223  TIP3  OH2           2.7330713425      -10.7023420654      -11.6444965917  CLST         223          1.0000000000
       668       223  TIP3  H1            2.1401484157      -11.5072299234      -11.4833819969  CLST         223          1.0000000000
       669       223  TIP3  H2            3.5677918780      -10.9774941012      -11.1894332739  CLST         223          1.0000000000
       670       224  TIP3  OH2           7.4818230516        4.6303209093        0.6821005714  CLST         224          1.0000000000
       671       224  TIP3  H1            8.2122832118        5.2596586772        0.5569727817  CLST         224          1.0000000000
       672       224  TIP3  H2            7.3656959967        4.2399813626       -0.2280417798  CLST         224          1.0000000000
       673       225  TIP3  OH2          -0.2465895366        4.7058540057       -1.1784009928  CLST         225          1.0000000000
       674       225  TIP3  H1           -0.4597195524        4.6243275465       -0.2248197531  CLST         225          1.0000000000
       675       225  TIP3  H2           -0.2090004228        3.7265578929       -1.3675737631  CLST         225          1.0000000000
       676       226  TIP3  OH2          -5.7810718725       -4.4248751114        7.6145586259  CLST         226          1.0000000000
       677       226  TIP3  H1           -5.6889923994       -5.4228116923        7.7924505623  CLST         226          1.0000000000
       678       226  TIP3  H2           -5.7142290748       -4.4044018385        6.6685028458  CLST         226          1.0000000000
       679       227  TIP3  OH2          11.6708056877       -4.1845075877       -9.8713244607  CLST         227          1.0000000000
       680       227  TIP3  H1           11.6577741341       -3.6905147520       -9.0049543909  CLST         227          1.0000000000
       681       227  TIP3  H2           11.2607481111       -3.4853222912      -10.3910871959  CLST         227          1.0000000000
       682       228  TIP3  OH2           3.4236131302       12.4630250141        3.2154021351  CLST         228          1.0000000000
       683       228  TIP3  H1            2.6165550648       12.0531868194        3.8167408246  CLST         228          1.0000000000
       684       228  TIP3  H2            2.9622198187       12.7367457175        2.5548571761  CLST         228          1.0000000000
       685       229  TIP3  OH2         -11.3900479678      -13.0392615009        2.9858792743  CLST         229          1.0000000000
       686       229  TIP3  H1          -11.7503848563      -13.5741596916        2.4367003462  CLST         229          1.0000000000
       687       229  TIP3  H2          -11.0358007623      -12.2767336906        2.4283022360  CLST         229          1.0000000000
       688       230  TIP3  OH2          12.2626035570        6.1040051765       -3.3724991454  CLST         230          1.0000000000
       689       230  TIP3  H1           13.1375168262        6.1545292730       -2.9871188781  CLST         230          1.0000000000
       690       230  TIP3  H2           12.1645147795        5.1216363999       -3.4174622516  CLST         230          1.0000000000
       691       231  TIP3  OH2           7.2476024568        3.2720816506        4.6719068805  CLST         231          1.0000000000
       692       231  TIP3  H1            7.6901278984        4.1460360622        4.8003436120  CLST         231          1.0000000000
       693       231  TIP3  H2            6.3971162914        3.6134130480        4.2778914792  CLST         231          1.0000000000
       694       232  TIP3  OH2         -10.3520335242        8.8838363257        7.4431196949  CLST         232          1.0000000000
       695       232  TIP3  H1          -10.7533530922        9.4805446262        8.1320619269  CLST         232          1.0000000000
       696       232  TIP3  H2          -10.3017635525        8.0501964601        7.9739086733  CLST         232          1.0000000000
       697       233  TIP3  OH2           3.7479537580       -5.1995674330        8.0464665101  CLST         233          1.0000000000
       698       233  TIP3  H1            4.2537727295       -5.6365273033        8.7417728526  CLST         233          1.0000000000
       699       233  TIP3  H2            3.5597448567       -4.3406732747        8.5423106195  CLST         233          1.0000000000
       700       234  TIP3  OH2          -3.4722863315        8.5078137746       -0.5730459430  CLST         234          1.0000000000
       701       234  TIP3  H1           -2.9799558120        8.2750289196       -1.4278447600  CLST         234          1.0000000000
       702       234  TIP3  H2           -3.5219289413        9.4737390364       -0.8119644490  CLST         234          1.0000000000
       703       235  TIP3  OH2          -2.0016186289       -4.0597771668       -8.9412620533  CLST         235          1.0000000000
       704       235  TIP3  H1           -1.9721442390       -4.9392968118       -9.4157664193  CLST         235          1.0000000000
       705       235  TIP3  H2           -1.0213432688       -3.8186876988       -8.9874496601  CLST         235          1.0000000000
       706       236  TIP3  OH2          -0.2661298479      -13.6502147533       -3.0153106391  CLST         236          1.0000000000
       707       236  TIP3  H1            0.3422892283      -12.9344848497       -2.6594719127  CLST         236          1.0000000000
       708       236  TIP3  H2           -0.9702438756      -13.5793510432       -2.3497373815  CLST         236          1.0000000000
       709       237  TIP3  OH2          -3.5732071298       -5.0806812922       10.9556609281  CLST         237          1.0000000000
       710       237  TIP3  H1           -4.5306611567       -4.8744913489       11.1459605548  CLST         237          1.0000000000
       711       237  TIP3  H2           -3.7708294264       -5.7455047074       10.2564589412  CLST         237          1.0000000000
       712       238  TIP3  OH2           0.7733067577        4.6378313533        7.2505052738  CLST         238          1.0000000000
       713       238  TIP3  H1            0.1045411787        5.2093109060        6.7648308402  CLST         238          1.0000000000
       714       238  TIP3  H2            0.6366262575        4.9464163860        8.1865520367  CLST         238          1.0000000000
       715       239  TIP3  OH2         -14.0147242236        6.0314495103        3.5591345631  CLST         239          1.0000000000
       716       239  TIP3  H1          -14.1514946531        6.3629954143        2.6228917853  CLST         239          1.0000000000
       717       239  TIP3  H2          -13.3882719634        5.3196815617        3.3168217807  CLST         239          1.0000000000
       718       240  TIP3  OH2         -14.0824039072        8.8965247974       -0.2347130039  CLST         240          1.0000000000
       719       240  TIP3  H1          -14.6380802105        9.1351974499        0.5235274466  CLST         240          1.0000000000
       720       240  TIP3  H2          -14.0455376802        7.8963320706        0.0236934557  CLST         240          1.0000000000
       721       241  TIP3  OH2          -7.6271621447       -7.8134691351       -8.6433459111  CLST         241          1.0000000000
       722       241  TIP3  H1           -7.9493331610       -8.0667143444       -7.7538866368  CLST         241          1.0000000000
       723       241  TIP3  H2           -7.6774892453       -6.8211135749       -8.5526189304  CLST         241          1.0000000000
       724       242  TIP3  OH2           6.1888223327       -5.6975158627        9.6739933103  CLST         242          1.0000000000
       725       242  TIP3  H1            6.6453171205       -4.8490299017        9.3241285368  CLST         242          1.0000000000
       726       242  TIP3  H2            6.9321485711       -6.3540980139        9.4108938254  CLST         242          1.0000000000
       727       243  TIP3  OH2          -6.6128474128       -7.1470083901       -4.3019014696  CLST         243          1.0000000000
       728       243  TIP3  H1           -6.4377371883       -7.8112234072       -4.9655030768  CLST         243          1.0000000000
       729       243  TIP3  H2           -6.5691892750       -7.6804087629       -3.4933913873  CLST         243          1.0000000000
       730       244  TIP3  OH2           4.9066820032        5.7598275239        5.4524002377  CLST         244          1.0000000000
       731       244  TIP3  H1            4.9086191408        5.3820430297        4.5363424836  CLST         244          1.0000000000
       732       244  TIP3  H2            4.2244563320        5.1350989383        5.7849418990  CLST         244          1.0000000000
       733       245  TIP3  OH2          -7.0139696897        3.6873437382       -7.6583781288  CLST         245          1.0000000000
       734       245  TIP3  H1           -6.9793808140        2.9983124766       -6.9626233946  CLST         245          1.0000000000
       735       245  TIP3  H2           -7.3096119988        4.4235464614       -7.0531208383  CLST         245          1.0000000000
       736       246  TIP3  OH2           2.1567912362       -6.6244774830       -1.8672566367  CLST         246          1.0000000000
       737       246  TIP3  H1            1.9636004987       -5.9016826393       -2.5559147578  CLST         246          1.0000000000
       738       246  TIP3  H2            3.1013620511       -6.4887562644       -1.9941308623  CLST         246          1.0000000000
       739       247  TIP3  OH2           6.1491294542        7.9473676956        0.5728510005  CLST         247          1.0000000000
       740       247  TIP3  H1            6.5779883605        7.7343175028       -0.2982401809  CLST         247          1.0000000000
       741       247  TIP3  H2            5.6764533681        8.7556441074        0.2809170613  CLST         247          1.0000000000
       742       248  TIP3  OH2          -2.4719621193        8.3761092974      -11.9663887879  CLST         248          1.0000000000
       743       248  TIP3  H1           -1.9610405639        8.4892783401      -12.7862549113  CLST         248          1.0000000000
       744       248  TIP3  H2           -2.1186884222        9.0760412097      -11.4071465804  CLST         248          1.0000000000
       745       249  TIP3  OH2           8.7215473791        4.7800654124       -7.7885379484  CLST         249          1.0000000000
       746       249  TIP3  H1            7.9289372539        5.3624220881       -7.6284025694  CLST         249          1.0000000000
       747       249  TIP3  H2            8.4317124404        4.0032181592       -7.2562930939  CLST         249          1.0000000000
       748       250  TIP3  OH2          -7.6393632585        9.8367386855       -5.4850330005  CLST         250          1.0000000000
       749       250  TIP3  H1           -7.6854680539        9.0653986482       -6.0635790478  CLST         250          1.0000000000
       750       250  TIP3  H2           -7.5984907667       10.5702683570       -6.1613368961  CLST         250          1.0000000000
       751       251  TIP3  OH2          -3.5635973857       12.3348113482        3.0132752223  CLST         251          1.0000000000
       752       251  TIP3  H1           -3.2218574243       13.0210837847        2.6610695956  CLST         251          1.0000000000
       753       251  TIP3  H2           -3.0864715754       12.1711365036        3.8687155728  CLST         251          1.0000000000
       754       252  TIP3  OH2           5.9495804144        5.2725615293       14.6071658201  CLST         252          1.0000000000
       755       252  TIP3  H1            5.7443994475        6.2024361064       14.6078795555  CLST         252          1.0000000000
       756       252  TIP3  H2            5.7657864081        5.0406636220       15.4538584183  CLST         252          1.0000000000
       757       253  TIP3  OH2           6.0926637913       13.8718603117        3.2899352998  CLST         253          1.0000000000
       758       253  TIP3  H1            5.1732017015       13.4942720428        3.4173971556  CLST         253          1.0000000000
       759       253  TIP3  H2            6.2172516297       13.6258602111        2.3692456296  CLST         253          1.0000000000
       760       254  TIP3  OH2          -4.1113382445        8.1201122634        3.0627261089  CLST         254          1.0000000000
       761       254  TIP3  H1           -4.5834308741        8.7525832084        2.4699574943  CLST         254          1.0000000000
       762       254  TIP3  H2           -4.8330410703        7.5489632933        3.3479740533  CLST         254          1.0000000000
       763       255  TIP3  OH2          -6.9849608017       10.4101615611        4.3360382510  CLST         255          1.0000000000
       764       255  TIP3  H1           -7.8915559132       10.7939802741        4.3518350394  CLST         255          1.0000000000
       765       255  TIP3  H2           -7.1149417300        9.6265130952        4.9188796646  CLST         255          1.0000000000
       766       256  TIP3  OH2          11.4400286994        3.7431197478       -1.3405791875  CLST         256          1.0000000000
       767       256  TIP3  H1           11.8120408213        2.9004778131       -1.6770350935  CLST         256          1.0000000000
       768       256  TIP3  H2           11.3664603052        3.5047583620       -0.3946157119  CLST         256          1.0000000000
       769       257  TIP3  OH2          -8.5834818028       -1.0968242474       -5.0255402417  CLST         257          1.0000000000
       770       257  TIP3  H1           -7.6978355969       -0.7906556139       -4.6670696303  CLST         257          1.0000000000
       771       257  TIP3  H2           -8.5276229161       -0.9206587515       -5.9839800451  CLST         257          1.0000000000
       772       258  TIP3  OH2          -5.2719507087       10.2863867468        7.9168836152  CLST         258          1.0000000000
       773       258  TIP3  H1           -5.1684168471       10.7393824459        7.0327478776  CLST         258          1.0000000000
       774       258  TIP3  H2           -5.9735041111       10.9066201877        8.2213877791  CLST         258          1.0000000000
       775       259  TIP3  OH2          10.1609632515        6.1071112614        0.9532870010  CLST         259          1.0000000000
       776       259  TIP3  H1           11.0025081420        6.6311017458        0.8157333480  CLST         259          1.0000000000
       777       259  TIP3  H2           10.0517260033        6.3859263707        1.8998002956  CLST         259          1.0000000000
       778       260  TIP3  OH2          -4.8987640787        7.6794207620        8.8955950977  CLST         260          1.0000000000
       779       260  TIP3  H1           -4.9868441049        8.5666585496        8.4532692338  CLST         260          1.0000000000
       780       260  TIP3  H2           -5.7392354104        7.2802265541        8.5730768034  CLST         260          1.0000000000
       781       261  TIP3  OH2           0.7499743368       -4.3794851315       12.4388443621  CLST         261          1.0000000000
       782       261  TIP3  H1            0.2597972746       -5.3042915225       12.4958128880  CLST         261          1.0000000000
       783       261  TIP3  H2            1.3972093548       -4.5649990683       13.1256015207  CLST         261          1.0000000000
       784       262  TIP3  OH2         -10.9675614536        4.7156304741        6.1838659835  CLST         262          1.0000000000
       785       262  TIP3  H1          -10.2212827313        4.5934742108        5.5062654402  CLST         262          1.0000000000
       786       262  TIP3  H2          -11.5925868894        5.0936308960        5.5232678630  CLST         262          1.0000000000
       787       263  TIP3  OH2           1.8177204262        0.8838764566        6.6860968105  CLST         263          1.0000000000
       788       263  TIP3  H1            2.5338263862        1.5103775823        6.5671897187  CLST         263          1.0000000000
       789       263  TIP3  H2            2.3566824091        0.0807676238        6.9040584555  CLST         263          1.0000000000
       790       264  TIP3  OH2           5.2072944991       -4.4073569541       -9.5984019753  CLST         264          1.0000000000
       791       264  TIP3  H1            5.1643894659       -5.3750164664       -9.8772118068  CLST         264          1.0000000000
       792       264  TIP3  H2            4.3372134152       -4.1549870933      -10.0254588051  CLST         264          1.0000000000
       793       265  TIP3  OH2           7.6400711329        4.9304174262      -10.2171419097  CLST         265          1.0000000000
       794       265  TIP3  H1            7.7706322016        5.8791822568      -10.3545608298  CLST         265          1.0000000000
       795       265  TIP3  H2            8.3564642250        4.7983813667       -9.5377549307  CLST         265          1.0000000000
       796       266  TIP3  OH2          -7.9741446555       -8.8790142039        0.1325693303  CLST         266          1.0000000000
       797       266  TIP3  H1           -7.7220918077       -9.3355953421        0.9523428594  CLST         266          1.0000000000
       798       266  TIP3  H2           -8.3334362816       -8.0097982984        0.3641606949  CLST         266          1.0000000000
       799       267  TIP3  OH2           1.2270265407        2.4661521237       -5.1313144865  CLST         267          1.0000000000
       800       267  TIP3  H1            1.3196237898        3.3083316193       -4.6511011390  CLST         267          1.0000000000
       801       267  TIP3  H2            2.1416907163        2.1056343437       -5.2133834674  CLST         267          1.0000000000
       802       268  TIP3  OH2           5.1415454009       -4.6233236733       -6.8965696585  CLST         268          1.0000000000
       803       268  TIP3  H1            5.1478866663       -4.3402759466       -7.8440202033  CLST         268          1.0000000000
       804       268  TIP3  H2            4.8163529200       -5.5447326016       -7.0363227876  CLST         268          1.0000000000
       805       269  TIP3  OH2           5.5761498384       10.7736361189       -0.1905101248  CLST         269          1.0000000000
       806       269  TIP3  H1            6.4836412051       10.6336950121       -0.5681080130  CLST         269          1.0000000000
       807       269  TIP3  H2            5.7590507622       11.5825297384        0.3278437412  CLST         269          1.0000000000
       808       270  TIP3  OH2           1.2871334335        9.3860306374       -8.0255894973  CLST         270          1.0000000000
       809       270  TIP3  H1            1.2576041602        8.5819633968       -8.5498322425  CLST         270          1.0000000000
       810       270  TIP3  H2            0.8720463861        9.0377464687       -7.1983474935  CLST         270          1.0000000000
       811       271  TIP3  OH2          -6.6276545963       -8.9532438348       -2.1606032159  CLST         271          1.0000000000
       812       271  TIP3  H1           -5.8083710821       -8.9434646577       -1.6498299485  CLST         271          1.0000000000
       813       271  TIP3  H2           -7.2515418479       -8.9646878754       -1.3630201573  CLST         271          1.0000000000
       814       272  TIP3  OH2           9.4947924198       -8.2335647835        5.8356688471  CLST         272          1.0000000000
       815       272  TIP3  H1            8.5050980320       -8.4060190284        5.9393952317  CLST         272          1.0000000000
       816       272  TIP3  H2            9.4890380354       -7.6659000119        5.0262546273  CLST         272          1.0000000000
       817       273  TIP3  OH2         -13.9891508537        9.5660351386        3.1946272742  CLST         273          1.0000000000
       818       273  TIP3  H1          -14.6104123687        9.8102725265        3.9648581029  CLST         273          1.0000000000
       819       273  TIP3  H2          -13.7218010511        8.7387568537        3.6290716371  CLST         273          1.0000000000
       820       274  TIP3  OH2           4.0314430863       12.5846601484       -3.7223481095  CLST         274          1.0000000000
       821       274  TIP3  H1            3.8921890286       11.8445970496       -3.0159401204  CLST         274          1.0000000000
       822       274  TIP3  H2            3.5538263189       13.3013573342       -3.2705101725  CLST         274          1.0000000000
       823       275  TIP3  OH2           8.7502291179      -11.2350002163        5.9583936392  CLST         275          1.0000000000
       824       275  TIP3  H1            9.2626341445      -10.3899902629        5.9562119201  CLST         275          1.0000000000
       825       275  TIP3  H2            9.4192010309      -11.9115218717        5.6530816002  CLST         275          1.0000000000
       826       276  TIP3  OH2          -0.3645578592       -5.8346698184        1.5000267631  CLST         276          1.0000000000
       827       276  TIP3  H1           -0.9480738558       -6.0248875174        0.7187434759  CLST         276          1.0000000000
       828       276  TIP3  H2           -0.8290446529       -5.0897198455        2.0085416153  CLST         276          1.0000000000
       829       277  TIP3  OH2           6.5120878103        6.3977130437       -7.0275128731  CLST         277          1.0000000000
       830       277  TIP3  H1            5.6673693658        6.0688613947       -7.4454430030  CLST         277          1.0000000000
       831       277  TIP3  H2            6.6410600816        7.2607839448       -7.4764727100  CLST         277          1.0000000000
       832       278  TIP3  OH2          -0.5703243706       -7.5592300631        3.4745417191  CLST         278          1.0000000000
       833       278  TIP3  H1           -0.4128359769       -6.8950765684        2.7154139722  CLST         278          1.0000000000
       834       278  TIP3  H2           -0.7826230876       -6.8240426865        4.1354874581  CLST         278          1.0000000000
       835       279  TIP3  OH2         -13.5813040642        6.3655182835        0.5323397803  CLST         279          1.0000000000
       836       279  TIP3  H1          -13.6753987046        5.4436377746        0.2177925193  CLST         279          1.0000000000
       837       279  TIP3  H2          -12.5992337605        6.3868465443        0.7511549157  CLST         279          1.0000000000
       838       280  TIP3  OH2          -3.4277667234      -10.1249070814        5.4633822946  CLST         280          1.0000000000
       839       280  TIP3  H1           -2.9615583641       -9.5197602323        6.0673816965  CLST         280          1.0000000000
       840       280  TIP3  H2           -4.0290803773       -9.4229273947        5.1003311500  CLST         280          1.0000000000
       841       281  TIP3  OH2           8.1270879476        7.7022158393      -10.7530296574  CLST         281          1.0000000000
       842       281  TIP3  H1            8.5249014478        8.6054564778      -10.6429692669  CLST         281          1.0000000000
       843       281  TIP3  H2            7.1918211350        7.9821969114      -10.5977160826  CLST         281          1.0000000000
       844       282  TIP3  OH2          -7.7186880727      -11.8624700636       10.0081647413  CLST         282          1.0000000000
       845       282  TIP3  H1           -8.5231856138      -11.4699141811        9.6331740496  CLST         282          1.0000000000
       846       282  TIP3  H2           -7.2760815764      -12.2596249735        9.2100583709  CLST         282          1.0000000000
       847       283  TIP3  OH2           4.5871230285        8.7234363553       -4.7309720248  CLST         283          1.0000000000
       848       283  TIP3  H1            4.7838359237        9.6794785543       -4.9349695064  CLST         283          1.0000000000
       849       283  TIP3  H2            4.0267748467        8.7505183121       -3.9188467525  CLST         283          1.0000000000
       850       284  TIP3  OH2          11.9250731289        8.3603326525       -1.2604492295  CLST         284          1.0000000000
       851       284  TIP3  H1           11.6026807494        7.6144799820       -1.7940373919  CLST         284          1.0000000000
       852       284  TIP3  H2           11.2147064337        8.9895624484       -1.4694933850  CLST         284          1.0000000000
       853       285  TIP3  OH2          -5.3663446304        2.0144856175        8.8611599430  CLST         285          1.0000000000
       854       285  TIP3  H1           -4.7567279053        1.7934096723        8.0999943216  CLST         285          1.0000000000
       855       285  TIP3  H2           -4.7930616356        2.7327163915        9.2741643158  CLST         285          1.0000000000
       856       286  TIP3  OH2           2.9237555779        5.7925956127       -0.6131937822  CLST         286          1.0000000000
       857       286  TIP3  H1            2.0769199602        5.5936898772       -0.2004434445  CLST         286          1.0000000000
       858       286  TIP3  H2            3.5043872110        5.6630149340        0.2029942055  CLST         286          1.0000000000
       859       287  TIP3  OH2          -4.2313081280        9.3971632390       11.2917587464  CLST         287          1.0000000000
       860       287  TIP3  H1           -4.6864966655       10.2404026683       11.6453304206  CLST         287          1.0000000000
       861       287  TIP3  H2           -4.9926525427        8.9787675959       10.8767182407  CLST         287          1.0000000000
       862       288  TIP3  OH2           5.6822407346        3.5033378267       -9.4755368562  CLST         288          1.0000000000
       863       288  TIP3  H1            5.5714689578        2.8134600766      -10.1051907087  CLST         288          1.0000000000
       864       288  TIP3  H2            6.4759096058        4.0457670585       -9.9136019356  CLST         288          1.0000000000
       865       289  TIP3  OH2          -7.1922523900       -5.1942729053       -8.3324414911  CLST         289          1.0000000000
       866       289  TIP3  H1           -7.8878849771       -4.4590041592       -8.3242794771  CLST         289          1.0000000000
       867       289  TIP3  H2           -6.6635208739       -5.0287937202       -7.5578431964  CLST         289          1.0000000000
       868       290  TIP3  OH2           2.1438344927      -12.0800289939       11.2090789525  CLST         290          1.0000000000
       869       290  TIP3  H1            2.7560519784      -12.8202678737       11.3792460814  CLST         290          1.0000000000
       870       290  TIP3  H2            2.5477721974      -11.4627831138       11.8587946848  CLST         290          1.0000000000
       871       291  TIP3  OH2         -10.3137805408       -3.6195417082        2.8996816843  CLST         291          1.0000000000
       872       291  TIP3  H1          -11.0301482426       -4.2434343510        3.2097367566  CLST         291          1.0000000000
       873       291  TIP3  H2          -10.3640464275       -3.7943779523        1.9470120980  CLST         291          1.0000000000
       874       292  TIP3  OH2          12.1107002028        3.5229603069       -4.6536391765  CLST         292          1.0000000000
       875       292  TIP3  H1           11.2638118751        3.0454041826       -4.6768829214  CLST         292          1.0000000000
       876       292  TIP3  H2           12.0136369068        4.1789583744       -5.4006435752  CLST         292          1.0000000000
       877       293  TIP3  OH2           9.0102398007       10.5951118629       11.1577469616  CLST         293          1.0000000000
       878       293  TIP3  H1            8.5468178688       11.3750172422       11.4594032055  CLST         293          1.0000000000
       879       293  TIP3  H2            9.1889889182       10.9559914782       10.2258435418  CLST         293          1.0000000000
       880       294  TIP3  OH2           4.2028960481        4.4755050624       -2.4633922738  CLST         294          1.0000000000
       881       294  TIP3  H1            3.7846347659        5.1015180850       -1.8020400588  CLST         294          1.0000000000
       882       294  TIP3  H2            4.3752760228        5.0517461006       -3.2400648937  CLST         294          1.0000000000
       883       295  TIP3  OH2          -2.4262444619      -13.4140910221       -8.7121643631  CLST         295          1.0000000000
       884       295  TIP3  H1           -3.1520917661      -13.3116185811       -8.0382717078  CLST         295          1.0000000000
       885       295  TIP3  H2           -1.6763994205      -13.7167300036       -8.1479355658  CLST         295          1.0000000000
       886       296  TIP3  OH2          -1.4885158130       11.5446395655      -12.9506711185  CLST         296          1.0000000000
       887       296  TIP3  H1           -0.4260475208       11.1721613686      -13.0522387034  CLST         296          1.0000000000
       888       296  TIP3  H2           -1.4384453234       11.1924344113      -11.9918035647  CLST         296          1.0000000000
       889       297  TIP3  OH2           8.1116406457       -0.5633237860       11.4455187762  CLST         297          1.0000000000
       890       297  TIP3  H1            8.6962389785       -1.2510279222       11.0557561818  CLST         297          1.0000000000
       891       297  TIP3  H2            7.3045514499       -1.1233992142       11.5121427735  CLST         297          1.0000000000
       892       298  TIP3  OH2           1.0293690910       -1.2398719981       -7.5536920781  CLST         298          1.0000000000
       893       298  TIP3  H1            1.4786009124       -0.5805203425       -8.1881541917  CLST         298          1.0000000000
       894       298  TIP3  H2            0.8261651890       -1.9241391843       -8.2675861169  CLST         298          1.0000000000
       895       299  TIP3  OH2           3.0132221568       10.3076593840       12.7255991973  CLST         299          1.0000000000
       896       299  TIP3  H1            2.2816824884       10.8736888532       12.3258324004  CLST         299          1.0000000000
       897       299  TIP3  H2            2.4314894002        9.5795045619       12.7289467330  CLST         299          1.0000000000
       898       300  TIP3  OH2         -10.7958176778        5.2831007663       -3.7517727010  CLST         300          1.0000000000
       899       300  TIP3  H1          -10.8093860296        5.7302366604       -4.6291070151  CLST         300          1.0000000000
       900       300  TIP3  H2          -10.7568466780        6.1449188955       -3.2479873193  CLST         300          1.0000000000
       901       301  TIP3  OH2           9.6125842489       -8.2697842717       11.2317806226  CLST         301          1.0000000000
       902       301  TIP3  H1            9.3066632395       -7.9132089502       12.1304438320  CLST         301          1.0000000000
       903       301  TIP3  H2            9.6551039099       -9.2405833941       11.4212948046  CLST         301          1.0000000000
       904       302  TIP3  OH2           7.6854055340       13.0447658648        5.5197201149  CLST         302          1.0000000000
       905       302  TIP3  H1            7.0612705156       13.5176803948        4.8942061193  CLST         302          1.0000000000
       906       302  TIP3  H2            6.9927197528       12.4238332683        5.8212183094  CLST         302          1.0000000000
       907       303  TIP3  OH2         -10.8575038084        1.2680659153       -1.9925501514  CLST         303          1.0000000000
       908       303  TIP3  H1           -9.9564339833        0.9627745734       -1.7450740889  CLST         303          1.0000000000
       909       303  TIP3  H2          -10.9355065348        0.7348737420       -2.8622860554  CLST         303          1.0000000000
       910       304  TIP3  OH2          -8.0434322258        1.2252773612      -15.0561032803  CLST         304          1.0000000000
       911       304  TIP3  H1           -7.5096680858        0.4347433240      -14.6750869845  CLST         304          1.0000000000
       912       304  TIP3  H2           -7.4802343001        1.5312425295      -15.7791470990  CLST         304          1.0000000000
       913       305  TIP3  OH2           3.5203434863       -4.0568417079       13.9143899158  CLST         305          1.0000000000
       914       305  TIP3  H1            4.4502083563       -4.2635968002       13.8603624817  CLST         305          1.0000000000
       915       305  TIP3  H2            3.5251056325       -3.2028527845       13.4454378911  CLST         305          1.0000000000
       916       306  TIP3  OH2           9.0037594887      -11.8711572444      -11.6003797480  CLST         306          1.0000000000
       917       306  TIP3  H1            9.5067343155      -11.9016629235      -12.4737781938  CLST         306          1.0000000000
       918       306  TIP3  H2            9.2800032273      -12.6579427250      -11.1531526768  CLST         306          1.0000000000
       919       307  TIP3  OH2           9.2381666912        7.8981125806       -7.5400432701  CLST         307          1.0000000000
       920       307  TIP3  H1            8.3607887325        8.3132475628       -7.5702758512  CLST         307          1.0000000000
       921       307  TIP3  H2            9.5784946460        8.0857503487       -6.6577651465  CLST         307          1.0000000000
       922       308  TIP3  OH2         -10.9358274164       -4.8200307821        8.9219187653  CLST         308          1.0000000000
       923       308  TIP3  H1          -10.9418960636       -5.6922554602        9.4443661827  CLST         308          1.0000000000
       924       308  TIP3  H2          -10.0000453611       -4.5782557250        9.0951759674  CLST         308          1.0000000000
       925       309  TIP3  OH2          -1.9599972949       -0.4650281057        5.5027723617  CLST         309          1.0000000000
       926       309  TIP3  H1           -2.7818261703       -0.7624430582        5.0152204571  CLST         309          1.0000000000
       927       309  TIP3  H2           -2.1173297181       -1.0842352450        6.2789571075  CLST         309          1.0000000000
       928       310  TIP3  OH2          -4.9790949686       -0.5616705675        7.3101891084  CLST         310          1.0000000000
       929       310  TIP3  H1           -4.1778214398       -0.0399242766        7.5282908914  CLST         310          1.0000000000
       930       310  TIP3  H2           -4.9847751577       -1.2208985962        8.0529933340  CLST         310          1.0000000000
       931       311  TIP3  OH2          -7.2395169522        8.4214996588      -12.2814699933  CLST         311          1.0000000000
       932       311  TIP3  H1           -6.7315616231        7.7279519261      -12.7424312699  CLST         311          1.0000000000
       933       311  TIP3  H2           -7.0226127271        8.2306876353      -11.3423599310  CLST         311          1.0000000000
       934       312  TIP3  OH2           6.6107091730       -0.8846880348       -6.2440080266  CLST         312          1.0000000000
       935       312  TIP3  H1            6.4598292574       -0.1007767698       -5.7216043425  CLST         312          1.0000000000
       936       312  TIP3  H2            6.4744506551       -1.5595822514       -5.5391103475  CLST         312          1.0000000000
       937       313  TIP3  OH2          -8.9969467664      -10.5199632592        7.2054704969  CLST         313          1.0000000000
       938       313  TIP3  H1           -8.3960270899       -9.7554631398        7.0725107734  CLST         313          1.0000000000
       939       313  TIP3  H2           -9.3984530908      -10.4820346202        6.2740681308  CLST         313          1.0000000000
       940       314  TIP3  OH2          -1.2922457684      -12.1363900483      -10.6981696779  CLST         314          1.0000000000
       941       314  TIP3  H1           -1.2312953777      -11.2715396046      -10.1917258640  CLST         314          1.0000000000
       942       314  TIP3  H2           -1.7719596185      -12.6427314208       -9.9637498339  CLST         314          1.0000000000
       943       315  TIP3  OH2          -1.3568950757       -0.6393606631       -6.4579958567  CLST         315          1.0000000000
       944       315  TIP3  H1           -0.4817950328       -0.9698756809       -6.7300552954  CLST         315          1.0000000000
       945       315  TIP3  H2           -1.1527579684       -0.2632545586       -5.5627908473  CLST         315          1.0000000000
       946       316  TIP3  OH2         -13.1955354273       -3.8803438967       -5.4666388322  CLST         316          1.0000000000
       947       316  TIP3  H1          -12.4571891139       -4.4266484498       -5.8818909224  CLST         316          1.0000000000
       948       316  TIP3  H2          -12.8829471753       -3.0650226802       -5.9656360761  CLST         316          1.0000000000
       949       317  TIP3  OH2          -6.2624828708        0.0272415455       -3.7037108917  CLST         317          1.0000000000
       950       317  TIP3  H1           -5.3914381707        0.0638703122       -3.1674756336  CLST         317          1.0000000000
       951       317  TIP3  H2           -6.7766245977        0.4563958716       -2.9683161556  CLST         317          1.0000000000
       952       318  TIP3  OH2          -3.9163452010       -9.6269055251       -9.4130112730  CLST         318          1.0000000000
       953       318  TIP3  H1           -4.1497654724       -9.7370744104       -8.4309438536  CLST         318          1.0000000000
       954       318  TIP3  H2           -2.9315277128       -9.7257953972       -9.2875035453  CLST         318          1.0000000000
       955       319  TIP3  OH2           5.6173885538       10.7469408534        8.6138071782  CLST         319          1.0000000000
       956       319  TIP3  H1            6.3936976044       10.1997325361        8.3358951805  CLST         319          1.0000000000
       957       319  TIP3  H2            6.1509953979       11.4280227138        9.0011947840  CLST         319          1.0000000000
       958       320  TIP3  OH2         -10.6825431295        1.0160865424      -14.4867673494  CLST         320          1.0000000000
       959       320  TIP3  H1           -9.7872048687        1.2321583098      -14.8737608318  CLST         320          1.0000000000
       960       320  TIP3  H2          -10.2883950119        0.2187493397      -14.0266803886  CLST         320          1.0000000000
       961       321  TIP3  OH2          -9.6766392932       10.2630920995       -9.6452827720  CLST         321          1.0000000000
       962       321  TIP3  H1          -10.6692821404       10.4278901593       -9.9715064740  CLST         321          1.0000000000
       963       321  TIP3  H2           -9.8142623111       10.2275074846      -11.5261453044  CLST         321          1.0000000000
       964       322  TIP3  OH2         -12.5646908109       -1.8089600105       -2.3575696329  CLST         322          1.0000000000
       965       322  TIP3  H1          -12.1493432737       -1.2541366560       -3.0588724023  CLST         322          1.0000000000
       966       322  TIP3  H2          -11.6864792894       -1.9490307574       -1.8764099003  CLST         322          1.0000000000
       967       323  TIP3  OH2          -1.0810032091        4.1169592940        4.2422341517  CLST         323          1.0000000000
       968       323  TIP3  H1           -0.8190188968        3.2157714908        4.4973121218  CLST         323          1.0000000000
       969       323  TIP3  H2           -0.9091438181        4.1156251388        3.2780476307  CLST         323          1.0000000000
       970       324  TIP3  OH2         -11.0015061883        6.2355360109        1.4288185725  CLST         324          1.0000000000
       971       324  TIP3  H1          -11.0892296900        5.3743723933        1.9355756275  CLST         324          1.0000000000
       972       324  TIP3  H2          -10.3205772192        6.6537366153        2.0254598350  CLST         324          1.0000000000
       973       325  TIP3  OH2          -4.6379319852        0.8286090189        3.6120123029  CLST         325          1.0000000000
       974       325  TIP3  H1           -5.6585990490        0.8624805349        3.6029467972  CLST         325          1.0000000000
       975       325  TIP3  H2           -4.3454845004        1.5871805310        3.3176414324  CLST         325          1.0000000000
       976       326  TIP3  OH2           9.1874402818        8.7271022969       -2.7195631686  CLST         326          1.0000000000
       977       326  TIP3  H1            9.0648224549        7.7880693270       -2.4570415618  CLST         326          1.0000000000
       978       326  TIP3  H2            8.4575048943        8.7252180245       -3.4034905365  CLST         326          1.0000000000
       979       327  TIP3  OH2          10.4301127593       -3.7508779468      -13.0806523369  CLST         327          1.0000000000
       980       327  TIP3  H1           10.6137251482       -3.2357107561      -13.7744731798  CLST         327          1.0000000000
       981       327  TIP3  H2           10.0854841506       -3.0573949680      -12.3930894817  CLST         327          1.0000000000
       982       328  TIP3  OH2           2.1976692590        7.0370402515       -9.8527143973  CLST         328          1.0000000000
       983       328  TIP3  H1            2.2165784070        6.1314730768       -9.4792113593  CLST         328          1.0000000000
       984       328  TIP3  H2            3.1689432400        7.1478093858       -9.8479226551  CLST         328          1.0000000000
       985       329  TIP3  OH2           1.4032568702      -11.7195079196       -2.3501427653  CLST         329          1.0000000000
       986       329  TIP3  H1            1.5788661673      -10.7866706250       -2.6932169466  CLST         329          1.0000000000
       987       329  TIP3  H2            2.1579724240      -11.7252749460       -1.7158238728  CLST         329          1.0000000000
       988       330  TIP3  OH2          -9.3924547370       -1.0261677811        3.4326884463  CLST         330          1.0000000000
       989       330  TIP3  H1           -9.7409392420       -1.9299695016        3.2457246785  CLST         330          1.0000000000
       990       330  TIP3  H2          -10.1861403795       -0.6432995491        3.8647385125  CLST         330          1.0000000000
       991       331  TIP3  OH2          12.1683883368        9.7501931653       -9.0108160910  CLST         331          1.0000000000
       992       331  TIP3  H1           12.9443010992        9.9201527093       -9.3071522635  CLST         331          1.0000000000
       993       331  TIP3  H2           12.1300170929        8.6945171412       -8.9520617859  CLST         331          1.0000000000
       994       332  TIP3  OH2          11.4023197269       -1.2974211860       -4.4854487302  CLST         332          1.0000000000
       995       332  TIP3  H1           12.3253327600       -1.4611416178       -4.9818182208  CLST         332          1.0000000000
       996       332  TIP3  H2           11.7955429395       -0.5644427434       -4.0197294681  CLST         332          1.0000000000
       997       333  TIP3  OH2          10.5743883393      -14.0573033033        7.8771796503  CLST         333          1.0000000000
       998       333  TIP3  H1            9.6680736691      -13.8367625113        8.0742560114  CLST         333          1.0000000000
       999       333  TIP3  H2           10.5949013897      -14.1028765661        6.9012679099  CLST         333          1.0000000000
      1000       334  TIP3  OH2         -10.6922165749       -9.6786514015        9.0586104494  CLST         334          1.0000000000
      1001       334  TIP3  H1          -11.5605096776       -9.9752919014        8.6545550143  CLST         334          1.0000000000
      1002       334  TIP3  H2          -10.1328335242      -10.1851864192        8.3905970430  CLST         334          1.0000000000
      1003       335  TIP3  OH2           6.9046231425      -10.0565095376        1.4098803687  CLST         335          1.0000000000
      1004       335  TIP3  H1            6.8584499505      -10.2709337210        2.3552374129  CLST         335          1.0000000000
      1005       335  TIP3  H2            5.9634344962       -9.8806381475        1.2022924863  CLST         335          1.0000000000
      1006       336  TIP3  OH2          -9.2600144975       -3.5868991850       -3.4801909386  CLST         336          1.0000000000
      1007       336  TIP3  H1           -9.3736962693       -4.2627967435       -4.1751948689  CLST         336          1.0000000000
      1008       336  TIP3  H2           -8.8263644097       -2.8930427713       -4.0135908019  CLST         336          1.0000000000
      1009       337  TIP3  OH2          -1.5630470898       -4.9125675320        8.0619250247  CLST         337          1.0000000000
      1010       337  TIP3  H1           -1.2418816166       -4.7220684888        8.9636286749  CLST         337          1.0000000000
      1011       337  TIP3  H2           -1.8972461690       -3.9760523628        7.9209821854  CLST         337          1.0000000000
      1012       338  TIP3  OH2          -0.4706336337        2.7570862640       10.6342748684  CLST         338          1.0000000000
      1013       338  TIP3  H1           -0.5559740746        2.5292955400        9.6380902445  CLST         338          1.0000000000
      1014       338  TIP3  H2            0.2260399082        2.1107445354       10.7575905369  CLST         338          1.0000000000
      1015       339  TIP3  OH2           7.9638943415        8.0698855507        2.7796728493  CLST         339          1.0000000000
      1016       339  TIP3  H1            7.5616925290        8.7268833854        3.4394610514  CLST         339          1.0000000000
      1017       339  TIP3  H2            7.3284544526        8.0108948162        2.0546243341  CLST         339          1.0000000000
      1018       340  TIP3  OH2          -4.6901422128      -11.7095611633      -11.2432863531  CLST         340          1.0000000000
      1019       340  TIP3  H1           -4.4114634155      -10.9906714362      -10.6193227931  CLST         340          1.0000000000
      1020       340  TIP3  H2           -4.1311903766      -12.4138387673      -10.8978267146  CLST         340          1.0000000000
      1021       341  TIP3  OH2          -6.7775371238        4.6301987527        9.4125824407  CLST         341          1.0000000000
      1022       341  TIP3  H1           -5.8593295112        4.4619574371        9.6421214876  CLST         341          1.0000000000
      1023       341  TIP3  H2           -7.1049944675        3.7430268679        9.1946248782  CLST         341          1.0000000000
      1024       342  TIP3  OH2          -4.4658090311      -11.0341789960       13.7598252411  CLST         342          1.0000000000
      1025       342  TIP3  H1           -5.1831995327      -11.0267345470       13.0733510133  CLST         342          1.0000000000
      1026       342  TIP3  H2           -4.7416671394      -10.8935088716       14.5658078410  CLST         342          1.0000000000
      1027       343  TIP3  OH2           1.3502882393       -9.0461055081       -9.8651748760  CLST         343          1.0000000000
      1028       343  TIP3  H1            1.3001044781       -8.1273790802      -10.2805082386  CLST         343          1.0000000000
      1029       343  TIP3  H2            1.8071129717       -9.4624814548      -10.6658009412  CLST         343          1.0000000000
      1030       344  TIP3  OH2           5.5933380597       -4.0041118394        6.3537283430  CLST         344          1.0000000000
      1031       344  TIP3  H1            5.0053741081       -4.5823089682        6.9122728746  CLST         344          1.0000000000
      1032       344  TIP3  H2            6.1629388495       -4.6600693332        5.8578996106  CLST         344          1.0000000000
      1033       345  TIP3  OH2          13.1023183361        7.1715067896        8.7888148469  CLST         345          1.0000000000
      1034       345  TIP3  H1           12.7080541643        6.4561751153        8.3006520604  CLST         345          1.0000000000
      1035       345  TIP3  H2           12.4991403648        7.3465941221        9.5261323418  CLST         345          1.0000000000
      1036       346  TIP3  OH2           9.5199036706        9.4613364500        1.0270331031  CLST         346          1.0000000000
      1037       346  TIP3  H1            9.7996521025       10.2053838220        1.6582579622  CLST         346          1.0000000000
      1038       346  TIP3  H2            9.1834032335        8.8374946826        1.7004136608  CLST         346          1.0000000000
      1039       347  TIP3  OH2          -4.9992716399        2.9465622572       -9.7838065409  CLST         347          1.0000000000
      1040       347  TIP3  H1           -5.7356512897        3.3277693174       -9.2102517614  CLST         347          1.0000000000
      1041       347  TIP3  H2           -4.3003112535        3.0576048165       -9.0711458523  CLST         347          1.0000000000
      1042       348  TIP3  OH2          -1.1696392831        6.1865678861        5.8269263615  CLST         348          1.0000000000
      1043       348  TIP3  H1           -1.4263180252        5.3544890838        5.3205993717  CLST         348          1.0000000000
      1044       348  TIP3  H2           -0.5977551653        6.5347160116        5.0620640185  CLST         348          1.0000000000
      1045       349  TIP3  OH2          -4.1045205888        5.1675289365       -2.6548643025  CLST         349          1.0000000000
      1046       349  TIP3  H1           -3.6862294911        4.9663445279       -3.5284127407  CLST         349          1.0000000000
      1047       349  TIP3  H2           -3.4944099709        5.9937433609       -2.5302942466  CLST         349          1.0000000000
      1048       350  TIP3  OH2          -2.5120088396        8.8381510622        5.2060118058  CLST         350          1.0000000000
      1049       350  TIP3  H1           -3.1831716709        8.5131481522        4.5681175644  CLST         350          1.0000000000
      1050       350  TIP3  H2           -2.1424582629        8.0477484475        5.6062393127  CLST         350          1.0000000000
      1051       351  TIP3  OH2           4.7486472065       -7.5652718119       -7.6378275337  CLST         351          1.0000000000
      1052       351  TIP3  H1            4.1203884292       -8.3102151883       -7.7005994304  CLST         351          1.0000000000
      1053       351  TIP3  H2            4.7108710008       -7.3217450819       -8.6186069706  CLST         351          1.0000000000
      1054       352  TIP3  OH2         -10.3110895825      -11.1099093627        1.7279983273  CLST         352          1.0000000000
      1055       352  TIP3  H1           -9.3365313434      -11.1582470384        1.6083519887  CLST         352          1.0000000000
      1056       352  TIP3  H2          -10.5431861139      -10.3776211093        1.1423039146  CLST         352          1.0000000000
      1057       353  TIP3  OH2          10.6680259356       -8.0760927569       -8.7661242972  CLST         353          1.0000000000
      1058       353  TIP3  H1            9.7286837719       -8.4709037569       -8.8921739738  CLST         353          1.0000000000
      1059       353  TIP3  H2           10.8830897461       -8.2237902841       -7.8629065307  CLST         353          1.0000000000
      1060       354  TIP3  OH2           6.8292071793      -10.5990339541        4.1650534507  CLST         354          1.0000000000
      1061       354  TIP3  H1            7.4745921940      -10.9805100609        4.8649521372  CLST         354          1.0000000000
      1062       354  TIP3  H2            6.6596111826       -9.7770574065        4.6983906854  CLST         354          1.0000000000
      1063       355  TIP3  OH2          -7.3744129662        8.9686159556       -8.9118345876  CLST         355          1.0000000000
      1064       355  TIP3  H1           -6.9781754620        9.8859185905       -8.8483729317  CLST         355          1.0000000000
      1065       355  TIP3  H2           -8.2243965329        9.2767222321       -9.2769082027  CLST         355          1.0000000000
      1066       356  TIP3  OH2          12.5090310597        0.9128465891       -1.9858493588  CLST         356          1.0000000000
      1067       356  TIP3  H1           11.5402612497        0.7106319341       -2.1620639814  CLST         356          1.0000000000
      1068       356  TIP3  H2           12.6931113508        0.6173199738       -1.0935350791  CLST         356          1.0000000000
      1069       357  TIP3  OH2          -0.4979511828       -0.5571672907       -1.9526125895  CLST         357          1.0000000000
      1070       357  TIP3  H1            0.2987091921       -1.0685672070       -2.2140274811  CLST         357          1.0000000000
      1071       357  TIP3  H2           -0.7482429334       -0.2138926878       -2.8378574286  CLST         357          1.0000000000
      1072       358  TIP3  OH2          -5.5723734234        7.1125063042       -7.5676754566  CLST         358          1.0000000000
      1073       358  TIP3  H1           -6.3139600232        7.5125193031       -8.1114571429  CLST         358          1.0000000000
      1074       358  TIP3  H2           -6.1646369302        6.5587543731       -6.9925472115  CLST         358          1.0000000000
      1075       359  TIP3  OH2          -5.0764953160       12.1500129432        6.0757168299  CLST         359          1.0000000000
      1076       359  TIP3  H1           -5.3345860984       11.9008006466        5.1610453453  CLST         359          1.0000000000
      1077       359  TIP3  H2           -4.0879130127       12.2442184490        5.9334583244  CLST         359          1.0000000000
      1078       360  TIP3  OH2          -6.8910911651        5.6740991673       -3.3416391810  CLST         360          1.0000000000
      1079       360  TIP3  H1           -7.1047519489        6.4038428064       -2.6881232542  CLST         360          1.0000000000
      1080       360  TIP3  H2           -5.9497030441        5.4904875817       -3.0859641893  CLST         360          1.0000000000
      1081       361  TIP3  OH2          -1.4704058007       -1.0660840352       10.0131135302  CLST         361          1.0000000000
      1082       361  TIP3  H1           -1.2622438731       -0.6058029007       10.8852751589  CLST         361          1.0000000000
      1083       361  TIP3  H2           -1.5941084557       -1.9845097800       10.3634199179  CLST         361          1.0000000000
      1084       362  TIP3  OH2         -10.5759602153        2.8456132774        0.5685579707  CLST         362          1.0000000000
      1085       362  TIP3  H1          -10.5987749540        3.4119631050       -0.2321453572  CLST         362          1.0000000000
      1086       362  TIP3  H2          -11.2475712080        2.1740313514        0.3628833793  CLST         362          1.0000000000
      1087       363  TIP3  OH2          10.3364307302        2.4011054726       10.2992575700  CLST         363          1.0000000000
      1088       363  TIP3  H1           10.5508352876        1.4419246458        9.9899244215  CLST         363          1.0000000000
      1089       363  TIP3  H2           11.1818130010        2.8459718384       10.2338060569  CLST         363          1.0000000000
      1090       364  TIP3  OH2           7.6288154273       -5.5858287617       -6.2158214600  CLST         364          1.0000000000
      1091       364  TIP3  H1            6.7768666088       -5.2335688770       -6.5919594470  CLST         364          1.0000000000
      1092       364  TIP3  H2            8.2276574020       -5.4814072670       -7.0010826581  CLST         364          1.0000000000
      1093       365  TIP3  OH2          -6.1645903036       -6.8038059215        2.6564415927  CLST         365          1.0000000000
      1094       365  TIP3  H1           -6.6303839847       -5.9756864662        2.4652140106  CLST         365          1.0000000000
      1095       365  TIP3  H2           -6.9450133356       -7.4079039288        2.8718932313  CLST         365          1.0000000000
      1096       366  TIP3  OH2           1.7445419637       -1.5410161603       -2.8983411910  CLST         366          1.0000000000
      1097       366  TIP3  H1            2.6886499230       -1.4737340909       -2.5827405041  CLST         366          1.0000000000
      1098       366  TIP3  H2            1.9163390653       -1.0975579647       -3.7728094573  CLST         366          1.0000000000
      1099       367  TIP3  OH2          -5.3589609203       11.7384051497       12.3110824148  CLST         367          1.0000000000
      1100       367  TIP3  H1           -6.2682699341       11.7394984494       11.9620065425  CLST         367          1.0000000000
      1101       367  TIP3  H2           -5.5205272110       12.1760707294       12.9998166689  CLST         367          1.0000000000
      1102       368  TIP3  OH2          -2.6016171661        6.5143839322        1.1942171939  CLST         368          1.0000000000
      1103       368  TIP3  H1           -2.7400603306        7.2166712200        0.4922637156  CLST         368          1.0000000000
      1104       368  TIP3  H2           -2.9241263472        7.1053687326        1.9648364709  CLST         368          1.0000000000
      1105       369  TIP3  OH2         -11.6972057105       -1.7896558588       -6.6318348769  CLST         369          1.0000000000
      1106       369  TIP3  H1          -10.7692564785       -2.1217882839       -6.7101033496  CLST         369          1.0000000000
      1107       369  TIP3  H2          -11.9347110313       -2.2155151027       -7.5665602116  CLST         369          1.0000000000
      1108       370  TIP3  OH2         -12.0685404423        5.5421152726      -11.6681995159  CLST         370          1.0000000000
      1109       370  TIP3  H1          -12.4337178391        4.8730505966      -12.3645891847  CLST         370          1.0000000000
      1110       370  TIP3  H2          -12.6262047527        6.0703553514      -11.3251231888  CLST         370          1.0000000000
      1111       371  TIP3  OH2           2.1500584514        7.8784246794        5.8052712854  CLST         371          1.0000000000
      1112       371  TIP3  H1            2.0161761495        7.5751588872        6.7190378270  CLST         371          1.0000000000
      1113       371  TIP3  H2            3.1247047366        7.8175093590        5.7469357439  CLST         371          1.0000000000
      1114       372  TIP3  OH2           8.0703793757       -7.5335418156        9.1300954794  CLST         372          1.0000000000
      1115       372  TIP3  H1            8.6686735310       -7.5649434190        8.3751257719  CLST         372          1.0000000000
      1116       372  TIP3  H2            8.6771222281       -7.8121749352        9.8674171676  CLST         372          1.0000000000
      1117       373  TIP3  OH2          10.9969941002       -0.4013373696        6.6089405921  CLST         373          1.0000000000
      1118       373  TIP3  H1           11.2680207580        0.3292449976        6.0244429307  CLST         373          1.0000000000
      1119       373  TIP3  H2           10.1895221784       -0.6142942640        6.1620479612  CLST         373          1.0000000000
      1120       374  TIP3  OH2          -9.4576397905        4.8225542095      -12.1585743179  CLST         374          1.0000000000
      1121       374  TIP3  H1           -9.3440762574        5.6799526104      -12.5216430447  CLST         374          1.0000000000
      1122       374  TIP3  H2          -10.4709575474        4.9475262034      -11.8928868686  CLST         374          1.0000000000
      1123       375  TIP3  OH2           9.7528660375       -5.5163148326       -2.7485490970  CLST         375          1.0000000000
      1124       375  TIP3  H1           10.2527927392       -5.0946252122       -3.4967764166  CLST         375          1.0000000000
      1125       375  TIP3  H2           10.0185769249       -6.4810608279       -2.8660513526  CLST         375          1.0000000000
      1126       376  TIP3  OH2          -2.3320764299      -11.2195384647       12.0901388107  CLST         376          1.0000000000
      1127       376  TIP3  H1           -2.9575670374      -11.3210750956       12.8509710681  CLST         376          1.0000000000
      1128       376  TIP3  H2           -2.8723843703      -11.5818814318       11.3666760674  CLST         376          1.0000000000
      1129       377  TIP3  OH2         -10.1028667370       12.9174182569       10.4053535410  CLST         377          1.0000000000
      1130       377  TIP3  H1           -9.1870492993       12.5025743003       10.5001468430  CLST         377          1.0000000000
      1131       377  TIP3  H2           -9.8887321088       13.3568804449        9.5296709215  CLST         377          1.0000000000
      1132       378  TIP3  OH2           2.2707434552       -7.9725449460        7.4217114332  CLST         378          1.0000000000
      1133       378  TIP3  H1            2.0787648266       -7.0318646449        7.4688724191  CLST         378          1.0000000000
      1134       378  TIP3  H2            1.7279150896       -8.3570626347        8.1360064410  CLST         378          1.0000000000
      1135       379  TIP3  OH2          -9.4173251948        9.4152315533       -1.1834166603  CLST         379          1.0000000000
      1136       379  TIP3  H1           -9.0220809768        9.5504106178       -0.3265864154  CLST         379          1.0000000000
      1137       379  TIP3  H2           -9.6353021333       10.3004513141       -1.5563334686  CLST         379          1.0000000000
      1138       380  TIP3  OH2           3.0091563706       -4.1842329205      -11.2156043964  CLST         380          1.0000000000
      1139       380  TIP3  H1            2.4861447336       -3.4534242593      -11.7297237750  CLST         380          1.0000000000
      1140       380  TIP3  H2            3.3804201769       -4.5684372287      -12.0487924625  CLST         380          1.0000000000
      1141       381  TIP3  OH2          10.2621502508        4.2027345115        3.4618475027  CLST         381          1.0000000000
      1142       381  TIP3  H1            9.5430274648        4.7903544439        3.8062506322  CLST         381          1.0000000000
      1143       381  TIP3  H2           10.9418056998        4.9456215573        3.4250906972  CLST         381          1.0000000000
      1144       382  TIP3  OH2           1.8860159220       -5.2879849565        5.7353756709  CLST         382          1.0000000000
      1145       382  TIP3  H1            2.5996990659       -5.2063704032        6.4099225131  CLST         382          1.0000000000
      1146       382  TIP3  H2            2.4034620019       -5.8662710914        5.1167445286  CLST         382          1.0000000000
      1147       383  TIP3  OH2          10.2232556133        8.8841944824        4.8022520131  CLST         383          1.0000000000
      1148       383  TIP3  H1            9.3446921706        8.9954871815        4.3828980828  CLST         383          1.0000000000
      1149       383  TIP3  H2           10.4570666430        9.8180748394        4.9449189891  CLST         383          1.0000000000
      1150       384  TIP3  OH2          -3.2952043737       -1.8207586612       -8.1783533851  CLST         384          1.0000000000
      1151       384  TIP3  H1           -2.8154851248       -2.6794908104       -8.1619708399  CLST         384          1.0000000000
      1152       384  TIP3  H2           -2.7429921638       -1.3732335767       -7.4960952315  CLST         384          1.0000000000
      1153       385  TIP3  OH2           3.7307684236      -11.8412275851       -0.7299191116  CLST         385          1.0000000000
      1154       385  TIP3  H1            4.6319770311      -12.3119777737       -0.5447916888  CLST         385          1.0000000000
      1155       385  TIP3  H2            3.8757359579      -11.0564320500       -0.1989275333  CLST         385          1.0000000000
      1156       386  TIP3  OH2          -4.1315726572        9.3512394140       -6.1672334882  CLST         386          1.0000000000
      1157       386  TIP3  H1           -4.5120979483        8.5028456727       -6.5219180074  CLST         386          1.0000000000
      1158       386  TIP3  H2           -4.1285109057        9.7737134873       -7.0937365748  CLST         386          1.0000000000
      1159       387  TIP3  OH2          -9.7802939524       10.7317004191        2.7285758233  CLST         387          1.0000000000
      1160       387  TIP3  H1          -10.6095857363       10.4335757546        2.2845064974  CLST         387          1.0000000000
      1161       387  TIP3  H2           -9.0846304996       10.4709844632        2.0943164731  CLST         387          1.0000000000
      1162       388  TIP3  OH2          -1.8761075152      -12.3557039032        5.9431630180  CLST         388          1.0000000000
      1163       388  TIP3  H1           -2.3408808637      -11.5763875807        5.5281174010  CLST         388          1.0000000000
      1164       388  TIP3  H2           -1.8965661907      -12.0589358942        6.9089809186  CLST         388          1.0000000000
      1165       389  TIP3  OH2          -8.1236819112        3.4379750966       -3.7145157612  CLST         389          1.0000000000
      1166       389  TIP3  H1           -7.6425880514        4.2838724247       -3.5246885500  CLST         389          1.0000000000
      1167       389  TIP3  H2           -9.0268270348        3.8411984872       -3.6534469351  CLST         389          1.0000000000
      1168       390  TIP3  OH2          -5.8948164584       -3.9783494293        4.5131796337  CLST         390          1.0000000000
      1169       390  TIP3  H1           -5.4462499161       -3.0633589303        4.5897905675  CLST         390          1.0000000000
      1170       390  TIP3  H2           -5.1235052400       -4.4372041902        4.1703258012  CLST         390          1.0000000000
      1171       391  TIP3  OH2          -8.7693408007       -8.8328605738       -6.1648524859  CLST         391          1.0000000000
      1172       391  TIP3  H1           -9.1940925018       -9.5428035371       -6.6681979740  CLST         391          1.0000000000
      1173       391  TIP3  H2           -8.0771440317       -9.3542098572       -5.6832714051  CLST         391          1.0000000000
      1174       392  TIP3  OH2           1.0381410589       -1.9660593697       10.0874984630  CLST         392          1.0000000000
      1175       392  TIP3  H1            0.6061336906       -2.8457235872       10.1599793097  CLST         392          1.0000000000
      1176       392  TIP3  H2            0.2086557316       -1.4519784955        9.8781343125  CLST         392          1.0000000000
      1177       393  TIP3  OH2          10.8303367414      -12.1084813779       -0.6324731431  CLST         393          1.0000000000
      1178       393  TIP3  H1           11.3725096445      -11.2450893618       -0.6710247739  CLST         393          1.0000000000
      1179       393  TIP3  H2           11.5228467478      -12.6394287531       -0.9095798188  CLST         393          1.0000000000
      1180       394  TIP3  OH2           0.6401869731       11.7750543375       -8.6137811060  CLST         394          1.0000000000
      1181       394  TIP3  H1            1.0523942404       12.0973486466       -7.7788443291  CLST         394          1.0000000000
      1182       394  TIP3  H2            0.8370158247       10.7872390463       -8.4221626429  CLST         394          1.0000000000
      1183       395  TIP3  OH2           6.8527254781        7.6681802765       -4.4684422596  CLST         395          1.0000000000
      1184       395  TIP3  H1            5.9618215154        8.1783589482       -4.5814061788  CLST         395          1.0000000000
      1185       395  TIP3  H2            6.7400331559        7.0952225111       -5.2638720445  CLST         395          1.0000000000
      1186       396  TIP3  OH2          -1.1021246101       -9.9567047579       -9.0604418150  CLST         396          1.0000000000
      1187       396  TIP3  H1           -1.0981394449       -9.9446908003       -8.0420308074  CLST         396          1.0000000000
      1188       396  TIP3  H2           -0.1967492903       -9.5697068809       -9.2418917615  CLST         396          1.0000000000
      1189       397  TIP3  OH2          11.3813972236        7.2749393149       -9.0224741828  CLST         397          1.0000000000
      1190       397  TIP3  H1           11.5009260866        6.5558042798       -8.3739709642  CLST         397          1.0000000000
      1191       397  TIP3  H2           10.4782046913        7.5435935980       -8.6523838403  CLST         397          1.0000000000
      1192       398  TIP3  OH2          10.6501265734        7.5756626743       -4.9036200973  CLST         398          1.0000000000
      1193       398  TIP3  H1           10.3904983130        8.2415888444       -4.2234814866  CLST         398          1.0000000000
      1194       398  TIP3  H2           11.2647604026        7.0639886934       -4.2495890632  CLST         398          1.0000000000
      1195       399  TIP3  OH2           1.8735987064       11.1335431809        4.8462394843  CLST         399          1.0000000000
      1196       399  TIP3  H1            1.2860344668       10.3625942051        5.0226030029  CLST         399          1.0000000000
      1197       399  TIP3  H2            2.4246863067       11.0595925830        5.6906295673  CLST         399          1.0000000000
      1198       400  TIP3  OH2           3.9666838815       -3.0614768505       -5.0739995479  CLST         400          1.0000000000
      1199       400  TIP3  H1            4.7626652514       -3.0963715322       -4.4838751622  CLST         400          1.0000000000
      1200       400  TIP3  H2            4.2928131112       -3.6330301999       -5.8320833356  CLST         400          1.0000000000
      1201       401  TIP3  OH2         -15.2799907411        9.9442218688        5.5522900115  CLST         401          1.0000000000
      1202       401  TIP3  H1          -14.6968237485       10.4464021751        6.1808472334  CLST         401          1.0000000000
      1203       401  TIP3  H2          -15.7103193186        9.3622584658        6.2320750380  CLST         401          1.0000000000
      1204       402  TIP3  OH2           1.8508392474       -1.6765524035       12.7757852770  CLST         402          1.0000000000
      1205       402  TIP3  H1            1.4752028846       -2.5700891228       12.8242582233  CLST         402          1.0000000000
      1206       402  TIP3  H2            1.8413029958       -1.6594138254       11.7940115052  CLST         402          1.0000000000
      1207       403  TIP3  OH2          -1.9851158953       -7.0260032710       -0.7220115564  CLST         403          1.0000000000
      1208       403  TIP3  H1           -2.1171769303       -6.5201593624       -1.4221257196  CLST         403          1.0000000000
      1209       403  TIP3  H2           -1.8632960881       -7.9538522308       -1.2142574890  CLST         403          1.0000000000
      1210       404  TIP3  OH2          -4.8235425534       -2.4687030966        9.1981865223  CLST         404          1.0000000000
      1211       404  TIP3  H1           -5.0505116817       -2.8605943841       10.0682223954  CLST         404          1.0000000000
      1212       404  TIP3  H2           -5.3230829737       -3.2124272638        8.7335602750  CLST         404          1.0000000000
      1213       405  TIP3  OH2         -11.9167237112        7.2017815923       11.1799861910  CLST         405          1.0000000000
      1214       405  TIP3  H1          -11.7740108484        6.2486216060       10.9617139534  CLST         405          1.0000000000
      1215       405  TIP3  H2          -12.6747466585        7.1567966372       11.6501534621  CLST         405          1.0000000000
      1216       406  TIP3  OH2           1.1000776406        7.8442515711      -12.1281511552  CLST         406          1.0000000000
      1217       406  TIP3  H1            1.0450916386        8.8312227686      -12.2825454413  CLST         406          1.0000000000
      1218       406  TIP3  H2            1.4958264915        7.7682122911      -11.2017142776  CLST         406          1.0000000000
      1219       407  TIP3  OH2          10.5658757435      -13.1775733253        5.1914118947  CLST         407          1.0000000000
      1220       407  TIP3  H1           10.5096610221      -13.1828848656        4.1904236299  CLST         407          1.0000000000
      1221       407  TIP3  H2           11.3035068161      -12.4821488685        5.3006743471  CLST         407          1.0000000000
      1222       408  TIP3  OH2          -2.9935248075      -11.5970227528        1.9268430208  CLST         408          1.0000000000
      1223       408  TIP3  H1           -2.1776208185      -11.0285575541        1.8497722366  CLST         408          1.0000000000
      1224       408  TIP3  H2           -2.5547580474      -12.3565371756        2.3656447114  CLST         408          1.0000000000
      1225       409  TIP3  OH2           1.1275271580       -9.4939392433        9.6996639977  CLST         409          1.0000000000
      1226       409  TIP3  H1            0.7726875052       -9.0904330241       10.5327657449  CLST         409          1.0000000000
      1227       409  TIP3  H2            1.6190811600      -10.2126436113       10.1137635721  CLST         409          1.0000000000
      1228       410  TIP3  OH2           9.8739567094       -7.1798772328       -5.3309150416  CLST         410          1.0000000000
      1229       410  TIP3  H1            8.9856302777       -6.8582534575       -5.5852908881  CLST         410          1.0000000000
      1230       410  TIP3  H2           10.3485095786       -6.3917460230       -5.6428655370  CLST         410          1.0000000000
      1231       411  TIP3  OH2         -10.1557597962       -2.3854859360       -1.3775864462  CLST         411          1.0000000000
      1232       411  TIP3  H1           -9.3524602167       -2.0906503099       -0.9703612040  CLST         411          1.0000000000
      1233       411  TIP3  H2           -9.8602149434       -3.0430955918       -2.0576547721  CLST         411          1.0000000000
      1234       412  TIP3  OH2           6.6949734259      -10.5700143520      -12.0423327116  CLST         412          1.0000000000
      1235       412  TIP3  H1            6.0517065249      -10.8667734216      -11.4122521504  CLST         412          1.0000000000
      1236       412  TIP3  H2            7.4978445348      -11.1214118297      -11.7825392867  CLST         412          1.0000000000
      1237       413  TIP3  OH2           7.1186433668       13.1176619611        0.2754994119  CLST         413          1.0000000000
      1238       413  TIP3  H1            7.6194624479       12.4390483197       -0.2325685064  CLST         413          1.0000000000
      1239       413  TIP3  H2            7.8888489901       13.5181150347        0.7526625086  CLST         413          1.0000000000
      1240       414  TIP3  OH2           1.4844219567       -2.4724969144      -12.5083834503  CLST         414          1.0000000000
      1241       414  TIP3  H1            0.5744125602       -2.1496597345      -12.3147808432  CLST         414          1.0000000000
      1242       414  TIP3  H2            1.5506882560       -2.7523938565      -13.4129377249  CLST         414          1.0000000000
      1243       415  TIP3  OH2           4.2110849384        5.2603126983       -8.2117465889  CLST         415          1.0000000000
      1244       415  TIP3  H1            3.5037072884        4.5336832563       -8.0294404547  CLST         415          1.0000000000
      1245       415  TIP3  H2            4.8144399633        4.5432044247       -8.6251801162  CLST         415          1.0000000000
      1246       416  TIP3  OH2           5.7793646205       12.3162872605       -7.7227321745  CLST         416          1.0000000000
      1247       416  TIP3  H1            5.3425321356       13.0078326425       -8.1421253896  CLST         416          1.0000000000
      1248       416  TIP3  H2            6.6374669467       12.3320495715       -8.1744764994  CLST         416          1.0000000000
      1249       417  TIP3  OH2          12.6012791419      -11.2366812603        2.6716447493  CLST         417          1.0000000000
      1250       417  TIP3  H1           11.7894540071      -11.6487166511        2.3447990695  CLST         417          1.0000000000
      1251       417  TIP3  H2           12.6590757645      -10.3911464376        2.1830690486  CLST         417          1.0000000000
      1252       418  TIP3  OH2          -9.2499690833       -1.5249180304        8.2279070374  CLST         418          1.0000000000
      1253       418  TIP3  H1           -8.7111775286       -1.1917915010        7.4701309556  CLST         418          1.0000000000
      1254       418  TIP3  H2           -9.1254780277       -0.7714740786        8.8343519015  CLST         418          1.0000000000
      1255       419  TIP3  OH2          14.7517986207        0.4582244388       -6.2098646949  CLST         419          1.0000000000
      1256       419  TIP3  H1           14.3807817834        0.7424617348       -5.1193386229  CLST         419          1.0000000000
      1257       419  TIP3  H2           15.0839362153        1.5579954685       -5.2422017561  CLST         419          1.0000000000
      1258       420  TIP3  OH2          -8.2120491465       -8.2419276019        3.5363761923  CLST         420          1.0000000000
      1259       420  TIP3  H1           -8.9952918820       -7.7314748868        3.1790104298  CLST         420          1.0000000000
      1260       420  TIP3  H2           -8.5540989799       -9.1373123106        3.3351295988  CLST         420          1.0000000000
      1261       421  TIP3  OH2           3.5198250051       -6.2404499812      -13.3567020088  CLST         421          1.0000000000
      1262       421  TIP3  H1            4.4551359373       -6.4906977780      -13.2896343613  CLST         421          1.0000000000
      1263       421  TIP3  H2            3.1759680571       -7.1956628236      -13.4092171384  CLST         421          1.0000000000
      1264       422  TIP3  OH2          -1.8363247389       -9.4490817073       -1.7387885280  CLST         422          1.0000000000
      1265       422  TIP3  H1           -1.2000782604      -10.1110888363       -2.0490610016  CLST         422          1.0000000000
      1266       422  TIP3  H2           -2.7119461255       -9.9389159044       -1.7745093515  CLST         422          1.0000000000
      1267       423  TIP3  OH2           1.6909542582        4.8293175844       -3.9685352734  CLST         423          1.0000000000
      1268       423  TIP3  H1            2.5023016152        5.2481875389       -4.4244611120  CLST         423          1.0000000000
      1269       423  TIP3  H2            2.1183292041        4.4901573600       -3.1615820343  CLST         423          1.0000000000
      1270       424  TIP3  OH2          -9.0099692349        4.3823752286        4.3855113753  CLST         424          1.0000000000
      1271       424  TIP3  H1           -8.8249526102        3.7634548034        3.6414413393  CLST         424          1.0000000000
      1272       424  TIP3  H2           -8.2911269870        5.0077765903        4.3442987727  CLST         424          1.0000000000
      1273       425  TIP3  OH2           8.1109198641      -12.6221049206        8.3289905052  CLST         425          1.0000000000
      1274       425  TIP3  H1            8.2890205941      -12.3634597103        7.4134480315  CLST         425          1.0000000000
      1275       425  TIP3  H2            7.5045260215      -11.8554737066        8.4662785553  CLST         425          1.0000000000
      1276       426  TIP3  OH2           8.1624977152        2.3691081073        8.2889997809  CLST         426          1.0000000000
      1277       426  TIP3  H1            8.8634075402        2.0977704548        8.9131840318  CLST         426          1.0000000000
      1278       426  TIP3  H2            8.3835433389        3.3383137314        8.1947693662  CLST         426          1.0000000000
      1279       427  TIP3  OH2          11.4300620804        7.4753949259       10.8398253528  CLST         427          1.0000000000
      1280       427  TIP3  H1           11.3274414507        7.8219536585       11.7593708552  CLST         427          1.0000000000
      1281       427  TIP3  H2           10.6268718136        6.9243672807       10.7527436743  CLST         427          1.0000000000
      1282       428  TIP3  OH2          12.4818818611        7.6744238583        1.0881955263  CLST         428          1.0000000000
      1283       428  TIP3  H1           12.2700921556        8.1173897106        0.1205805608  CLST         428          1.0000000000
      1284       428  TIP3  H2           13.3880278217        7.7764819239        1.0710983483  CLST         428          1.0000000000
      1285       429  TIP3  OH2          11.9099209581       -9.8007646692       -0.8094104440  CLST         429          1.0000000000
      1286       429  TIP3  H1           12.2571010231       -9.2995736933       -0.0286037609  CLST         429          1.0000000000
      1287       429  TIP3  H2           11.5747116300       -9.1251540298       -1.4330253422  CLST         429          1.0000000000
      1288       430  TIP3  OH2           9.8342133625       -6.8478866756        3.6836837888  CLST         430          1.0000000000
      1289       430  TIP3  H1            9.8053506478       -7.3558272069        2.7826455904  CLST         430          1.0000000000
      1290       430  TIP3  H2           10.7734436048       -6.5223406286        3.5911992924  CLST         430          1.0000000000
      1291       431  TIP3  OH2         -12.8301176801        9.4861918022       -2.4122861071  CLST         431          1.0000000000
      1292       431  TIP3  H1          -13.4776259907        9.6023333945       -2.9673285320  CLST         431          1.0000000000
      1293       431  TIP3  H2          -13.3374538760        9.2961435041       -1.4974390735  CLST         431          1.0000000000
      1294       432  TIP3  OH2           5.4308714018        8.5532418175       -9.9792634614  CLST         432          1.0000000000
      1295       432  TIP3  H1            5.6761352802        8.9661500955       -9.1143622629  CLST         432          1.0000000000
      1296       432  TIP3  H2            4.7255037415        9.2322248755      -10.1066362746  CLST         432          1.0000000000
      1297       433  TIP3  OH2          -0.6429085701        8.1030641302        7.7867450549  CLST         433          1.0000000000
      1298       433  TIP3  H1           -1.4668030421        8.5279633811        8.1233412772  CLST         433          1.0000000000
      1299       433  TIP3  H2           -1.0190457108        7.3862823997        7.2221402244  CLST         433          1.0000000000
      1300       434  TIP3  OH2          -7.2033223038        0.6378191498        3.7688177071  CLST         434          1.0000000000
      1301       434  TIP3  H1           -7.6347329697        1.3731535547        3.2374093080  CLST         434          1.0000000000
      1302       434  TIP3  H2           -7.8550625035       -0.1036841970        3.5097086090  CLST         434          1.0000000000
      1303       435  TIP3  OH2           9.9784265564       -0.4395796497       -7.1315514906  CLST         435          1.0000000000
      1304       435  TIP3  H1           10.3167445338       -0.5905349302       -6.2221978836  CLST         435          1.0000000000
      1305       435  TIP3  H2           10.5440794518        0.3259927629       -7.3816905235  CLST         435          1.0000000000
      1306       436  TIP3  OH2           3.7784739129       10.5460437582       -9.0753067229  CLST         436          1.0000000000
      1307       436  TIP3  H1            4.2645034496       11.1722000495       -8.5234259278  CLST         436          1.0000000000
      1308       436  TIP3  H2            2.9890399387       10.2841693253       -8.5863775714  CLST         436          1.0000000000
      1309       437  TIP3  OH2          -8.3635426525       -0.9429737667       -7.9948578518  CLST         437          1.0000000000
      1310       437  TIP3  H1           -8.6176165513       -0.4837293105       -8.8513766697  CLST         437          1.0000000000
      1311       437  TIP3  H2           -7.4023797591       -0.6523940400       -7.9027083513  CLST         437          1.0000000000
      1312       438  TIP3  OH2          -3.3795515538        5.4485581321       -8.1113810379  CLST         438          1.0000000000
      1313       438  TIP3  H1           -4.2519580650        5.9218723290       -7.9136762045  CLST         438          1.0000000000
      1314       438  TIP3  H2           -3.3611197552        5.8275794996       -9.0093923296  CLST         438          1.0000000000
      1315       439  TIP3  OH2          14.2353226225        1.6174058419       -4.0220909068  CLST         439          1.0000000000
      1316       439  TIP3  H1           13.5767296157        2.3575172676       -4.0775900436  CLST         439          1.0000000000
      1317       439  TIP3  H2           13.8138840303        1.2675187705       -3.1231485838  CLST         439          1.0000000000
      1318       440  TIP3  OH2           1.1445278186      -12.8196416519      -11.2190248931  CLST         440          1.0000000000
      1319       440  TIP3  H1            0.1300536560      -12.5364522682      -11.1657892284  CLST         440          1.0000000000
      1320       440  TIP3  H2            1.1629883223      -13.5829553493      -11.5970396187  CLST         440          1.0000000000
      1321       441  TIP3  OH2          -1.5365699661       -4.3212756226        3.1296622844  CLST         441          1.0000000000
      1322       441  TIP3  H1           -1.8198089967       -3.5152759647        3.1832200911  CLST         441          1.0000000000
      1323       441  TIP3  H2           -1.2231867370       -4.6692620979        4.0077767758  CLST         441          1.0000000000
      1324       442  TIP3  OH2           3.2399001216       -9.7065392085       -7.9929097222  CLST         442          1.0000000000
      1325       442  TIP3  H1            3.8404523068      -10.0759972491       -8.6872957920  CLST         442          1.0000000000
      1326       442  TIP3  H2            2.4882623611       -9.3658701807       -8.5460844350  CLST         442          1.0000000000
      1327       443  TIP3  OH2           1.2330946142       10.4740995625      -12.8837056458  CLST         443          1.0000000000
      1328       443  TIP3  H1            1.8062252831       12.0424486094      -12.4373800709  CLST         443          1.0000000000
      1329       443  TIP3  H2            1.9201849253       10.8462874637      -13.3560492479  CLST         443          1.0000000000
      1330       444  TIP3  OH2          -7.9082613441        1.3463946025       -1.8131991726  CLST         444          1.0000000000
      1331       444  TIP3  H1           -8.0551994223        2.1719252594       -2.3609627409  CLST         444          1.0000000000
      1332       444  TIP3  H2           -7.5292920055        1.8611950935       -1.0605103070  CLST         444          1.0000000000
      1333       445  TIP3  OH2         -11.4535708453       -5.2149222409        6.2531810629  CLST         445          1.0000000000
      1334       445  TIP3  H1          -11.4065169263       -4.2479192241        6.0117255743  CLST         445          1.0000000000
      1335       445  TIP3  H2          -11.4032196083       -5.1106982159        7.2544238710  CLST         445          1.0000000000
      1336       446  TIP3  OH2          -2.8607587687        4.6186498452       -5.2330924838  CLST         446          1.0000000000
      1337       446  TIP3  H1           -2.9924847884        4.8861404449       -6.1755124030  CLST         446          1.0000000000
      1338       446  TIP3  H2           -1.9543344540        5.0586415253       -5.1679264812  CLST         446          1.0000000000
      1339       447  TIP3  OH2          -5.0851419392      -12.6185780264       -3.8609355686  CLST         447          1.0000000000
      1340       447  TIP3  H1           -5.3228482393      -13.4534732040       -3.5208560859  CLST         447          1.0000000000
      1341       447  TIP3  H2           -4.6017572772      -12.2573719189       -3.0576949073  CLST         447          1.0000000000
      1342       448  TIP3  OH2           7.2776079872        9.6153587988        4.7161140393  CLST         448          1.0000000000
      1343       448  TIP3  H1            7.4151383422        9.5413826844        5.7095442101  CLST         448          1.0000000000
      1344       448  TIP3  H2            6.5251607364       10.2775474872        4.7821924194  CLST         448          1.0000000000
      1345       449  TIP3  OH2           4.1699809568        5.0794812551        8.5130446038  CLST         449          1.0000000000
      1346       449  TIP3  H1            4.8566776661        4.5593848664        9.0365367004  CLST         449          1.0000000000
      1347       449  TIP3  H2            3.9198760200        4.4392501625        7.8171295373  CLST         449          1.0000000000
      1348       450  TIP3  OH2          -4.0836370858        0.4040884326       -2.1806501482  CLST         450          1.0000000000
      1349       450  TIP3  H1           -3.6390800473        1.1010780391       -2.7043392789  CLST         450          1.0000000000
      1350       450  TIP3  H2           -3.3045442502       -0.0568447117       -1.8228355575  CLST         450          1.0000000000
      1351       451  TIP3  OH2          13.3181774784       -2.1891446455       -5.9173108784  CLST         451          1.0000000000
      1352       451  TIP3  H1           13.8738114782       -2.8436560892       -5.4500106853  CLST         451          1.0000000000
      1353       451  TIP3  H2           13.9512895828       -1.4835838420       -5.9903614594  CLST         451          1.0000000000
      1354       452  TIP3  OH2           8.4945571359        5.0373344129        8.1100931487  CLST         452          1.0000000000
      1355       452  TIP3  H1            7.7001792167        5.5901347561        7.8521572696  CLST         452          1.0000000000
      1356       452  TIP3  H2            9.1280579890        5.6168691407        7.5824059996  CLST         452          1.0000000000
      1357       453  TIP3  OH2           7.0505788857        2.7469607296       -6.1079663014  CLST         453          1.0000000000
      1358       453  TIP3  H1            6.2936208021        2.4134923203       -5.5865133401  CLST         453          1.0000000000
      1359       453  TIP3  H2            6.5907707056        2.9107896811       -6.9651855887  CLST         453          1.0000000000
      1360       454  TIP3  OH2           1.1914216191        5.4604980814        1.9543385487  CLST         454          1.0000000000
      1361       454  TIP3  H1            0.3057730431        5.0706815352        1.7569797597  CLST         454          1.0000000000
      1362       454  TIP3  H2            0.9460549469        6.0532152576        2.7086210815  CLST         454          1.0000000000
      1363       455  TIP3  OH2          -1.2394173484        0.9299436513      -10.3861561269  CLST         455          1.0000000000
      1364       455  TIP3  H1           -1.6059224992        1.1271532255       -9.5243575686  CLST         455          1.0000000000
      1365       455  TIP3  H2           -0.9625243527        1.8866369165      -10.5962809375  CLST         455          1.0000000000
      1366       456  TIP3  OH2           5.3701319083       11.2950887245        5.1343273584  CLST         456          1.0000000000
      1367       456  TIP3  H1            4.7496283459       11.4004812651        4.3817389638  CLST         456          1.0000000000
      1368       456  TIP3  H2            4.7226771725       11.2062277485        5.8753803311  CLST         456          1.0000000000
      1369       457  TIP3  OH2          -4.8822573193       -7.7130472842        4.8243396224  CLST         457          1.0000000000
      1370       457  TIP3  H1           -5.6835696941       -7.7753639287        5.3706099432  CLST         457          1.0000000000
      1371       457  TIP3  H2           -5.2276176989       -7.2123368969        4.0395278020  CLST         457          1.0000000000
      1372       458  TIP3  OH2           7.9127987472       -6.5487781611      -11.1914797028  CLST         458          1.0000000000
      1373       458  TIP3  H1            8.8488663633       -6.4496965145      -11.4396879507  CLST         458          1.0000000000
      1374       458  TIP3  H2            7.7606110045       -5.6377409165      -10.8344607234  CLST         458          1.0000000000
      1375       459  TIP3  OH2           6.5543544941       -9.9861311816       -7.8503742408  CLST         459          1.0000000000
      1376       459  TIP3  H1            6.1157326581       -9.1913002220       -7.4767765922  CLST         459          1.0000000000
      1377       459  TIP3  H2            7.2741934218       -9.5444812644       -8.4162612350  CLST         459          1.0000000000
      1378       460  TIP3  OH2           9.1157691274       -2.1960703928       -2.7786098108  CLST         460          1.0000000000
      1379       460  TIP3  H1            9.6642670899       -2.8778551551       -2.3719290881  CLST         460          1.0000000000
      1380       460  TIP3  H2            9.8101364083       -1.6729259320       -3.2616945491  CLST         460          1.0000000000
      1381       461  TIP3  OH2          -1.3209499844      -12.8084537243       -5.5125913406  CLST         461          1.0000000000
      1382       461  TIP3  H1           -0.6099171935      -12.8809602673       -6.2279712312  CLST         461          1.0000000000
      1383       461  TIP3  H2           -0.8522719436      -13.2144766946       -4.7488150657  CLST         461          1.0000000000
      1384       462  TIP3  OH2           0.0465930238        5.5189671667      -12.6329434275  CLST         462          1.0000000000
      1385       462  TIP3  H1            0.4481707527        6.4670116122      -12.4810107404  CLST         462          1.0000000000
      1386       462  TIP3  H2            0.7214116479        5.2300524376      -13.1247642428  CLST         462          1.0000000000
      1387       463  TIP3  OH2          -1.7844888437        1.8843419137       -7.7168614356  CLST         463          1.0000000000
      1388       463  TIP3  H1           -1.5331396459        1.0068671906       -7.3013124290  CLST         463          1.0000000000
      1389       463  TIP3  H2           -2.7493923442        1.9744308552       -7.4732855617  CLST         463          1.0000000000
      1390       464  TIP3  OH2          -6.6165835662        6.3369364584        4.3472292994  CLST         464          1.0000000000
      1391       464  TIP3  H1           -6.1676344914        5.7315649060        4.7285207963  CLST         464          1.0000000000
      1392       464  TIP3  H2           -6.9832696876        6.9594041121        5.0611812919  CLST         464          1.0000000000
      1393       465  TIP3  OH2          -4.5757053115      -12.5483054103        6.3521247419  CLST         465          1.0000000000
      1394       465  TIP3  H1           -3.6592389844      -12.9283317460        6.2614252162  CLST         465          1.0000000000
      1395       465  TIP3  H2           -4.3095697405      -11.6080691499        6.1667711401  CLST         465          1.0000000000
      1396       466  TIP3  OH2          -2.3736169394        9.1927689626       -4.3415824853  CLST         466          1.0000000000
      1397       466  TIP3  H1           -3.0797627648        9.3331811722       -5.0672499316  CLST         466          1.0000000000
      1398       466  TIP3  H2           -2.6877964557        9.9222883169       -3.7509662496  CLST         466          1.0000000000
      1399       467  TIP3  OH2           8.3024678531        5.8946757933        4.5532458316  CLST         467          1.0000000000
      1400       467  TIP3  H1            8.6891326233        6.4171449561        5.3020178373  CLST         467          1.0000000000
      1401       467  TIP3  H2            8.0492222834        6.6424238108        3.9607835263  CLST         467          1.0000000000
      1402       468  TIP3  OH2          -0.4660518053      -12.4220544424       10.3910524536  CLST         468          1.0000000000
      1403       468  TIP3  H1           -0.7731570942      -11.9249513910       11.1739661708  CLST         468          1.0000000000
      1404       468  TIP3  H2            0.5145545322      -12.3216893099       10.5037777521  CLST         468          1.0000000000
      1405       469  TIP3  OH2           5.4635228070        8.3047838378       14.2412077957  CLST         469          1.0000000000
      1406       469  TIP3  H1            6.3285375854        8.4547105661       13.8432366060  CLST         469          1.0000000000
      1407       469  TIP3  H2            4.9434816138        8.9710831983       13.7893458720  CLST         469          1.0000000000
      1408       470  TIP3  OH2         -11.2087901306       12.9236390482        0.6601749111  CLST         470          1.0000000000
      1409       470  TIP3  H1          -10.8401708660       12.8081857146       -0.2140556191  CLST         470          1.0000000000
      1410       470  TIP3  H2          -11.5855720295       12.0301468649        0.9284315074  CLST         470          1.0000000000
      1411       471  TIP3  OH2          -4.2042283862        9.6932523324       -9.0658994634  CLST         471          1.0000000000
      1412       471  TIP3  H1           -4.4929530118        8.7519669994       -9.1607123183  CLST         471          1.0000000000
      1413       471  TIP3  H2           -4.6451201430       10.0824410888       -9.8961371200  CLST         471          1.0000000000
      1414       472  TIP3  OH2         -11.9503374988        3.8806642614        2.7952297716  CLST         472          1.0000000000
      1415       472  TIP3  H1          -12.3070042081        3.0203544262        3.1477826779  CLST         472          1.0000000000
      1416       472  TIP3  H2          -11.7192861479        3.4154549829        1.9595633386  CLST         472          1.0000000000
      1417       473  TIP3  OH2           5.3866802460        0.7510790630       10.1193154796  CLST         473          1.0000000000
      1418       473  TIP3  H1            5.9213990787        1.5270273522       10.3981120574  CLST         473          1.0000000000
      1419       473  TIP3  H2            4.5182852269        1.1315871849       10.0572947937  CLST         473          1.0000000000
      1420       474  TIP3  OH2           1.3821692553        1.6216613566        1.5000871501  CLST         474          1.0000000000
      1421       474  TIP3  H1            0.3895836311        1.6168481371        1.6684447723  CLST         474          1.0000000000
      1422       474  TIP3  H2            1.3015501063        1.4502295703        0.5415751297  CLST         474          1.0000000000
      1423       475  TIP3  OH2           5.9537178155       -8.7052287611       12.0144133040  CLST         475          1.0000000000
      1424       475  TIP3  H1            6.8989847042       -8.8306821098       12.2439962093  CLST         475          1.0000000000
      1425       475  TIP3  H2            5.9800527374       -9.1266074707       11.1241649702  CLST         475          1.0000000000
      1426       476  TIP3  OH2         -11.5396227134       -8.8989280050       -0.0646395569  CLST         476          1.0000000000
      1427       476  TIP3  H1          -11.6800249157       -8.0188726870       -0.5460475011  CLST         476          1.0000000000
      1428       476  TIP3  H2          -10.9882541297       -9.2562065022       -0.7735626940  CLST         476          1.0000000000
      1429       477  TIP3  OH2         -12.5647686982        3.7324499638      -13.4088522616  CLST         477          1.0000000000
      1430       477  TIP3  H1          -12.4864276103        2.7801178439      -13.3490743059  CLST         477          1.0000000000
      1431       477  TIP3  H2          -12.0213920751        3.8228294541      -14.2267558481  CLST         477          1.0000000000
      1432       478  TIP3  OH2          -3.8613900012        6.5850896764      -10.6662282967  CLST         478          1.0000000000
      1433       478  TIP3  H1           -4.4380648178        6.5319748120      -11.4676995856  CLST         478          1.0000000000
      1434       478  TIP3  H2           -3.2494802211        7.2672050196      -11.1041800713  CLST         478          1.0000000000
      1435       479  TIP3  OH2           7.8034853882       -1.5689233379       -8.4691597905  CLST         479          1.0000000000
      1436       479  TIP3  H1            8.5821494200       -1.2794237567       -7.8896356105  CLST         479          1.0000000000
      1437       479  TIP3  H2            7.1424643466       -1.2495556802       -7.7760532754  CLST         479          1.0000000000
      1438       480  TIP3  OH2          -6.0318032273        7.5312507622        0.0639859109  CLST         480          1.0000000000
      1439       480  TIP3  H1           -5.1370194504        7.8186997612       -0.2706644230  CLST         480          1.0000000000
      1440       480  TIP3  H2           -5.7415044099        6.5944638338        0.2251705336  CLST         480          1.0000000000
      1441       481  TIP3  OH2          -3.0298037435        2.4827398141       11.8540384321  CLST         481          1.0000000000
      1442       481  TIP3  H1           -2.1120913928        2.3613418998       11.5204743984  CLST         481          1.0000000000
      1443       481  TIP3  H2           -3.1466153632        1.5915999763       12.1144006500  CLST         481          1.0000000000
      1444       482  TIP3  OH2          -8.1727831489       11.5944785021       -7.6248489188  CLST         482          1.0000000000
      1445       482  TIP3  H1           -8.7853312912       11.1614680428       -8.2798949849  CLST         482          1.0000000000
      1446       482  TIP3  H2           -7.4726719914       11.9084038897       -8.2520355001  CLST         482          1.0000000000
      1447       483  TIP3  OH2           6.3287198888       -5.9644113503       12.6879487037  CLST         483          1.0000000000
      1448       483  TIP3  H1            6.0156081207       -6.8956138486       12.5426107755  CLST         483          1.0000000000
      1449       483  TIP3  H2            6.2521058921       -5.6981069088       11.7327142847  CLST         483          1.0000000000
      1450       484  TIP3  OH2           6.8544032566       -3.1285646844        2.9906352973  CLST         484          1.0000000000
      1451       484  TIP3  H1            5.8666964571       -3.2582530703        3.0291691659  CLST         484          1.0000000000
      1452       484  TIP3  H2            6.9196891795       -2.3420189375        3.6248273733  CLST         484          1.0000000000
      1453       485  TIP3  OH2         -11.6874544663        4.5282445809        9.9908338458  CLST         485          1.0000000000
      1454       485  TIP3  H1          -11.2587261652        3.6410273328        9.8880842241  CLST         485          1.0000000000
      1455       485  TIP3  H2          -12.5325888366        4.3164059960        9.4864393480  CLST         485          1.0000000000
      1456       486  TIP3  OH2           8.4863521921       -7.1120475805       13.6186383702  CLST         486          1.0000000000
      1457       486  TIP3  H1            8.6654031570       -6.8220197495       14.3963011505  CLST         486          1.0000000000
      1458       486  TIP3  H2            7.6974501977       -6.4945508103       13.3978285963  CLST         486          1.0000000000
      1459       487  TIP3  OH2          12.1917782037       -8.4651498109        6.0903010143  CLST         487          1.0000000000
      1460       487  TIP3  H1           11.2097656442       -8.3244168452        5.9702907019  CLST         487          1.0000000000
      1461       487  TIP3  H2           12.1036899848       -8.6394947627        7.0838218667  CLST         487          1.0000000000
      1462       488  TIP3  OH2          15.1957872621        8.3463185995        7.7997086571  CLST         488          1.0000000000
      1463       488  TIP3  H1           15.7722221486        7.6524210751        7.4696688604  CLST         488          1.0000000000
      1464       488  TIP3  H2           14.4865533400        7.7787118653        8.1712881203  CLST         488          1.0000000000
      1465       489  TIP3  OH2          -6.0801121083      -10.8108632570       11.8298349269  CLST         489          1.0000000000
      1466       489  TIP3  H1           -6.3728324767       -9.9271998612       11.7143138501  CLST         489          1.0000000000
      1467       489  TIP3  H2           -6.8170212688      -11.2789669343       11.2682563966  CLST         489          1.0000000000
      1468       490  TIP3  OH2           6.8919911793      -13.0616032670        2.3536725407  CLST         490          1.0000000000
      1469       490  TIP3  H1            6.8255491357      -12.2034175869        2.8169847068  CLST         490          1.0000000000
      1470       490  TIP3  H2            6.6049380317      -13.6035620710        3.0490092108  CLST         490          1.0000000000
      1471       491  TIP3  OH2           3.1423769208       -9.2979516565        4.9277699931  CLST         491          1.0000000000
      1472       491  TIP3  H1            2.2210341609       -9.2662738608        5.2785419849  CLST         491          1.0000000000
      1473       491  TIP3  H2            3.0462146634       -9.8946158078        4.1946611198  CLST         491          1.0000000000
      1474       492  TIP3  OH2          -0.6265541221       -6.5412675427       12.3652293085  CLST         492          1.0000000000
      1475       492  TIP3  H1           -0.4521015035       -7.5183299228       12.4067491982  CLST         492          1.0000000000
      1476       492  TIP3  H2           -1.5706326027       -6.5303003520       12.3430786744  CLST         492          1.0000000000
      1477       493  TIP3  OH2           3.4625917163       10.7129551447        7.0687225046  CLST         493          1.0000000000
      1478       493  TIP3  H1            4.2184859459       10.6291164242        7.7283818024  CLST         493          1.0000000000
      1479       493  TIP3  H2            2.7175182126       10.4392256245        7.7213275705  CLST         493          1.0000000000
      1480       494  TIP3  OH2          -9.1680645696        5.4685775206       -0.7679519352  CLST         494          1.0000000000
      1481       494  TIP3  H1           -9.4401778574        6.1211217956       -1.4246368790  CLST         494          1.0000000000
      1482       494  TIP3  H2           -9.6270365644        5.7284775297        0.0411377524  CLST         494          1.0000000000
      1483       495  TIP3  OH2           5.0641503045       -6.7956848298       -2.1377718259  CLST         495          1.0000000000
      1484       495  TIP3  H1            5.8027323721       -6.3049971713       -2.6056031297  CLST         495          1.0000000000
      1485       495  TIP3  H2            5.7332911577       -7.4229018843       -1.7311003951  CLST         495          1.0000000000
      1486       496  TIP3  OH2         -12.7273825606      -10.7134198744        7.6380764334  CLST         496          1.0000000000
      1487       496  TIP3  H1          -13.5889232108      -11.1332853372        7.6423558084  CLST         496          1.0000000000
      1488       496  TIP3  H2          -12.4570263070      -11.2447505776        6.8596801463  CLST         496          1.0000000000
      1489       497  TIP3  OH2          -9.6784277184      -13.2731744813       -7.2991817889  CLST         497          1.0000000000
      1490       497  TIP3  H1          -10.0447557376      -14.0976999267       -7.3355190503  CLST         497          1.0000000000
      1491       497  TIP3  H2          -10.0103386653      -12.6445394639       -7.9116647510  CLST         497          1.0000000000
      1492       498  TIP3  OH2          -5.5059978860        0.4043072624      -11.0923811969  CLST         498          1.0000000000
      1493       498  TIP3  H1           -5.8551178719        0.3789320193      -11.9953843117  CLST         498          1.0000000000
      1494       498  TIP3  H2           -5.3080379082        1.2846630708      -10.7741228502  CLST         498          1.0000000000
      1495       499  TIP3  OH2          11.4498753049        6.6734956635        3.5641397853  CLST         499          1.0000000000
      1496       499  TIP3  H1           11.9255842251        7.0929184222        2.8197177725  CLST         499          1.0000000000
      1497       499  TIP3  H2           11.1934509895        7.4699251909        4.0960924623  CLST         499          1.0000000000
      1498       500  TIP3  OH2           2.3537821536       -8.6534593466      -13.2935738055  CLST         500          1.0000000000
      1499       500  TIP3  H1            1.8977002877       -9.0279977595      -14.0172000722  CLST         500          1.0000000000
      1500       500  TIP3  H2            2.5616833566       -9.4997072629      -12.7462186904  CLST         500          1.0000000000
      1501       501  TIP3  OH2           1.2613468931      -10.8871025812       13.8629384551  CLST         501          1.0000000000
      1502       501  TIP3  H1            1.1565730760      -11.7834514642       13.9642912827  CLST         501          1.0000000000
      1503       501  TIP3  H2            2.2152065769      -10.6812858326       13.8858200604  CLST         501          1.0000000000
      1504       502  TIP3  OH2           6.0054523198        3.7390913946        9.7321853774  CLST         502          1.0000000000
      1505       502  TIP3  H1            6.5157240601        4.0723078226       10.5029882045  CLST         502          1.0000000000
      1506       502  TIP3  H2            6.6876749197        3.2463863998        9.2228674222  CLST         502          1.0000000000
      1507       503  TIP3  OH2          10.3534744953       -0.8944609576        0.3536018138  CLST         503          1.0000000000
      1508       503  TIP3  H1           11.1567144701       -0.5351534261        0.7988709916  CLST         503          1.0000000000
      1509       503  TIP3  H2           10.0949072265       -0.2067170675       -0.2927301867  CLST         503          1.0000000000
      1510       504  TIP3  OH2           8.1932232608      -13.7182693428       10.9261325278  CLST         504          1.0000000000
      1511       504  TIP3  H1            8.4736330122      -13.5319039585       10.0030533864  CLST         504          1.0000000000
      1512       504  TIP3  H2            8.2733946171      -14.6325434440       11.0071495111  CLST         504          1.0000000000
      1513       505  TIP3  OH2           3.5268171948      -10.9735995631       -5.7660118592  CLST         505          1.0000000000
      1514       505  TIP3  H1            3.3478134256      -10.3775052469       -6.5717891699  CLST         505          1.0000000000
      1515       505  TIP3  H2            3.1815681050      -10.3516881057       -5.0869011791  CLST         505          1.0000000000
      1516       506  TIP3  OH2          -9.2080739750       -3.4367864819       -8.1795502198  CLST         506          1.0000000000
      1517       506  TIP3  H1           -8.9178076308       -2.4488756329       -8.1301072319  CLST         506          1.0000000000
      1518       506  TIP3  H2          -10.1247464443       -3.2523860397       -8.5684070956  CLST         506          1.0000000000
      1519       507  TIP3  OH2          11.1874830484        9.8129420648      -12.8141757978  CLST         507          1.0000000000
      1520       507  TIP3  H1           11.1624557979        9.6963711588      -13.7177244202  CLST         507          1.0000000000
      1521       507  TIP3  H2           11.0949082810        8.8333432724      -12.4974007976  CLST         507          1.0000000000
      1522       508  TIP3  OH2           9.2149028184       12.2641208855        8.8071792703  CLST         508          1.0000000000
      1523       508  TIP3  H1            9.0439815765       12.1828219625        7.8637260124  CLST         508          1.0000000000
      1524       508  TIP3  H2           10.1709371477       12.4818636279        8.6888849437  CLST         508          1.0000000000
      1525       509  TIP3  OH2          -0.7908953230       -1.5525291609      -11.3409800416  CLST         509          1.0000000000
      1526       509  TIP3  H1           -1.7386012423       -1.7320431562      -11.5001458317  CLST         509          1.0000000000
      1527       509  TIP3  H2           -0.8414176488       -0.5880800060      -11.0200513212  CLST         509          1.0000000000
      1528       510  TIP3  OH2           8.2175050183        2.2388732716       11.6181852708  CLST         510          1.0000000000
      1529       510  TIP3  H1            8.1109023569        1.2495820916       11.6768443627  CLST         510          1.0000000000
      1530       510  TIP3  H2            9.1350376123        2.3041277485       11.2152853472  CLST         510          1.0000000000
      1531       511  TIP3  OH2          -8.8003024313       -5.9654421597       -0.7869261324  CLST         511          1.0000000000
      1532       511  TIP3  H1           -9.7590573555       -6.1340106198       -0.9717859889  CLST         511          1.0000000000
      1533       511  TIP3  H2           -8.6177889928       -5.3735549981       -1.4982987251  CLST         511          1.0000000000
      1534       512  TIP3  OH2          10.0537849689        7.0998202996        6.9495918416  CLST         512          1.0000000000
      1535       512  TIP3  H1           10.1475283485        7.8062449736        7.6584721495  CLST         512          1.0000000000
      1536       512  TIP3  H2           10.2544633277        7.7080130188        6.1822962000  CLST         512          1.0000000000
      1537       513  TIP3  OH2         -11.7045384501       10.5478297343        9.2159729583  CLST         513          1.0000000000
      1538       513  TIP3  H1          -11.1819414992       11.3283183661        9.4881014024  CLST         513          1.0000000000
      1539       513  TIP3  H2          -11.7771510091       10.1043083792       10.1059467691  CLST         513          1.0000000000
      1540       514  TIP3  OH2          -4.8245388333        5.0655785870        0.1451772889  CLST         514          1.0000000000
      1541       514  TIP3  H1           -4.0148537481        5.4913073638        0.5175953243  CLST         514          1.0000000000
      1542       514  TIP3  H2           -4.5308756450        5.0234806782       -0.8076145051  CLST         514          1.0000000000
      1543       515  TIP3  OH2          -0.8244112151        0.9371991934       -4.3535691412  CLST         515          1.0000000000
      1544       515  TIP3  H1           -1.6105561221        1.5499301984       -4.5014884108  CLST         515          1.0000000000
      1545       515  TIP3  H2           -0.0389507635        1.4816780148       -4.6568893175  CLST         515          1.0000000000
      1546       516  TIP3  OH2          -7.3812926524       -8.4761737946        6.3618694359  CLST         516          1.0000000000
      1547       516  TIP3  H1           -7.6556402319       -8.5860524701        5.4212375062  CLST         516          1.0000000000
      1548       516  TIP3  H2           -7.9716164293       -7.6760688382        6.5954394756  CLST         516          1.0000000000
      1549       517  TIP3  OH2           0.6143589375       10.9823396641       11.5729811388  CLST         517          1.0000000000
      1550       517  TIP3  H1            0.6064259468       10.7470026737       10.6373626725  CLST         517          1.0000000000
      1551       517  TIP3  H2           -0.3442542325       11.2664602162       11.6402810507  CLST         517          1.0000000000
      1552       518  TIP3  OH2         -11.7087787836       -3.4536986275      -11.4609361244  CLST         518          1.0000000000
      1553       518  TIP3  H1          -12.0967080852       -3.1894456497      -12.3622065453  CLST         518          1.0000000000
      1554       518  TIP3  H2          -10.7739098026       -3.6169696345      -11.8802088852  CLST         518          1.0000000000
      1555       519  TIP3  OH2           2.1879880786        3.4533025940        3.4205309422  CLST         519          1.0000000000
      1556       519  TIP3  H1            1.8726703148        4.2198751731        2.8531760640  CLST         519          1.0000000000
      1557       519  TIP3  H2            1.9570386391        2.7253805780        2.7453970377  CLST         519          1.0000000000
      1558       520  TIP3  OH2         -10.3116678499        6.2182205647        8.3047330719  CLST         520          1.0000000000
      1559       520  TIP3  H1          -10.5472226326        5.6618439508        7.4888663997  CLST         520          1.0000000000
      1560       520  TIP3  H2          -10.8470302352        5.6948528935        8.9505416617  CLST         520          1.0000000000
      1561       521  TIP3  OH2           8.4080023874       -8.9085869548       -9.5464045716  CLST         521          1.0000000000
      1562       521  TIP3  H1            8.5730021066       -9.5722099197      -10.2799256029  CLST         521          1.0000000000
      1563       521  TIP3  H2            8.2321127545       -8.0943299339      -10.0682769648  CLST         521          1.0000000000
      1564       522  TIP3  OH2          -5.5247803852       -6.9984033679        8.1091935724  CLST         522          1.0000000000
      1565       522  TIP3  H1           -6.1423271628       -7.7085307716        7.8004503863  CLST         522          1.0000000000
      1566       522  TIP3  H2           -4.6139093654       -7.3192061530        8.2253297889  CLST         522          1.0000000000
      1567       523  TIP3  OH2          -4.2913281469       12.0187145356      -13.5447174260  CLST         523          1.0000000000
      1568       523  TIP3  H1           -2.4089880969       11.8551572617      -13.2458024151  CLST         523          1.0000000000
      1569       523  TIP3  H2           -3.4912290279       12.3707009532      -13.9724226346  CLST         523          1.0000000000
      1570       524  TIP3  OH2           6.8146649741        3.8455922039       -1.7773180962  CLST         524          1.0000000000
      1571       524  TIP3  H1            6.9446862375        2.9401664205       -2.0818861583  CLST         524          1.0000000000
      1572       524  TIP3  H2            5.8721257198        3.9971304930       -2.0244209609  CLST         524          1.0000000000
      1573       525  TIP3  OH2           0.3573639306        6.7992837919       -2.4981849695  CLST         525          1.0000000000
      1574       525  TIP3  H1            0.7684820226        6.3868406188       -3.2895737122  CLST         525          1.0000000000
      1575       525  TIP3  H2            0.1936002540        5.9155937477       -2.0246262239  CLST         525          1.0000000000
      1576       526  TIP3  OH2           7.1042702211       -5.4767819123       -3.6279722022  CLST         526          1.0000000000
      1577       526  TIP3  H1            7.2490369658       -5.7511671980       -4.5506592135  CLST         526          1.0000000000
      1578       526  TIP3  H2            8.0171991392       -5.5125679939       -3.2528842361  CLST         526          1.0000000000
      1579       527  TIP3  OH2           0.3777180227        7.1106216294        3.9473250384  CLST         527          1.0000000000
      1580       527  TIP3  H1            1.0832695382        7.3181542518        4.6483003655  CLST         527          1.0000000000
      1581       527  TIP3  H2            0.1494764327        8.0639367854        3.8040711921  CLST         527          1.0000000000
      1582       528  TIP3  OH2          -2.6893536252        9.9814974400        8.7670158598  CLST         528          1.0000000000
      1583       528  TIP3  H1           -3.0506436257        9.8004086135        9.6682457268  CLST         528          1.0000000000
      1584       528  TIP3  H2           -3.5516988214       10.3573484528        8.4000431946  CLST         528          1.0000000000
      1585       529  TIP3  OH2          -6.0158829426       12.2298507267       -9.5131417900  CLST         529          1.0000000000
      1586       529  TIP3  H1           -5.3897307594       12.8261881598       -9.3529330136  CLST         529          1.0000000000
      1587       529  TIP3  H2           -5.8493172222       11.8953519578      -10.4469245308  CLST         529          1.0000000000
      1588       530  TIP3  OH2          -4.5082347244       -5.5723342726      -13.1053707505  CLST         530          1.0000000000
      1589       530  TIP3  H1           -4.3744529764       -6.5765855337      -13.0968788919  CLST         530          1.0000000000
      1590       530  TIP3  H2           -3.5938528715       -5.2570954168      -13.2132322871  CLST         530          1.0000000000
      1591       531  TIP3  OH2         -11.6219456228       -0.2173343208       10.2752006564  CLST         531          1.0000000000
      1592       531  TIP3  H1          -12.2057744744       -0.2883011401       10.9658169755  CLST         531          1.0000000000
      1593       531  TIP3  H2          -11.9421019021       -0.8336376574        9.5740953263  CLST         531          1.0000000000
      1594       532  TIP3  OH2         -11.9265517588       -3.0843381438       -8.7159815780  CLST         532          1.0000000000
      1595       532  TIP3  H1          -12.4001733325       -2.9658798009       -9.4245041424  CLST         532          1.0000000000
      1596       532  TIP3  H2          -11.8698616440       -3.3990337098      -10.5178848570  CLST         532          1.0000000000
      1597       533  TIP3  OH2          -2.8574747504       -7.2126899081        8.7426384083  CLST         533          1.0000000000
      1598       533  TIP3  H1           -2.1882351224       -7.8967260182        8.5556321501  CLST         533          1.0000000000
      1599       533  TIP3  H2           -2.3803480270       -6.4189382107        8.3675986214  CLST         533          1.0000000000
      1600       534  TIP3  OH2           0.4705594339      -13.1699885810       -7.6612195519  CLST         534          1.0000000000
      1601       534  TIP3  H1            0.8711774542      -12.9748214996       -8.5301701790  CLST         534          1.0000000000
      1602       534  TIP3  H2            1.3405261397      -13.3584542374       -7.1979650780  CLST         534          1.0000000000
      1603       535  TIP3  OH2           2.7837200544        3.1871478194       -7.6508938873  CLST         535          1.0000000000
      1604       535  TIP3  H1            3.3299019759        2.6367519101       -7.0383835520  CLST         535          1.0000000000
      1605       535  TIP3  H2            1.9056263437        3.0786809832       -7.1849836597  CLST         535          1.0000000000
      1606       536  TIP3  OH2           7.9344309471      -12.5790958139       -3.5280658303  CLST         536          1.0000000000
      1607       536  TIP3  H1            7.2246968477      -12.5225836756       -4.2120007176  CLST         536          1.0000000000
      1608       536  TIP3  H2            8.3981010638      -13.3266318315       -3.6947943201  CLST         536          1.0000000000
      1609       537  TIP3  OH2          11.7144047077       -2.7023084035       -7.5379797763  CLST         537          1.0000000000
      1610       537  TIP3  H1           11.3395139924       -1.8258543967       -7.4128857584  CLST         537          1.0000000000
      1611       537  TIP3  H2           12.6592722763       -2.8067900972       -7.4348249063  CLST         537          1.0000000000
      1612       538  TIP3  OH2          -5.1739898872      -10.9258424422        0.7314432485  CLST         538          1.0000000000
      1613       538  TIP3  H1           -4.3899945035      -11.0971402454        1.3143903469  CLST         538          1.0000000000
      1614       538  TIP3  H2           -4.9956956418       -9.9425915314        0.6018309895  CLST         538          1.0000000000
      1615       539  TIP3  OH2           2.4526897958       -5.1619942037        0.9409099413  CLST         539          1.0000000000
      1616       539  TIP3  H1            1.5371979650       -5.3667374812        1.2599223078  CLST         539          1.0000000000
      1617       539  TIP3  H2            2.3101189980       -5.3809806633       -0.0090196695  CLST         539          1.0000000000
      1618       540  TIP3  OH2           3.9885815052       -6.7762569302        4.5737043850  CLST         540          1.0000000000
      1619       540  TIP3  H1            3.6206343336       -7.7073619610        4.8372292732  CLST         540          1.0000000000
      1620       540  TIP3  H2            4.0637686531       -7.0120539029        3.6240787938  CLST         540          1.0000000000
      1621       541  TIP3  OH2          -5.5609224165       10.4561304633        2.2435364768  CLST         541          1.0000000000
      1622       541  TIP3  H1           -5.9599266059       10.4800278788        3.1610674856  CLST         541          1.0000000000
      1623       541  TIP3  H2           -4.8095263298       11.1020187253        2.3495754198  CLST         541          1.0000000000
      1624       542  TIP3  OH2         -10.8901723270       14.3925525126        5.5423330026  CLST         542          1.0000000000
      1625       542  TIP3  H1          -10.9873523860       15.2391325203        5.4172240297  CLST         542          1.0000000000
      1626       542  TIP3  H2          -10.6216889514       13.9960219436        4.6052365561  CLST         542          1.0000000000
      1627       543  TIP3  OH2         -10.6475951828       11.4277227663       -2.3743824908  CLST         543          1.0000000000
      1628       543  TIP3  H1          -11.5399212813       11.1533971611       -2.4075873288  CLST         543          1.0000000000
      1629       543  TIP3  H2          -10.3867005852       11.6005184836       -3.3102710870  CLST         543          1.0000000000
      1630       544  TIP3  OH2          -0.4166372772        5.6315580094       -5.5789729253  CLST         544          1.0000000000
      1631       544  TIP3  H1           -0.4673434148        5.2095929052       -6.4808343991  CLST         544          1.0000000000
      1632       544  TIP3  H2            0.3841089032        5.1968665350       -5.2125794454  CLST         544          1.0000000000
      1633       545  TIP3  OH2          -7.9076939144        2.3461314328      -12.6426616062  CLST         545          1.0000000000
      1634       545  TIP3  H1           -8.0973046992        2.0322625851      -13.5798768047  CLST         545          1.0000000000
      1635       545  TIP3  H2           -8.4596642879        3.1807058084      -12.6305192268  CLST         545          1.0000000000
      1636       546  TIP3  OH2           3.8612606248       11.0312120615       -2.1304734540  CLST         546          1.0000000000
      1637       546  TIP3  H1            3.6033407258       10.0747737580       -2.4297758402  CLST         546          1.0000000000
      1638       546  TIP3  H2            4.4717814925       10.7074248898       -1.3803726038  CLST         546          1.0000000000
      1639       547  TIP3  OH2          -3.5430654373       -2.2588295289      -11.2304594326  CLST         547          1.0000000000
      1640       547  TIP3  H1           -3.5680381723       -2.4300405134      -10.2684388072  CLST         547          1.0000000000
      1641       547  TIP3  H2           -3.9426477271       -1.3745930690      -11.2267070214  CLST         547          1.0000000000
      1642       548  TIP3  OH2          10.6213611502        2.4384266309        1.2881081887  CLST         548          1.0000000000
      1643       548  TIP3  H1            9.6739146148        2.1952500996        1.4132715557  CLST         548          1.0000000000
      1644       548  TIP3  H2           10.6240408532        3.1630098002        1.9752609448  CLST         548          1.0000000000
