* Geometry rescue: heat segment 3/8 at step 1500
*
        1644  EXT
         1         1  TIP3  OH2           4.4702927091       -1.5444780069       -2.1839871121  CLST           1          1.0000000000
         2         1  TIP3  H1            4.7860485819       -1.6276900847       -1.2349986776  CLST           1          1.0000000000
         3         1  TIP3  H2            5.1052789826       -2.1292561278       -2.6450714151  CLST           1          1.0000000000
         4         2  TIP3  OH2          10.6492818724        7.4965280910      -11.7861522929  CLST           2          1.0000000000
         5         2  TIP3  H1           11.0399457818        7.4117274451      -10.8977082678  CLST           2          1.0000000000
         6         2  TIP3  H2            9.6806659055        7.4018962651      -11.5318614086  CLST           2          1.0000000000
         7         3  TIP3  OH2           8.8332191660        5.2189123872       -4.2158217243  CLST           3          1.0000000000
         8         3  TIP3  H1            9.2073529985        5.4801032769       -3.3330951282  CLST           3          1.0000000000
         9         3  TIP3  H2            8.4432614453        6.0506176070       -4.5659694149  CLST           3          1.0000000000
        10         4  TIP3  OH2          -2.8139311440        6.8208342682       10.1286653170  CLST           4          1.0000000000
        11         4  TIP3  H1           -3.5945902452        7.0950022257        9.5514284334  CLST           4          1.0000000000
        12         4  TIP3  H2           -3.0672262413        7.4860762158       10.8292252295  CLST           4          1.0000000000
        13         5  TIP3  OH2           9.0782442536        6.3042237124       10.5608679643  CLST           5          1.0000000000
        14         5  TIP3  H1            8.4735679763        5.8000804349       11.1454884565  CLST           5          1.0000000000
        15         5  TIP3  H2            9.0613120735        5.7120973978        9.7843758486  CLST           5          1.0000000000
        16         6  TIP3  OH2          10.4724781815       -5.9467493115      -11.5554852114  CLST           6          1.0000000000
        17         6  TIP3  H1           11.0809137129       -5.5397221858      -10.8593255061  CLST           6          1.0000000000
        18         6  TIP3  H2           10.5974489028       -5.2062164616      -12.2270264176  CLST           6          1.0000000000
        19         7  TIP3  OH2         -12.2911742323        8.3053974233        5.7686506326  CLST           7          1.0000000000
        20         7  TIP3  H1          -12.7101341815        9.1434144758        6.1092348421  CLST           7          1.0000000000
        21         7  TIP3  H2          -11.5093527270        8.3258345469        6.3875345924  CLST           7          1.0000000000
        22         8  TIP3  OH2          -4.4807434992       -8.3354910039        0.6201303799  CLST           8          1.0000000000
        23         8  TIP3  H1           -4.7601655965       -7.8212729672        1.4047885926  CLST           8          1.0000000000
        24         8  TIP3  H2           -3.7091282581       -7.7941604864        0.2881723898  CLST           8          1.0000000000
        25         9  TIP3  OH2           2.6453877203      -14.1620341266       -4.0653732855  CLST           9          1.0000000000
        26         9  TIP3  H1            1.7011507326      -14.2207613413       -3.7863903194  CLST           9          1.0000000000
        27         9  TIP3  H2            2.8909197212      -13.5446783065       -3.3569844739  CLST           9          1.0000000000
        28        10  TIP3  OH2         -14.0841462059       -1.2360191740       -0.3812995153  CLST          10          1.0000000000
        29        10  TIP3  H1          -13.6454188654       -1.5566856334       -1.2436997392  CLST          10          1.0000000000
        30        10  TIP3  H2          -14.4478619062       -1.8918932714        0.0117137393  CLST          10          1.0000000000
        31        11  TIP3  OH2           6.9331333153        6.7999517807       -1.9576100927  CLST          11          1.0000000000
        32        11  TIP3  H1            7.2686008602        5.8914381777       -1.8017391424  CLST          11          1.0000000000
        33        11  TIP3  H2            6.8384873094        6.7206124802       -2.9299616638  CLST          11          1.0000000000
        34        12  TIP3  OH2          -8.2556943312        2.5059932126        1.9730607658  CLST          12          1.0000000000
        35        12  TIP3  H1           -7.7512208104        2.8001036003        1.1556403194  CLST          12          1.0000000000
        36        12  TIP3  H2           -9.1619796312        2.6273649717        1.5666066567  CLST          12          1.0000000000
        37        13  TIP3  OH2           7.7324513768        2.3841597715        1.9952957303  CLST          13          1.0000000000
        38        13  TIP3  H1            7.7250611750        3.3019863531        1.5689655878  CLST          13          1.0000000000
        39        13  TIP3  H2            7.6892458491        2.6979018460        2.9248216226  CLST          13          1.0000000000
        40        14  TIP3  OH2          -0.4102650118        2.1900874005        7.9589096285  CLST          14          1.0000000000
        41        14  TIP3  H1           -0.0651382039        3.0697257491        7.6666350778  CLST          14          1.0000000000
        42        14  TIP3  H2            0.1957029121        1.6645043859        7.3635802941  CLST          14          1.0000000000
        43        15  TIP3  OH2          -8.9931845686       -3.8160373011      -12.7785370569  CLST          15          1.0000000000
        44        15  TIP3  H1           -8.2211709170       -3.8762545080      -13.3532837658  CLST          15          1.0000000000
        45        15  TIP3  H2           -8.5677093119       -4.4544779832      -12.1250139241  CLST          15          1.0000000000
        46        16  TIP3  OH2          -3.8244753428      -12.7109458920       -6.1361503758  CLST          16          1.0000000000
        47        16  TIP3  H1           -4.3933237403      -12.7509599733       -5.3222797705  CLST          16          1.0000000000
        48        16  TIP3  H2           -2.9065761268      -12.8272987962       -5.7576334245  CLST          16          1.0000000000
        49        17  TIP3  OH2           4.8773267977      -13.3588617231       -8.4696662695  CLST          17          1.0000000000
        50        17  TIP3  H1            5.5044526667      -13.2217006895       -7.7362765189  CLST          17          1.0000000000
        51        17  TIP3  H2            4.1074066545      -13.6022080646       -7.8813180965  CLST          17          1.0000000000
        52        18  TIP3  OH2         -11.6778077310       -6.7545173653       -1.4410035242  CLST          18          1.0000000000
        53        18  TIP3  H1          -12.0998362303       -5.8602719338       -1.7400817924  CLST          18          1.0000000000
        54        18  TIP3  H2          -11.7645846234       -7.0716771114       -2.4290245289  CLST          18          1.0000000000
        55        19  TIP3  OH2          11.0250666148        0.1282105252        9.4630654773  CLST          19          1.0000000000
        56        19  TIP3  H1           10.5098876166       -0.6599321706        9.7357370753  CLST          19          1.0000000000
        57        19  TIP3  H2           11.2830207369       -0.1958767057        8.5748082942  CLST          19          1.0000000000
        58        20  TIP3  OH2         -13.2948824213        1.5466249527        2.8304198713  CLST          20          1.0000000000
        59        20  TIP3  H1          -13.0962537733        1.3007647751        1.8984577525  CLST          20          1.0000000000
        60        20  TIP3  H2          -14.2146186320        1.6036875022        2.9093742016  CLST          20          1.0000000000
        61        21  TIP3  OH2         -10.1294762278       12.5370056417       -5.4289439628  CLST          21          1.0000000000
        62        21  TIP3  H1          -10.4793475926       13.2996534644       -5.8139136171  CLST          21          1.0000000000
        63        21  TIP3  H2           -9.4067019980       12.3583789044       -6.0404054345  CLST          21          1.0000000000
        64        22  TIP3  OH2           2.7872064151       12.2605773958       -6.5416649744  CLST          22          1.0000000000
        65        22  TIP3  H1            3.0016846299       11.3772400574       -6.1885859418  CLST          22          1.0000000000
        66        22  TIP3  H2            3.2117325810       12.7456732602       -5.7325173470  CLST          22          1.0000000000
        67        23  TIP3  OH2           5.5334053160       -1.8593296563       11.4677863528  CLST          23          1.0000000000
        68        23  TIP3  H1            5.2435531257       -2.4193959326       10.7567596973  CLST          23          1.0000000000
        69        23  TIP3  H2            5.1868824168       -0.9917663965       11.2047597953  CLST          23          1.0000000000
        70        24  TIP3  OH2          -0.1225211376        1.0853530485        4.4988974770  CLST          24          1.0000000000
        71        24  TIP3  H1            0.7165646942        0.9836791516        4.9476522700  CLST          24          1.0000000000
        72        24  TIP3  H2           -0.6989092092        0.4165139513        4.9567494028  CLST          24          1.0000000000
        73        25  TIP3  OH2           3.2708187216        2.0425058194       -2.6201694149  CLST          25          1.0000000000
        74        25  TIP3  H1            3.7325634611        1.5122070616       -1.9046443759  CLST          25          1.0000000000
        75        25  TIP3  H2            3.6709689042        2.9281378940       -2.3921545499  CLST          25          1.0000000000
        76        26  TIP3  OH2          11.3661789017        5.4170410492       -6.5158788461  CLST          26          1.0000000000
        77        26  TIP3  H1           10.5658556578        5.0975036615       -7.0013966740  CLST          26          1.0000000000
        78        26  TIP3  H2           10.9641760447        6.2155876299       -6.0884960317  CLST          26          1.0000000000
        79        27  TIP3  OH2         -10.3318552282        7.3148528838       -5.5480843527  CLST          27          1.0000000000
        80        27  TIP3  H1          -10.4337096726        7.8288232908       -4.7243197734  CLST          27          1.0000000000
        81        27  TIP3  H2          -10.8517198282        7.6816445153       -6.2873471452  CLST          27          1.0000000000
        82        28  TIP3  OH2          -4.1290172157      -10.2036090636       -6.8334699109  CLST          28          1.0000000000
        83        28  TIP3  H1           -4.1192471291      -11.1907382244       -6.7351617535  CLST          28          1.0000000000
        84        28  TIP3  H2           -4.8342438418       -9.9840414555       -6.1969831986  CLST          28          1.0000000000
        85        29  TIP3  OH2         -10.7967361741        7.6717616667       -2.5612957080  CLST          29          1.0000000000
        86        29  TIP3  H1          -10.2548979835        8.2947788088       -1.9230737221  CLST          29          1.0000000000
        87        29  TIP3  H2          -11.6349383579        8.2326696950       -2.5615361446  CLST          29          1.0000000000
        88        30  TIP3  OH2           8.8808241852      -10.4683869378       -2.1232524036  CLST          30          1.0000000000
        89        30  TIP3  H1            9.3034623142      -10.8840497553       -1.3684119270  CLST          30          1.0000000000
        90        30  TIP3  H2            8.5882608197      -11.3142508873       -2.5989804995  CLST          30          1.0000000000
        91        31  TIP3  OH2          -9.6795490217       -1.1954366058      -13.0808548161  CLST          31          1.0000000000
        92        31  TIP3  H1           -9.5487636082       -2.1796351702      -12.9645480799  CLST          31          1.0000000000
        93        31  TIP3  H2           -9.5281678484       -0.8885541542      -12.1407713182  CLST          31          1.0000000000
        94        32  TIP3  OH2          -8.5966725839       -6.4836384311        7.0465085924  CLST          32          1.0000000000
        95        32  TIP3  H1           -9.5814585930       -6.4296545685        7.1138750854  CLST          32          1.0000000000
        96        32  TIP3  H2           -8.4418657679       -5.8231036227        6.3135974508  CLST          32          1.0000000000
        97        33  TIP3  OH2          11.8817978417       -8.8499546186        8.8773314741  CLST          33          1.0000000000
        98        33  TIP3  H1           11.8340940919       -9.8307955026        8.9256427195  CLST          33          1.0000000000
        99        33  TIP3  H2           11.4438171164       -8.7107378641        9.7265455056  CLST          33          1.0000000000
       100        34  TIP3  OH2           4.1913899296       -3.8509251239        2.7957141889  CLST          34          1.0000000000
       101        34  TIP3  H1            3.6155330897       -4.0451822321        2.0115599745  CLST          34          1.0000000000
       102        34  TIP3  H2            4.2039292151       -4.7794814613        3.1253254464  CLST          34          1.0000000000
       103        35  TIP3  OH2           6.1906967066       -0.8101901925        4.3598203143  CLST          35          1.0000000000
       104        35  TIP3  H1            5.2745767402       -1.0420827000        4.6753866811  CLST          35          1.0000000000
       105        35  TIP3  H2            6.5852255904       -0.2335360832        5.0286152640  CLST          35          1.0000000000
       106        36  TIP3  OH2          -1.6380047684        1.3311318292        2.1044564423  CLST          36          1.0000000000
       107        36  TIP3  H1           -2.4830228694        0.9989090779        2.4154459382  CLST          36          1.0000000000
       108        36  TIP3  H2           -1.0853930377        1.0587824806        2.8877950725  CLST          36          1.0000000000
       109        37  TIP3  OH2          -4.4285663131       -8.2274814796      -12.9593531849  CLST          37          1.0000000000
       110        37  TIP3  H1           -4.9414733228       -8.5817904253      -12.2185866820  CLST          37          1.0000000000
       111        37  TIP3  H2           -4.1490001301       -9.1022433327      -13.3567695095  CLST          37          1.0000000000
       112        38  TIP3  OH2          -3.0944108690        2.1608677797       -4.3569244770  CLST          38          1.0000000000
       113        38  TIP3  H1           -3.0225894334        3.1229260515       -4.5997451540  CLST          38          1.0000000000
       114        38  TIP3  H2           -3.7148910289        1.8907247996       -5.0855578798  CLST          38          1.0000000000
       115        39  TIP3  OH2           1.7718648784      -10.8913697301        2.2260329821  CLST          39          1.0000000000
       116        39  TIP3  H1            1.4575630841      -11.4392239192        2.9796905134  CLST          39          1.0000000000
       117        39  TIP3  H2            0.8587573330      -10.6459285710        1.9148071222  CLST          39          1.0000000000
       118        40  TIP3  OH2          -7.0323445845       12.7101901636        8.3216694545  CLST          40          1.0000000000
       119        40  TIP3  H1           -7.9342682959       12.8552945462        7.9499547211  CLST          40          1.0000000000
       120        40  TIP3  H2           -6.4638634337       12.7807112925        7.5317706823  CLST          40          1.0000000000
       121        41  TIP3  OH2           9.6583521735       -2.3260032532      -11.1623350997  CLST          41          1.0000000000
       122        41  TIP3  H1            8.9809222951       -2.9868552151      -10.8640936673  CLST          41          1.0000000000
       123        41  TIP3  H2            9.3831198700       -1.5617786391      -10.6208615204  CLST          41          1.0000000000
       124        42  TIP3  OH2           9.6557684845       10.2329808310      -10.6768730633  CLST          42          1.0000000000
       125        42  TIP3  H1           10.4403612630       10.2590775661      -10.1075743699  CLST          42          1.0000000000
       126        42  TIP3  H2           10.1188319326       10.2971262948      -11.5815958935  CLST          42          1.0000000000
       127        43  TIP3  OH2          12.0235995616       12.6307503095        7.7207676768  CLST          43          1.0000000000
       128        43  TIP3  H1           12.5896391700       13.2759350091        7.7636650547  CLST          43          1.0000000000
       129        43  TIP3  H2           12.4116076122       11.8218638136        8.1757102089  CLST          43          1.0000000000
       130        44  TIP3  OH2           7.7263405151        0.9240090905        5.8380035833  CLST          44          1.0000000000
       131        44  TIP3  H1            7.9777948266        1.3800427840        6.6972670171  CLST          44          1.0000000000
       132        44  TIP3  H2            7.4235976367        1.7413643482        5.3585209117  CLST          44          1.0000000000
       133        45  TIP3  OH2           7.7857532828        9.4359694936        7.3996638765  CLST          45          1.0000000000
       134        45  TIP3  H1            7.6093968591        8.5279444604        7.6987088894  CLST          45          1.0000000000
       135        45  TIP3  H2            8.6938613125        9.5650496228        7.7466039412  CLST          45          1.0000000000
       136        46  TIP3  OH2          -5.6065127222       -3.1567714140      -13.0399047313  CLST          46          1.0000000000
       137        46  TIP3  H1           -5.2378134372       -4.1189067986      -13.0897227754  CLST          46          1.0000000000
       138        46  TIP3  H2           -4.9185755122       -2.9603926176      -12.3526428780  CLST          46          1.0000000000
       139        47  TIP3  OH2           1.4492821490       -6.4327388547      -11.0177998966  CLST          47          1.0000000000
       140        47  TIP3  H1            1.8910578990       -5.5417946149      -11.0040099126  CLST          47          1.0000000000
       141        47  TIP3  H2            1.3456769699       -6.4952391913      -11.9649635479  CLST          47          1.0000000000
       142        48  TIP3  OH2           5.0777624502        5.6023910617        1.1674388821  CLST          48          1.0000000000
       143        48  TIP3  H1            6.0324906715        5.2934673621        1.0448284736  CLST          48          1.0000000000
       144        48  TIP3  H2            5.2819515264        6.5736463033        1.0291475467  CLST          48          1.0000000000
       145        49  TIP3  OH2          -3.4728162366      -10.5976673587      -13.8381578147  CLST          49          1.0000000000
       146        49  TIP3  H1           -2.5611947299      -10.8017737094      -13.9578254937  CLST          49          1.0000000000
       147        49  TIP3  H2           -3.7216919881      -11.1676793581      -13.1034132344  CLST          49          1.0000000000
       148        50  TIP3  OH2           2.8458483750        3.8537386719        5.9830819019  CLST          50          1.0000000000
       149        50  TIP3  H1            2.0438324770        4.1799485571        6.4569758064  CLST          50          1.0000000000
       150        50  TIP3  H2            2.4604426085        3.6537588913        5.0871314146  CLST          50          1.0000000000
       151        51  TIP3  OH2          -6.3195519556       -9.9860642302       -4.8604618563  CLST          51          1.0000000000
       152        51  TIP3  H1           -6.4395493595       -9.9264444841       -3.8732526533  CLST          51          1.0000000000
       153        51  TIP3  H2           -6.2035542022      -10.9792750077       -4.8840416465  CLST          51          1.0000000000
       154        52  TIP3  OH2           9.0710345087       -5.6350607737       -0.1719808320  CLST          52          1.0000000000
       155        52  TIP3  H1            9.3885354065       -5.5721718472       -1.1456430591  CLST          52          1.0000000000
       156        52  TIP3  H2            9.1280310830       -4.6839883386        0.0896504627  CLST          52          1.0000000000
       157        53  TIP3  OH2          -9.6887102510        9.9718508924      -12.3746554943  CLST          53          1.0000000000
       158        53  TIP3  H1           -9.7929758871        9.9466183026      -13.2084943113  CLST          53          1.0000000000
       159        53  TIP3  H2           -8.6676916702        9.2349835605      -12.7452627987  CLST          53          1.0000000000
       160        54  TIP3  OH2           0.4386491142       -3.0258892809       -9.4221582027  CLST          54          1.0000000000
       161        54  TIP3  H1            1.0874883350       -3.4722702339      -10.0106235273  CLST          54          1.0000000000
       162        54  TIP3  H2            0.0089656991       -2.4397477130      -10.0944733370  CLST          54          1.0000000000
       163        55  TIP3  OH2           2.8583572265       -4.0414584589      -14.7778924727  CLST          55          1.0000000000
       164        55  TIP3  H1            2.9910805433       -4.8330052211      -14.2779027349  CLST          55          1.0000000000
       165        55  TIP3  H2            3.1407696026       -4.2500468102      -15.6445848455  CLST          55          1.0000000000
       166        56  TIP3  OH2          -9.9745599923       11.1220915415        5.8161959762  CLST          56          1.0000000000
       167        56  TIP3  H1          -10.1469173512       10.3025706695        6.3087593280  CLST          56          1.0000000000
       168        56  TIP3  H2          -10.2103230785       10.9058392656        4.9056338247  CLST          56          1.0000000000
       169        57  TIP3  OH2           1.6777123887      -13.2955548670        0.4717134894  CLST          57          1.0000000000
       170        57  TIP3  H1            1.9395698140      -12.5765264198        1.0948059913  CLST          57          1.0000000000
       171        57  TIP3  H2            2.4161879406      -13.0832891431       -0.1771220936  CLST          57          1.0000000000
       172        58  TIP3  OH2         -13.1676101907       10.6643260543        7.0286269604  CLST          58          1.0000000000
       173        58  TIP3  H1          -12.5397950922       11.3712256016        6.7993570942  CLST          58          1.0000000000
       174        58  TIP3  H2          -12.9316877511       10.6163522437        8.0105595720  CLST          58          1.0000000000
       175        59  TIP3  OH2         -11.6052544760       -2.6853503813        5.5489876081  CLST          59          1.0000000000
       176        59  TIP3  H1          -11.7227303830       -2.2511421972        6.4328414524  CLST          59          1.0000000000
       177        59  TIP3  H2          -11.8360511569       -1.8965174329        4.9817094139  CLST          59          1.0000000000
       178        60  TIP3  OH2           1.3544669927        9.5763815537        8.5869894543  CLST          60          1.0000000000
       179        60  TIP3  H1            0.6893783056        8.9564555562        8.1425593269  CLST          60          1.0000000000
       180        60  TIP3  H2            1.9366116121        8.8320771785        8.9034778538  CLST          60          1.0000000000
       181        61  TIP3  OH2           2.8130589885       -0.6421426943       -5.5906043219  CLST          61          1.0000000000
       182        61  TIP3  H1            3.3337117175       -1.4738927592       -5.4290095135  CLST          61          1.0000000000
       183        61  TIP3  H2            2.1907853876       -0.9508950176       -6.3012339629  CLST          61          1.0000000000
       184        62  TIP3  OH2           7.9303805143        8.4747545666       12.3581186616  CLST          62          1.0000000000
       185        62  TIP3  H1            8.1935837487        7.8793752038       11.6270269111  CLST          62          1.0000000000
       186        62  TIP3  H2            8.1485128010        9.3441605335       11.9476361758  CLST          62          1.0000000000
       187        63  TIP3  OH2           4.6589150233       -6.9811679745      -10.2341495595  CLST          63          1.0000000000
       188        63  TIP3  H1            3.7426416074       -6.9558505518      -10.5714593697  CLST          63          1.0000000000
       189        63  TIP3  H2            5.1524908383       -7.3541514440      -11.0265354753  CLST          63          1.0000000000
       190        64  TIP3  OH2          -2.4074301405       11.7347236404        5.2813767111  CLST          64          1.0000000000
       191        64  TIP3  H1           -2.3817533205       10.7232402283        5.2740720536  CLST          64          1.0000000000
       192        64  TIP3  H2           -1.8336335636       11.7819994353        6.1481210325  CLST          64          1.0000000000
       193        65  TIP3  OH2          10.8826088688       -4.3653369819       -5.4755552981  CLST          65          1.0000000000
       194        65  TIP3  H1           11.3427493254       -4.0612153240       -6.2968198434  CLST          65          1.0000000000
       195        65  TIP3  H2           10.8948730013       -3.4778944524       -5.0478051471  CLST          65          1.0000000000
       196        66  TIP3  OH2           6.2618194534       -9.8990562123        9.3679150357  CLST          66          1.0000000000
       197        66  TIP3  H1            5.5517393869       -9.9259225831        8.6402813471  CLST          66          1.0000000000
       198        66  TIP3  H2            6.7936142413       -9.2111103434        8.8995873026  CLST          66          1.0000000000
       199        67  TIP3  OH2         -11.6157490114       -7.5304610321       -4.0060829141  CLST          67          1.0000000000
       200        67  TIP3  H1          -10.6993764842       -7.1824250630       -4.2661919622  CLST          67          1.0000000000
       201        67  TIP3  H2          -11.7404803542       -8.1156125083       -4.7039322331  CLST          67          1.0000000000
       202        68  TIP3  OH2          -0.6543653148       -5.5371925824        5.3882692964  CLST          68          1.0000000000
       203        68  TIP3  H1            0.3383831774       -5.5112083093        5.5621199162  CLST          68          1.0000000000
       204        68  TIP3  H2           -0.9641982070       -5.3867621859        6.2762298462  CLST          68          1.0000000000
       205        69  TIP3  OH2           8.0321448549       11.6412654028       -8.6490181212  CLST          69          1.0000000000
       206        69  TIP3  H1            8.3101192535       11.4436379078       -9.6018890168  CLST          69          1.0000000000
       207        69  TIP3  H2            8.9981199759       11.7153287622       -8.3585479133  CLST          69          1.0000000000
       208        70  TIP3  OH2          -0.9723892721      -12.4831654961       -0.5801789082  CLST          70          1.0000000000
       209        70  TIP3  H1            0.0065237332      -12.3497168733       -0.5402510081  CLST          70          1.0000000000
       210        70  TIP3  H2           -1.2004921437      -12.6294145242        0.3541517146  CLST          70          1.0000000000
       211        71  TIP3  OH2         -10.2093371813       -7.3386271687        1.9586959493  CLST          71          1.0000000000
       212        71  TIP3  H1          -10.9346443181       -6.7672090356        2.2732020420  CLST          71          1.0000000000
       213        71  TIP3  H2          -10.6481066085       -7.9404737292        1.3486311359  CLST          71          1.0000000000
       214        72  TIP3  OH2           0.2562641339        2.0265389552       -1.6077309373  CLST          72          1.0000000000
       215        72  TIP3  H1           -0.0866966193        1.0961556878       -1.5668047221  CLST          72          1.0000000000
       216        72  TIP3  H2            1.0718077066        1.8473392963       -2.1370104020  CLST          72          1.0000000000
       217        73  TIP3  OH2          -9.7569167947       13.2147718722        7.4446364901  CLST          73          1.0000000000
       218        73  TIP3  H1           -9.8037175080       12.4082946650        6.8535256004  CLST          73          1.0000000000
       219        73  TIP3  H2          -10.2699212900       13.7955270409        6.7784412489  CLST          73          1.0000000000
       220        74  TIP3  OH2           6.5069995590       -2.8759735305       -3.6666110171  CLST          74          1.0000000000
       221        74  TIP3  H1            6.7058539628       -3.8660955482       -3.8249179344  CLST          74          1.0000000000
       222        74  TIP3  H2            7.4233421939       -2.5604286937       -3.4689579608  CLST          74          1.0000000000
       223        75  TIP3  OH2           2.8622762965      -13.3204675926       -6.5841005481  CLST          75          1.0000000000
       224        75  TIP3  H1            3.1201199266      -12.4223134119       -6.2568500070  CLST          75          1.0000000000
       225        75  TIP3  H2            2.8544060532      -13.7328725471       -5.6282542061  CLST          75          1.0000000000
       226        76  TIP3  OH2           4.0366860734       -9.7740657638        1.2018062380  CLST          76          1.0000000000
       227        76  TIP3  H1            3.8618598759       -8.8384196241        1.4696534751  CLST          76          1.0000000000
       228        76  TIP3  H2            3.2159578362      -10.1945863102        1.6208603825  CLST          76          1.0000000000
       229        77  TIP3  OH2          10.2714550639       -8.2465171818       -2.6897988653  CLST          77          1.0000000000
       230        77  TIP3  H1            9.7338179177       -9.0832214747       -2.5497938987  CLST          77          1.0000000000
       231        77  TIP3  H2           10.3525279152       -8.2697924103       -3.6801133459  CLST          77          1.0000000000
       232        78  TIP3  OH2          10.8044185064       11.6749053130       -7.9042407563  CLST          78          1.0000000000
       233        78  TIP3  H1           11.4751395267       11.0245468221       -8.2761471527  CLST          78          1.0000000000
       234        78  TIP3  H2           11.1468792008       12.4506742985       -7.7699148723  CLST          78          1.0000000000
       235        79  TIP3  OH2          12.7763658815        0.6794058332        1.1220626447  CLST          79          1.0000000000
       236        79  TIP3  H1           13.3899147950        0.5189008032        1.6576782998  CLST          79          1.0000000000
       237        79  TIP3  H2           12.0685648112        1.3308092994        1.3772486549  CLST          79          1.0000000000
       238        80  TIP3  OH2          -7.5898106084        0.1102533792        6.6993115736  CLST          80          1.0000000000
       239        80  TIP3  H1           -7.4667305960        0.0929621293        5.7244063758  CLST          80          1.0000000000
       240        80  TIP3  H2           -6.6153930281        0.0435871591        6.9394172640  CLST          80          1.0000000000
       241        81  TIP3  OH2          -7.5215258677      -10.9216637261        2.0644555931  CLST          81          1.0000000000
       242        81  TIP3  H1           -6.7566320322      -11.1221659973        1.4866871235  CLST          81          1.0000000000
       243        81  TIP3  H2           -7.1089558684      -11.1103950202        2.9548506776  CLST          81          1.0000000000
       244        82  TIP3  OH2          -1.4679893364       -9.9849926589       -6.5315972254  CLST          82          1.0000000000
       245        82  TIP3  H1           -2.4341135693       -9.9326601885       -6.5884200832  CLST          82          1.0000000000
       246        82  TIP3  H2           -1.4144574871      -10.8287990297       -6.0147844946  CLST          82          1.0000000000
       247        83  TIP3  OH2          12.3047593134       -8.5190149564        1.5522022218  CLST          83          1.0000000000
       248        83  TIP3  H1           12.5569945404       -7.8104733312        2.2299611852  CLST          83          1.0000000000
       249        83  TIP3  H2           11.3271380261       -8.2993081725        1.4626338027  CLST          83          1.0000000000
       250        84  TIP3  OH2          -3.3999034294       10.7781716815       -2.0527832420  CLST          84          1.0000000000
       251        84  TIP3  H1           -5.7456770186       10.9303813187       -2.6843242045  CLST          84          1.0000000000
       252        84  TIP3  H2           -4.2574342478       10.9486039170       -2.5486325824  CLST          84          1.0000000000
       253        85  TIP3  OH2           5.7939220362       -2.1226490578       -0.0367657945  CLST          85          1.0000000000
       254        85  TIP3  H1            5.8684462386       -1.6662740294        0.8131392574  CLST          85          1.0000000000
       255        85  TIP3  H2            6.5204101852       -2.7768297216        0.0872234973  CLST          85          1.0000000000
       256        86  TIP3  OH2           6.6076809420       -8.3309293126        5.9918458272  CLST          86          1.0000000000
       257        86  TIP3  H1            5.8022517718       -8.4785582205        6.5637614500  CLST          86          1.0000000000
       258        86  TIP3  H2            6.3983352085       -7.4331489982        5.6403569511  CLST          86          1.0000000000
       259        87  TIP3  OH2          -1.3847790294       -3.7223835288       10.6415347436  CLST          87          1.0000000000
       260        87  TIP3  H1           -0.7276085345       -4.0661420628       11.2785880425  CLST          87          1.0000000000
       261        87  TIP3  H2           -2.2330024317       -4.2722178888       10.8381613118  CLST          87          1.0000000000
       262        88  TIP3  OH2          -0.8984631000        4.4555908788       -7.9673894157  CLST          88          1.0000000000
       263        88  TIP3  H1           -1.0136276347        3.4421745249       -7.8284813849  CLST          88          1.0000000000
       264        88  TIP3  H2           -1.8623473131        4.6565408364       -8.0886761273  CLST          88          1.0000000000
       265        89  TIP3  OH2           3.5668575310        0.8154613999      -11.8443504877  CLST          89          1.0000000000
       266        89  TIP3  H1            3.5798613045        1.4505766303      -12.5414229176  CLST          89          1.0000000000
       267        89  TIP3  H2            3.2191458049        0.0940465577      -12.3225873995  CLST          89          1.0000000000
       268        90  TIP3  OH2           5.4609454736       11.0834527762       -5.5175974449  CLST          90          1.0000000000
       269        90  TIP3  H1            5.1613849911       11.8537866936       -4.9071503822  CLST          90          1.0000000000
       270        90  TIP3  H2            5.4759804386       11.6631507635       -6.3277352797  CLST          90          1.0000000000
       271        91  TIP3  OH2           6.0467386484       -7.8541316923      -12.3562503724  CLST          91          1.0000000000
       272        91  TIP3  H1            6.3024486144       -8.8457233769      -12.3219969265  CLST          91          1.0000000000
       273        91  TIP3  H2            6.9062608014       -7.4540302335      -12.0177123604  CLST          91          1.0000000000
       274        92  TIP3  OH2           9.8247433434       11.4512812598        2.4768366997  CLST          92          1.0000000000
       275        92  TIP3  H1           10.1659147243       11.5700679890        3.4094400342  CLST          92          1.0000000000
       276        92  TIP3  H2            9.5007105904       12.3676572494        2.3945005232  CLST          92          1.0000000000
       277        93  TIP3  OH2          -8.6974153162        7.3069482715        2.7219759704  CLST          93          1.0000000000
       278        93  TIP3  H1           -8.4526388180        8.1613533515        2.3637999533  CLST          93          1.0000000000
       279        93  TIP3  H2           -7.9242931404        7.0076338348        3.2123843493  CLST          93          1.0000000000
       280        94  TIP3  OH2         -14.1805793302        6.5172194776        6.5515544799  CLST          94          1.0000000000
       281        94  TIP3  H1          -13.4496015525        7.1101486606        6.2192880793  CLST          94          1.0000000000
       282        94  TIP3  H2          -14.5560430704        6.3690928623        5.6739206165  CLST          94          1.0000000000
       283        95  TIP3  OH2           9.8126675840        5.6933150532       -1.8747126293  CLST          95          1.0000000000
       284        95  TIP3  H1            9.8980540938        6.0415193389       -0.9449333402  CLST          95          1.0000000000
       285        95  TIP3  H2           10.3308894271        4.8443994682       -1.7077360511  CLST          95          1.0000000000
       286        96  TIP3  OH2           9.6362812482      -10.9727572589       11.2570518040  CLST          96          1.0000000000
       287        96  TIP3  H1           10.4544746780      -11.2158733966       10.7400687407  CLST          96          1.0000000000
       288        96  TIP3  H2            9.1794277472      -11.8354663683       11.2446395802  CLST          96          1.0000000000
       289        97  TIP3  OH2          -7.6854335890        6.8577650075        8.4258800903  CLST          97          1.0000000000
       290        97  TIP3  H1           -7.3881864625        5.9981117335        8.9157136378  CLST          97          1.0000000000
       291        97  TIP3  H2           -8.6530320696        6.5296392652        8.4048065505  CLST          97          1.0000000000
       292        98  TIP3  OH2           6.0239849265        0.6288259183       -3.4812101499  CLST          98          1.0000000000
       293        98  TIP3  H1            6.7646056735        0.3831580348       -2.8493439964  CLST          98          1.0000000000
       294        98  TIP3  H2            5.3851637998       -0.0026878419       -3.0924993977  CLST          98          1.0000000000
       295        99  TIP3  OH2          -6.8409021498      -11.5665752359        4.8881237702  CLST          99          1.0000000000
       296        99  TIP3  H1           -7.1711171232      -11.0707441307        5.6684564623  CLST          99          1.0000000000
       297        99  TIP3  H2           -5.9935985054      -11.8906581708        5.2980514015  CLST          99          1.0000000000
       298       100  TIP3  OH2           2.3848510242        0.3643236215       -9.2216764444  CLST         100          1.0000000000
       299       100  TIP3  H1            2.7631327495        0.5442554981      -10.1227419666  CLST         100          1.0000000000
       300       100  TIP3  H2            2.5729751668        1.2371343896       -8.7934793865  CLST         100          1.0000000000
       301       101  TIP3  OH2          12.5647550789       -6.9488711407        3.7975243367  CLST         101          1.0000000000
       302       101  TIP3  H1           12.5491091571       -7.5629246627        4.6059224245  CLST         101          1.0000000000
       303       101  TIP3  H2           13.2016893648       -6.3779864542        4.1367697215  CLST         101          1.0000000000
       304       102  TIP3  OH2         -12.2930651933       10.3585277312        1.4407014531  CLST         102          1.0000000000
       305       102  TIP3  H1          -12.9229360555       10.1545971290        2.2089776507  CLST         102          1.0000000000
       306       102  TIP3  H2          -12.6517550462        9.6758633763        0.8472002739  CLST         102          1.0000000000
       307       103  TIP3  OH2          -0.6177650885       -9.2109623757        7.8086108584  CLST         103          1.0000000000
       308       103  TIP3  H1           -0.0231610629       -9.4082643277        8.6375659901  CLST         103          1.0000000000
       309       103  TIP3  H2           -1.1217436238      -10.0511949501        7.8947408706  CLST         103          1.0000000000
       310       104  TIP3  OH2          -4.3346017572      -12.1882216906       10.0049297600  CLST         104          1.0000000000
       311       104  TIP3  H1           -5.0323290273      -11.8737737119       10.6583546390  CLST         104          1.0000000000
       312       104  TIP3  H2           -4.9995514298      -12.5788023372        9.3856879014  CLST         104          1.0000000000
       313       105  TIP3  OH2          -5.3095151553       10.5664651557      -11.3536187640  CLST         105          1.0000000000
       314       105  TIP3  H1           -4.8548741104       11.0980981328      -12.0866090928  CLST         105          1.0000000000
       315       105  TIP3  H2           -5.8072469590        9.9379427415      -11.9305091941  CLST         105          1.0000000000
       316       106  TIP3  OH2           7.3095939742       -8.0553373125       -1.3557137356  CLST         106          1.0000000000
       317       106  TIP3  H1            8.1314751083       -7.5503168281       -1.3218659167  CLST         106          1.0000000000
       318       106  TIP3  H2            7.6276942624       -8.9557881465       -1.5239001527  CLST         106          1.0000000000
       319       107  TIP3  OH2          -8.2915128471       -4.8301680980        4.9936541644  CLST         107          1.0000000000
       320       107  TIP3  H1           -9.0000095001       -4.4271433436        4.4883591785  CLST         107          1.0000000000
       321       107  TIP3  H2           -7.4387092147       -4.4100763928        4.7119195414  CLST         107          1.0000000000
       322       108  TIP3  OH2         -10.5624572018        2.0568924789        9.4943384798  CLST         108          1.0000000000
       323       108  TIP3  H1           -9.5807088868        1.8099247828        9.4661663195  CLST         108          1.0000000000
       324       108  TIP3  H2          -10.8915986531        1.1993404622        9.8868273688  CLST         108          1.0000000000
       325       109  TIP3  OH2           2.4042365118        7.1243349438        8.9223886868  CLST         109          1.0000000000
       326       109  TIP3  H1            1.6362693546        6.5959916938        9.2746033829  CLST         109          1.0000000000
       327       109  TIP3  H2            3.0782161437        6.3684663316        8.8489215656  CLST         109          1.0000000000
       328       110  TIP3  OH2           1.5698959943       12.3493923646      -11.0871531864  CLST         110          1.0000000000
       329       110  TIP3  H1            2.4035014017       12.6533203754      -10.6112534480  CLST         110          1.0000000000
       330       110  TIP3  H2            1.0561243478       12.1344292808      -10.1940297310  CLST         110          1.0000000000
       331       111  TIP3  OH2          11.7873767155      -11.6737726449        9.5693588129  CLST         111          1.0000000000
       332       111  TIP3  H1           12.5915247254      -11.9272284696        9.9176178123  CLST         111          1.0000000000
       333       111  TIP3  H2           11.5591625210      -12.3444060608        8.8920694877  CLST         111          1.0000000000
       334       112  TIP3  OH2           6.3099732338        0.0359481478        1.7261018169  CLST         112          1.0000000000
       335       112  TIP3  H1            6.8298809656        0.9096244791        1.7621182734  CLST         112          1.0000000000
       336       112  TIP3  H2            6.4186687520       -0.1905517173        2.6909540695  CLST         112          1.0000000000
       337       113  TIP3  OH2         -12.9320167124        1.0821519585        0.0155579902  CLST         113          1.0000000000
       338       113  TIP3  H1          -13.4695260762        0.2000227959       -0.1202322012  CLST         113          1.0000000000
       339       113  TIP3  H2          -12.3440697294        0.9161914282       -0.7823220934  CLST         113          1.0000000000
       340       114  TIP3  OH2         -13.8793665015        3.5412476039       -0.3619414579  CLST         114          1.0000000000
       341       114  TIP3  H1          -13.7180820585        2.5637916618       -0.2784847391  CLST         114          1.0000000000
       342       114  TIP3  H2          -13.5122468114        3.5829456532       -1.3032433291  CLST         114          1.0000000000
       343       115  TIP3  OH2          -8.8656144332        0.3618601012      -10.7646345387  CLST         115          1.0000000000
       344       115  TIP3  H1           -8.2626503063        0.9829799254      -11.2409699587  CLST         115          1.0000000000
       345       115  TIP3  H2           -9.6144798556        0.9467392695      -10.7216439686  CLST         115          1.0000000000
       346       116  TIP3  OH2           6.9160462466       -5.5676690006        2.0857341179  CLST         116          1.0000000000
       347       116  TIP3  H1            7.5144915403       -5.9242948975        1.3783395767  CLST         116          1.0000000000
       348       116  TIP3  H2            7.1741259869       -4.6098342001        2.0804633272  CLST         116          1.0000000000
       349       117  TIP3  OH2          -0.7510190695        0.0519037721       12.4684600329  CLST         117          1.0000000000
       350       117  TIP3  H1            0.0322811087       -0.5560250531       12.6495508696  CLST         117          1.0000000000
       351       117  TIP3  H2           -0.5723576784        0.7121218868       13.1117830517  CLST         117          1.0000000000
       352       118  TIP3  OH2           0.1185483669       -9.5827361962        4.9949531453  CLST         118          1.0000000000
       353       118  TIP3  H1           -0.1492051390       -9.1525877635        5.8300338914  CLST         118          1.0000000000
       354       118  TIP3  H2           -0.1084568589       -8.8269905400        4.3768573348  CLST         118          1.0000000000
       355       119  TIP3  OH2          -9.2944021125      -10.4379013981       -8.7527512890  CLST         119          1.0000000000
       356       119  TIP3  H1           -9.5422093233      -10.8854884304       -9.6491001239  CLST         119          1.0000000000
       357       119  TIP3  H2           -8.9823816193       -9.5929747414       -9.1452392720  CLST         119          1.0000000000
       358       120  TIP3  OH2           9.6670089924       -7.9181709860        1.3169071518  CLST         120          1.0000000000
       359       120  TIP3  H1            8.8722282293       -8.4932791812        1.3013304578  CLST         120          1.0000000000
       360       120  TIP3  H2            9.4658720494       -7.2124482118        0.6375343721  CLST         120          1.0000000000
       361       121  TIP3  OH2          -5.6671977899       -0.2782993122       -8.1827210552  CLST         121          1.0000000000
       362       121  TIP3  H1           -5.6401069896       -0.0192769545       -9.1305020024  CLST         121          1.0000000000
       363       121  TIP3  H2           -4.9096687084       -0.9322234893       -8.1942905922  CLST         121          1.0000000000
       364       122  TIP3  OH2          10.3505557037       12.0639664526        5.1388949170  CLST         122          1.0000000000
       365       122  TIP3  H1            9.4402112017       12.3512678409        5.3810394088  CLST         122          1.0000000000
       366       122  TIP3  H2           10.8275176507       12.5424846389        5.8393274860  CLST         122          1.0000000000
       367       123  TIP3  OH2          -7.4353923046       -5.5038342643      -11.1712691037  CLST         123          1.0000000000
       368       123  TIP3  H1           -6.7958825302       -6.1717427876      -11.5085130741  CLST         123          1.0000000000
       369       123  TIP3  H2           -7.1065939612       -5.3599897839      -10.2939283467  CLST         123          1.0000000000
       370       124  TIP3  OH2          -6.0246467197       -8.6695443673      -10.7755533311  CLST         124          1.0000000000
       371       124  TIP3  H1           -5.2537706067       -8.9279649277      -10.2291314214  CLST         124          1.0000000000
       372       124  TIP3  H2           -6.5904803099       -8.3056878194      -10.0058969313  CLST         124          1.0000000000
       373       125  TIP3  OH2         -13.4783609010        4.1173190505        8.1181763822  CLST         125          1.0000000000
       374       125  TIP3  H1          -13.0162933164        3.5492580836        7.4723453750  CLST         125          1.0000000000
       375       125  TIP3  H2          -13.7642403263        4.8550002023        7.5524893658  CLST         125          1.0000000000
       376       126  TIP3  OH2          -6.9416139889      -10.7476307314      -12.1287391745  CLST         126          1.0000000000
       377       126  TIP3  H1           -6.0504643573      -11.2108250938      -11.7728279720  CLST         126          1.0000000000
       378       126  TIP3  H2           -6.7455407423       -9.9077236974      -11.5584507194  CLST         126          1.0000000000
       379       127  TIP3  OH2          -7.4748787732      -11.6703725995       -7.0564029093  CLST         127          1.0000000000
       380       127  TIP3  H1           -8.0516030390      -12.4200256709       -6.8425509336  CLST         127          1.0000000000
       381       127  TIP3  H2           -8.0167320315      -11.3138813551       -7.8011938067  CLST         127          1.0000000000
       382       128  TIP3  OH2           9.9572921260        0.9261498940       -2.3890261439  CLST         128          1.0000000000
       383       128  TIP3  H1            9.1149266737        0.6093191914       -2.0041379821  CLST         128          1.0000000000
       384       128  TIP3  H2            9.6365520317        1.6386494833       -3.0173726559  CLST         128          1.0000000000
       385       129  TIP3  OH2          -7.7459040134        9.5415270654        0.9555207825  CLST         129          1.0000000000
       386       129  TIP3  H1           -6.9107208109        9.9742150166        1.3705055684  CLST         129          1.0000000000
       387       129  TIP3  H2           -7.2133895961        8.8365857923        0.4866543671  CLST         129          1.0000000000
       388       130  TIP3  OH2          -4.0984400978        3.8747530621        9.9753736886  CLST         130          1.0000000000
       389       130  TIP3  H1           -3.5799683150        4.7108390715       10.1084959783  CLST         130          1.0000000000
       390       130  TIP3  H2           -3.8106001331        3.4137481235       10.8232485676  CLST         130          1.0000000000
       391       131  TIP3  OH2           7.6691474192       -3.7881872503      -10.0398459316  CLST         131          1.0000000000
       392       131  TIP3  H1            7.7356691167       -3.0557349631       -9.3481617009  CLST         131          1.0000000000
       393       131  TIP3  H2            6.6776034801       -3.9200456516       -9.8693585829  CLST         131          1.0000000000
       394       132  TIP3  OH2         -11.5098413810       11.3648365115       12.3142353869  CLST         132          1.0000000000
       395       132  TIP3  H1          -11.1010307376       12.1106236164       11.7976043892  CLST         132          1.0000000000
       396       132  TIP3  H2          -12.2504085388       11.6433249949       12.7049180812  CLST         132          1.0000000000
       397       133  TIP3  OH2          10.2838889232        9.2645147679        8.5771729630  CLST         133          1.0000000000
       398       133  TIP3  H1           10.3158189949        9.0062814508        9.5243536879  CLST         133          1.0000000000
       399       133  TIP3  H2           11.2024808969        9.6433133345        8.5304598590  CLST         133          1.0000000000
       400       134  TIP3  OH2          -7.6989578954        5.7587122333       -5.9649059787  CLST         134          1.0000000000
       401       134  TIP3  H1           -8.6369497920        6.0047353482       -5.8817895849  CLST         134          1.0000000000
       402       134  TIP3  H2           -7.4122244137        5.8178664698       -5.0108629371  CLST         134          1.0000000000
       403       135  TIP3  OH2          10.7947029296      -11.0724621784      -13.1053261778  CLST         135          1.0000000000
       404       135  TIP3  H1           10.8170199793      -10.2127151807      -12.5922467705  CLST         135          1.0000000000
       405       135  TIP3  H2           11.1715187114      -11.0503064136      -13.8792866477  CLST         135          1.0000000000
       406       136  TIP3  OH2          -4.3677930194        1.7460168468       -7.0312110107  CLST         136          1.0000000000
       407       136  TIP3  H1           -4.8653883173        0.9785818347       -7.3701579481  CLST         136          1.0000000000
       408       136  TIP3  H2           -5.1161828043        2.2458575989       -6.5954930233  CLST         136          1.0000000000
       409       137  TIP3  OH2          12.8091424098       10.3561748071        9.0760572861  CLST         137          1.0000000000
       410       137  TIP3  H1           13.0400861155       10.2690362056       10.0264034018  CLST         137          1.0000000000
       411       137  TIP3  H2           13.4867335348        9.7171061737        8.6960371544  CLST         137          1.0000000000
       412       138  TIP3  OH2          -0.8182710825      -10.0229577511        1.6782886942  CLST         138          1.0000000000
       413       138  TIP3  H1           -1.0714963893       -9.5233614370        0.8858625181  CLST         138          1.0000000000
       414       138  TIP3  H2           -0.9074867158       -9.3559848385        2.3823711182  CLST         138          1.0000000000
       415       139  TIP3  OH2          -9.4706956068      -10.6913614204        4.4794564093  CLST         139          1.0000000000
       416       139  TIP3  H1          -10.0894607738      -10.7960608126        3.7016428942  CLST         139          1.0000000000
       417       139  TIP3  H2           -8.8005940911      -11.3716417499        4.2234048680  CLST         139          1.0000000000
       418       140  TIP3  OH2          -7.0534879745        3.4035004044       -0.3691187181  CLST         140          1.0000000000
       419       140  TIP3  H1           -6.1901558703        3.8661046630       -0.1684159322  CLST         140          1.0000000000
       420       140  TIP3  H2           -7.6300823269        4.1872313860       -0.5430782144  CLST         140          1.0000000000
       421       141  TIP3  OH2           2.0239459520       -4.3385451086       -3.5193862588  CLST         141          1.0000000000
       422       141  TIP3  H1            1.7698579284       -3.4048296703       -3.2783409553  CLST         141          1.0000000000
       423       141  TIP3  H2            2.6579828882       -4.0809919976       -4.2191730928  CLST         141          1.0000000000
       424       142  TIP3  OH2         -11.8046054739       -0.0259327330        4.7348779297  CLST         142          1.0000000000
       425       142  TIP3  H1          -11.6609337392        0.6040477581        5.4509393412  CLST         142          1.0000000000
       426       142  TIP3  H2          -12.5830951692        0.3528435310        4.3122350198  CLST         142          1.0000000000
       427       143  TIP3  OH2           9.3102031788       -5.6478695454       -8.1905073721  CLST         143          1.0000000000
       428       143  TIP3  H1            9.4586153091       -5.0295532772       -8.9325237066  CLST         143          1.0000000000
       429       143  TIP3  H2           10.0912446347       -6.2267823437       -8.3251684661  CLST         143          1.0000000000
       430       144  TIP3  OH2           3.3412660792       -2.9357064035        9.0473420759  CLST         144          1.0000000000
       431       144  TIP3  H1            2.5178616627       -2.4764309240        9.3676143128  CLST         144          1.0000000000
       432       144  TIP3  H2            3.6988212198       -2.1331913319        8.5441017097  CLST         144          1.0000000000
       433       145  TIP3  OH2         -10.4127324797       13.3897204580        3.2388324743  CLST         145          1.0000000000
       434       145  TIP3  H1          -10.6304564635       13.6042275652        2.3081215040  CLST         145          1.0000000000
       435       145  TIP3  H2          -10.1766876668       12.4397469533        3.0626832937  CLST         145          1.0000000000
       436       146  TIP3  OH2           9.0377308142        2.6449125502       -4.3819643683  CLST         146          1.0000000000
       437       146  TIP3  H1            8.9943661771        3.6573318391       -4.3930749454  CLST         146          1.0000000000
       438       146  TIP3  H2            8.2914896733        2.4868091320       -5.0096303421  CLST         146          1.0000000000
       439       147  TIP3  OH2         -11.0589275535       -0.4252104500       -4.0785752074  CLST         147          1.0000000000
       440       147  TIP3  H1          -10.1630551306       -0.8064211892       -4.1442593124  CLST         147          1.0000000000
       441       147  TIP3  H2          -11.4471077839       -0.7652480886       -4.9212170604  CLST         147          1.0000000000
       442       148  TIP3  OH2          -7.9869678558        1.3023396375        8.9434505976  CLST         148          1.0000000000
       443       148  TIP3  H1           -7.8778280083        0.9926397079        8.0174329618  CLST         148          1.0000000000
       444       148  TIP3  H2           -7.0347614523        1.6083293005        9.0629554936  CLST         148          1.0000000000
       445       149  TIP3  OH2           8.7340822593       -2.8618082943        0.9059862364  CLST         149          1.0000000000
       446       149  TIP3  H1            9.3035442711       -2.0700594313        0.6476606001  CLST         149          1.0000000000
       447       149  TIP3  H2            8.5213399018       -2.6610906365        1.8019933531  CLST         149          1.0000000000
       448       150  TIP3  OH2          -2.1435076067      -11.5090663725        8.5349474126  CLST         150          1.0000000000
       449       150  TIP3  H1           -2.9610754987      -11.7125384625        9.0713037871  CLST         150          1.0000000000
       450       150  TIP3  H2           -1.4827727356      -11.9925773626        9.1533022940  CLST         150          1.0000000000
       451       151  TIP3  OH2          -9.0596408859       -6.5547929400       -4.9879992020  CLST         151          1.0000000000
       452       151  TIP3  H1           -8.1154243988       -6.5518522775       -4.6361007137  CLST         151          1.0000000000
       453       151  TIP3  H2           -8.9514984098       -7.4391350520       -5.4626800285  CLST         151          1.0000000000
       454       152  TIP3  OH2           4.0287545874       -2.1494574924        5.0838610636  CLST         152          1.0000000000
       455       152  TIP3  H1            4.6313223042       -2.8660889470        5.4454551046  CLST         152          1.0000000000
       456       152  TIP3  H2            3.7539628165       -2.6145575754        4.2505624345  CLST         152          1.0000000000
       457       153  TIP3  OH2          -2.7159088461        4.8822850325      -14.1336433003  CLST         153          1.0000000000
       458       153  TIP3  H1           -1.7730456685        5.1024960870      -13.9674580356  CLST         153          1.0000000000
       459       153  TIP3  H2           -2.7394084323        4.2884530594      -13.3590557031  CLST         153          1.0000000000
       460       154  TIP3  OH2           4.5347194150       -6.8146248748        2.1722684983  CLST         154          1.0000000000
       461       154  TIP3  H1            5.4690784993       -6.4476308634        2.0994058512  CLST         154          1.0000000000
       462       154  TIP3  H2            4.1734613556       -6.3397625671        1.3995553740  CLST         154          1.0000000000
       463       155  TIP3  OH2           9.4605423750       -2.6135648273       10.1721675540  CLST         155          1.0000000000
       464       155  TIP3  H1            8.8076221435       -3.1851419132        9.7300537584  CLST         155          1.0000000000
       465       155  TIP3  H2           10.1075305419       -3.1365282372       10.4535215516  CLST         155          1.0000000000
       466       156  TIP3  OH2          -2.1990960471       11.2644523579       11.7225997212  CLST         156          1.0000000000
       467       156  TIP3  H1           -2.9371557375       11.8535545669       11.8571583654  CLST         156          1.0000000000
       468       156  TIP3  H2           -2.6999654768       10.4543382567       11.8767146167  CLST         156          1.0000000000
       469       157  TIP3  OH2           3.8974619450       -0.9043541166        7.3840866527  CLST         157          1.0000000000
       470       157  TIP3  H1            4.8772924105       -0.7865687196        7.4626316310  CLST         157          1.0000000000
       471       157  TIP3  H2            3.7913262848       -1.4447174239        6.5312376525  CLST         157          1.0000000000
       472       158  TIP3  OH2          10.6169676775        9.0611000850       13.1581727179  CLST         158          1.0000000000
       473       158  TIP3  H1            9.8108432008        8.5853407801       13.3882054780  CLST         158          1.0000000000
       474       158  TIP3  H2           10.2079416053        9.8221616009       12.6726256351  CLST         158          1.0000000000
       475       159  TIP3  OH2           0.5110854329      -12.1461846361        4.3541172631  CLST         159          1.0000000000
       476       159  TIP3  H1           -0.2387018219      -12.4417111737        4.9821673699  CLST         159          1.0000000000
       477       159  TIP3  H2            0.4167693676      -11.1737529661        4.6200755689  CLST         159          1.0000000000
       478       160  TIP3  OH2           7.2714621243       -3.5613646195        8.5577192538  CLST         160          1.0000000000
       479       160  TIP3  H1            6.7637415330       -3.7616847092        7.6960476312  CLST         160          1.0000000000
       480       160  TIP3  H2            6.9203157487       -2.6220906221        8.5854230288  CLST         160          1.0000000000
       481       161  TIP3  OH2          -2.4050157677       -2.3455736995        7.8406631587  CLST         161          1.0000000000
       482       161  TIP3  H1           -2.1326766496       -1.6941200747        8.5362467817  CLST         161          1.0000000000
       483       161  TIP3  H2           -3.3115782328       -2.5143061171        8.1932721869  CLST         161          1.0000000000
       484       162  TIP3  OH2          -0.7317483788        3.6747475724      -10.6502636728  CLST         162          1.0000000000
       485       162  TIP3  H1           -0.5817903876        4.1900380271      -11.4364657389  CLST         162          1.0000000000
       486       162  TIP3  H2           -0.5207987209        4.1789938535       -9.8501044501  CLST         162          1.0000000000
       487       163  TIP3  OH2         -10.1455550585        9.2186036081       11.2426961772  CLST         163          1.0000000000
       488       163  TIP3  H1          -10.8591953535        8.5025318561       11.3385735202  CLST         163          1.0000000000
       489       163  TIP3  H2          -10.4941253738        9.8816925271       11.8750522124  CLST         163          1.0000000000
       490       164  TIP3  OH2           4.0834928920      -10.5183705020       13.0152682668  CLST         164          1.0000000000
       491       164  TIP3  H1            4.6812556384       -9.8808974557       12.5418411845  CLST         164          1.0000000000
       492       164  TIP3  H2            4.8453166075      -11.2112222373       13.0289728650  CLST         164          1.0000000000
       493       165  TIP3  OH2         -12.0643909200       -5.4851476361        3.4842665163  CLST         165          1.0000000000
       494       165  TIP3  H1          -11.8086094971       -5.6662394539        4.4674892511  CLST         165          1.0000000000
       495       165  TIP3  H2          -13.0032333805       -5.3474050668        3.5421110421  CLST         165          1.0000000000
       496       166  TIP3  OH2          -1.5028312749       -6.3662470578      -10.5249870431  CLST         166          1.0000000000
       497       166  TIP3  H1           -0.6064977676       -6.7479480737      -10.5230171765  CLST         166          1.0000000000
       498       166  TIP3  H2           -2.1494647292       -7.0597242746      -10.5995979955  CLST         166          1.0000000000
       499       167  TIP3  OH2           7.9997095099       10.5169165981       -0.8947783573  CLST         167          1.0000000000
       500       167  TIP3  H1            8.5214482214       10.1317491165       -0.1312217280  CLST         167          1.0000000000
       501       167  TIP3  H2            8.3718452919        9.9228973989       -1.6029104349  CLST         167          1.0000000000
       502       168  TIP3  OH2          -0.6275782183      -13.2211726682        2.0807078566  CLST         168          1.0000000000
       503       168  TIP3  H1           -0.1689917243      -12.8833179008        2.9020454677  CLST         168          1.0000000000
       504       168  TIP3  H2            0.1115660977      -13.7007648669        1.6364225423  CLST         168          1.0000000000
       505       169  TIP3  OH2           5.0535912801        4.1063402282        3.3221449787  CLST         169          1.0000000000
       506       169  TIP3  H1            4.2072625282        3.6254347612        3.3155879940  CLST         169          1.0000000000
       507       169  TIP3  H2            4.9939889757        4.5796353215        2.4302653663  CLST         169          1.0000000000
       508       170  TIP3  OH2          -1.1618589756        4.2904217415        1.5045653134  CLST         170          1.0000000000
       509       170  TIP3  H1           -1.8986292031        4.9352448549        1.4616581207  CLST         170          1.0000000000
       510       170  TIP3  H2           -1.5488280421        3.4109122747        1.4070482005  CLST         170          1.0000000000
       511       171  TIP3  OH2          -3.0099747203        1.2469271211        7.3107768016  CLST         171          1.0000000000
       512       171  TIP3  H1           -2.5367427861        0.8956668758        6.5425676540  CLST         171          1.0000000000
       513       171  TIP3  H2           -2.2694382642        1.6021598319        7.8197828838  CLST         171          1.0000000000
       514       172  TIP3  OH2          -6.2991247973      -13.1064046007        8.1243491340  CLST         172          1.0000000000
       515       172  TIP3  H1           -6.7654236939      -13.8964328326        7.9143210445  CLST         172          1.0000000000
       516       172  TIP3  H2           -5.6835811235      -12.9963472922        7.3134923230  CLST         172          1.0000000000
       517       173  TIP3  OH2          10.3198909421      -12.4717790457        1.8062514810  CLST         173          1.0000000000
       518       173  TIP3  H1           10.5102013853      -12.4471926357        0.7835754420  CLST         173          1.0000000000
       519       173  TIP3  H2            9.3527607488      -12.3142860323        1.7814565232  CLST         173          1.0000000000
       520       174  TIP3  OH2           0.1119724109        5.5254859104        9.7971191117  CLST         174          1.0000000000
       521       174  TIP3  H1           -0.2888188573        4.9227863482       10.4683464350  CLST         174          1.0000000000
       522       174  TIP3  H2           -0.5863144902        6.2395999543        9.7353707638  CLST         174          1.0000000000
       523       175  TIP3  OH2          -5.8242678506       10.2395100121       -3.6807840901  CLST         175          1.0000000000
       524       175  TIP3  H1           -4.9997460139        9.9459499963       -4.1968580854  CLST         175          1.0000000000
       525       175  TIP3  H2           -6.5292712757        9.7845338825       -4.3287758061  CLST         175          1.0000000000
       526       176  TIP3  OH2           6.6651146889        9.2644542193       -7.7594131384  CLST         176          1.0000000000
       527       176  TIP3  H1            7.1318746309       10.1075015246       -8.0584226777  CLST         176          1.0000000000
       528       176  TIP3  H2            6.3457177340        9.6165673535       -6.8906799545  CLST         176          1.0000000000
       529       177  TIP3  OH2          -3.7561761504      -11.3920522747       -1.4621482730  CLST         177          1.0000000000
       530       177  TIP3  H1           -2.9827087863      -11.8596485230       -1.1597037643  CLST         177          1.0000000000
       531       177  TIP3  H2           -4.3088144772      -11.2803092564       -0.6243062812  CLST         177          1.0000000000
       532       178  TIP3  OH2          10.8173145671       -8.9929823308      -11.4962615854  CLST         178          1.0000000000
       533       178  TIP3  H1           11.0603562858       -9.0342552421      -10.5579421187  CLST         178          1.0000000000
       534       178  TIP3  H2           10.7411123725       -8.0311198046      -11.6173825137  CLST         178          1.0000000000
       535       179  TIP3  OH2           6.4123077940       -1.0207643582        8.4370045710  CLST         179          1.0000000000
       536       179  TIP3  H1            6.1344150554       -0.3700033226        9.1315054320  CLST         179          1.0000000000
       537       179  TIP3  H2            7.0785834229       -0.4567269582        7.9947178539  CLST         179          1.0000000000
       538       180  TIP3  OH2          -7.5555191014        7.9909582085        6.0749940887  CLST         180          1.0000000000
       539       180  TIP3  H1           -7.4405941562        7.8199871212        7.0556514545  CLST         180          1.0000000000
       540       180  TIP3  H2           -8.5165208742        8.2086136000        6.1871297103  CLST         180          1.0000000000
       541       181  TIP3  OH2           5.8938918674      -13.1187357084       -0.2828811008  CLST         181          1.0000000000
       542       181  TIP3  H1            6.7681578653      -12.9177362945       -0.6275164248  CLST         181          1.0000000000
       543       181  TIP3  H2            6.2032092808      -13.1549515423        0.6672877383  CLST         181          1.0000000000
       544       182  TIP3  OH2          -1.6869522178       10.5420776038      -10.5056982819  CLST         182          1.0000000000
       545       182  TIP3  H1           -0.8412059518       10.7704933517      -10.0364294063  CLST         182          1.0000000000
       546       182  TIP3  H2           -2.3692273918       10.6592883210       -9.8299266273  CLST         182          1.0000000000
       547       183  TIP3  OH2          -5.4018194486        3.5614484805      -12.2855032424  CLST         183          1.0000000000
       548       183  TIP3  H1           -5.1597494817        3.5001906549      -11.3327111181  CLST         183          1.0000000000
       549       183  TIP3  H2           -6.3238377114        3.2066509615      -12.2178532119  CLST         183          1.0000000000
       550       184  TIP3  OH2           3.0231671442        8.3290696392       -2.5872106595  CLST         184          1.0000000000
       551       184  TIP3  H1            3.2754703458        7.7383281555       -1.8524509521  CLST         184          1.0000000000
       552       184  TIP3  H2            2.0876273723        8.0551409188       -2.5983196824  CLST         184          1.0000000000
       553       185  TIP3  OH2           7.3326838126        4.6582409109       12.0811917512  CLST         185          1.0000000000
       554       185  TIP3  H1            7.6051419936        3.7204026197       12.1750556296  CLST         185          1.0000000000
       555       185  TIP3  H2            6.8283001721        4.8441957824       12.9279600633  CLST         185          1.0000000000
       556       186  TIP3  OH2           3.7383793180        5.8763007662       -5.0463975276  CLST         186          1.0000000000
       557       186  TIP3  H1            3.9670920530        6.8341288295       -4.9518205554  CLST         186          1.0000000000
       558       186  TIP3  H2            3.9044766671        5.7725740369       -6.0047404841  CLST         186          1.0000000000
       559       187  TIP3  OH2           4.0536001525        1.6506051846       -5.5328990669  CLST         187          1.0000000000
       560       187  TIP3  H1            4.1438168611        1.6978964228       -4.5608702556  CLST         187          1.0000000000
       561       187  TIP3  H2            3.6348590411        0.7385819274       -5.6042405572  CLST         187          1.0000000000
       562       188  TIP3  OH2          -4.5038460799       -1.5825485013        4.8370566875  CLST         188          1.0000000000
       563       188  TIP3  H1           -4.5600246368       -0.7580684818        4.2910962345  CLST         188          1.0000000000
       564       188  TIP3  H2           -4.8632012758       -1.1952768589        5.7150870547  CLST         188          1.0000000000
       565       189  TIP3  OH2          -4.9254051184        3.4623262180      -15.1149491126  CLST         189          1.0000000000
       566       189  TIP3  H1           -5.0839344831        3.0780440843      -14.2384980578  CLST         189          1.0000000000
       567       189  TIP3  H2           -4.1317425648        3.9831154003      -14.8986875337  CLST         189          1.0000000000
       568       190  TIP3  OH2           7.0902915007       -5.5671629945        5.1594210768  CLST         190          1.0000000000
       569       190  TIP3  H1            6.9405855403       -5.4464728749        4.1892761667  CLST         190          1.0000000000
       570       190  TIP3  H2            8.0353839556       -5.7648629981        5.1597339742  CLST         190          1.0000000000
       571       191  TIP3  OH2         -10.9625269538       -4.9478076440       -6.4971675959  CLST         191          1.0000000000
       572       191  TIP3  H1          -10.4829251644       -4.5531567269       -7.2330037201  CLST         191          1.0000000000
       573       191  TIP3  H2          -10.2072936960       -5.4297749212       -6.0994691086  CLST         191          1.0000000000
       574       192  TIP3  OH2           8.7703150830       14.2357919483        1.9354530264  CLST         192          1.0000000000
       575       192  TIP3  H1            7.9883578449       14.4855931493        2.4592111890  CLST         192          1.0000000000
       576       192  TIP3  H2            9.1370054345       15.0691933869        1.6570136649  CLST         192          1.0000000000
       577       193  TIP3  OH2           6.1340926115      -12.0811099016       11.7348127153  CLST         193          1.0000000000
       578       193  TIP3  H1            6.8576116674      -12.6396821802       11.4764701439  CLST         193          1.0000000000
       579       193  TIP3  H2            5.9788706795      -11.4954285554       10.9896236409  CLST         193          1.0000000000
       580       194  TIP3  OH2          -6.2601324902       -4.4357601986       11.1041249640  CLST         194          1.0000000000
       581       194  TIP3  H1           -6.6382944581       -4.6329658057       11.8966444139  CLST         194          1.0000000000
       582       194  TIP3  H2           -7.0133593909       -4.4808836157       10.4524763340  CLST         194          1.0000000000
       583       195  TIP3  OH2          -7.6147874490        9.2224030430       10.4562419985  CLST         195          1.0000000000
       584       195  TIP3  H1           -8.5680012404        9.1495395351       10.7398248359  CLST         195          1.0000000000
       585       195  TIP3  H2           -7.5369312184        8.3615417930       10.0010464039  CLST         195          1.0000000000
       586       196  TIP3  OH2           6.0398209340      -12.1990485632       -5.9460315606  CLST         196          1.0000000000
       587       196  TIP3  H1            6.4167762366      -11.4318919447       -6.4180805241  CLST         196          1.0000000000
       588       196  TIP3  H2            5.1803217392      -11.7293602645       -5.6696025274  CLST         196          1.0000000000
       589       197  TIP3  OH2           2.2213002514       -9.1692571262       -2.8994618111  CLST         197          1.0000000000
       590       197  TIP3  H1            1.9783599168       -8.2853740610       -2.4169010743  CLST         197          1.0000000000
       591       197  TIP3  H2            3.1610219343       -8.9271734054       -2.9446714680  CLST         197          1.0000000000
       592       198  TIP3  OH2          10.9084751690        1.8561911427        4.8018201467  CLST         198          1.0000000000
       593       198  TIP3  H1            9.9611159195        1.6075763847        4.6648105752  CLST         198          1.0000000000
       594       198  TIP3  H2           10.8298431002        2.7216547745        4.3625169805  CLST         198          1.0000000000
       595       199  TIP3  OH2          -0.0354969640        8.4035099540       -5.8785740994  CLST         199          1.0000000000
       596       199  TIP3  H1           -0.8465878828        8.6595040683       -5.4430193872  CLST         199          1.0000000000
       597       199  TIP3  H2           -0.1020773242        7.4246908270       -5.7276072796  CLST         199          1.0000000000
       598       200  TIP3  OH2          -7.4638447132       11.8153884602       11.0175174628  CLST         200          1.0000000000
       599       200  TIP3  H1           -7.5871860496       10.8902722341       10.6504183683  CLST         200          1.0000000000
       600       200  TIP3  H2           -7.0532705071       12.1981494187       10.1791830734  CLST         200          1.0000000000
       601       201  TIP3  OH2           4.4825421688        1.0688117570       -0.1806537700  CLST         201          1.0000000000
       602       201  TIP3  H1            4.0610624432        1.5325373597        0.5410791985  CLST         201          1.0000000000
       603       201  TIP3  H2            5.1228798454        0.5576550962        0.3555070047  CLST         201          1.0000000000
       604       202  TIP3  OH2          -2.0842002661       -4.3331494995      -12.3845655431  CLST         202          1.0000000000
       605       202  TIP3  H1           -1.8354152539       -4.8750410889      -11.6145474338  CLST         202          1.0000000000
       606       202  TIP3  H2           -2.5446295178       -3.5930275019      -11.9413875744  CLST         202          1.0000000000
       607       203  TIP3  OH2          -0.8518422684       11.4346107356        7.5436286429  CLST         203          1.0000000000
       608       203  TIP3  H1            0.0200395727       11.0998197518        7.8753259446  CLST         203          1.0000000000
       609       203  TIP3  H2           -1.4555554216       10.8892335014        8.1379136286  CLST         203          1.0000000000
       610       204  TIP3  OH2          -5.4151325047        6.4428770270      -13.2332114556  CLST         204          1.0000000000
       611       204  TIP3  H1           -4.6643656398        6.3759570591      -13.8176331712  CLST         204          1.0000000000
       612       204  TIP3  H2           -5.5602472501        5.4693221238      -13.0897822640  CLST         204          1.0000000000
       613       205  TIP3  OH2          -2.3282682175        7.1775013994       -2.6420794113  CLST         205          1.0000000000
       614       205  TIP3  H1           -2.2312793776        7.9471845191       -3.3258255070  CLST         205          1.0000000000
       615       205  TIP3  H2           -1.3376243871        7.0299684238       -2.5435569420  CLST         205          1.0000000000
       616       206  TIP3  OH2           4.9569019263      -11.0346314879       -9.6820994780  CLST         206          1.0000000000
       617       206  TIP3  H1            4.8321159878      -12.0272897956       -9.3752386292  CLST         206          1.0000000000
       618       206  TIP3  H2            5.6874643652      -10.8181538160       -9.0484286326  CLST         206          1.0000000000
       619       207  TIP3  OH2          13.0008740741       10.0729400784       12.3761866887  CLST         207          1.0000000000
       620       207  TIP3  H1           12.2488147149        9.6021591912       12.7172968986  CLST         207          1.0000000000
       621       207  TIP3  H2           13.6822759523       10.2732950782       12.7793201682  CLST         207          1.0000000000
       622       208  TIP3  OH2         -11.5761395525        2.2444531589        6.9221798257  CLST         208          1.0000000000
       623       208  TIP3  H1          -11.1986675189        2.1223011869        7.8484972772  CLST         208          1.0000000000
       624       208  TIP3  H2          -11.2125514915        3.0969286136        6.6244682038  CLST         208          1.0000000000
       625       209  TIP3  OH2           4.5034569211       -9.3101797846        7.3108522223  CLST         209          1.0000000000
       626       209  TIP3  H1            4.1421683185       -9.5321639998        6.4052623627  CLST         209          1.0000000000
       627       209  TIP3  H2            3.7126211023       -8.7776412631        7.5952766504  CLST         209          1.0000000000
       628       210  TIP3  OH2          12.1526945087      -11.2324430031        5.3091489122  CLST         210          1.0000000000
       629       210  TIP3  H1           12.5275872505      -11.2290980440        4.3387619615  CLST         210          1.0000000000
       630       210  TIP3  H2           12.3244015244      -10.2946101163        5.4979888274  CLST         210          1.0000000000
       631       211  TIP3  OH2          -0.3191338707       -9.2975146342       12.1320806253  CLST         211          1.0000000000
       632       211  TIP3  H1            0.2225154548       -9.8116970990       12.7721869546  CLST         211          1.0000000000
       633       211  TIP3  H2           -1.1393058984       -9.8663166120       12.1723870826  CLST         211          1.0000000000
       634       212  TIP3  OH2         -12.3968928795        3.4689062450       -2.4784051252  CLST         212          1.0000000000
       635       212  TIP3  H1          -11.7908145521        4.1162014285       -2.9684285742  CLST         212          1.0000000000
       636       212  TIP3  H2          -11.8072080305        2.7000771604       -2.3073962582  CLST         212          1.0000000000
       637       213  TIP3  OH2          -9.5766106338      -11.4065426684      -11.4003549203  CLST         213          1.0000000000
       638       213  TIP3  H1           -9.5430463883      -11.3797972924      -12.6089041477  CLST         213          1.0000000000
       639       213  TIP3  H2           -7.8433161181      -11.1589382942      -12.1636043808  CLST         213          1.0000000000
       640       214  TIP3  OH2          -6.4659657851        2.3391122697       -5.3868031637  CLST         214          1.0000000000
       641       214  TIP3  H1           -6.3120955432        1.4726804385       -4.9334993498  CLST         214          1.0000000000
       642       214  TIP3  H2           -7.0917435463        2.6725094899       -4.6809368172  CLST         214          1.0000000000
       643       215  TIP3  OH2         -11.9292323939      -12.6411052773        5.7069497889  CLST         215          1.0000000000
       644       215  TIP3  H1          -10.9971721566      -12.4652074971        5.4932196901  CLST         215          1.0000000000
       645       215  TIP3  H2          -12.0760031414      -12.9331162144        4.7606010846  CLST         215          1.0000000000
       646       216  TIP3  OH2         -11.7330147908       -2.3387962453        8.1112441755  CLST         216          1.0000000000
       647       216  TIP3  H1          -10.8164951331       -2.0043912204        8.2185530041  CLST         216          1.0000000000
       648       216  TIP3  H2          -11.5457313024       -3.2976322187        8.1985721744  CLST         216          1.0000000000
       649       217  TIP3  OH2           7.6272947041       -0.2467626147       -1.5955474885  CLST         217          1.0000000000
       650       217  TIP3  H1            7.9929812592       -1.0451546150       -2.0331397520  CLST         217          1.0000000000
       651       217  TIP3  H2            7.0395387330       -0.6336157808       -0.8949855830  CLST         217          1.0000000000
       652       218  TIP3  OH2          -8.2060470039       -3.9673464815        9.2338445024  CLST         218          1.0000000000
       653       218  TIP3  H1           -8.4777132831       -3.0450843358        8.9189851147  CLST         218          1.0000000000
       654       218  TIP3  H2           -7.6412171379       -4.2066253344        8.4447417715  CLST         218          1.0000000000
       655       219  TIP3  OH2         -12.4096599516       -4.5954892765       -2.8289700807  CLST         219          1.0000000000
       656       219  TIP3  H1          -12.5359436709       -3.6418810251       -2.7197578321  CLST         219          1.0000000000
       657       219  TIP3  H2          -12.6643033291       -4.6767684359       -3.7780065948  CLST         219          1.0000000000
       658       220  TIP3  OH2           6.4277149567        6.8319805090        7.6871355756  CLST         220          1.0000000000
       659       220  TIP3  H1            5.8930810727        6.7964633975        6.8474376166  CLST         220          1.0000000000
       660       220  TIP3  H2            5.7683626212        6.2532316112        8.1583537321  CLST         220          1.0000000000
       661       221  TIP3  OH2         -10.3931246434       -7.1072204500       10.1710245397  CLST         221          1.0000000000
       662       221  TIP3  H1           -9.4469896292       -7.2579512256       10.2049576864  CLST         221          1.0000000000
       663       221  TIP3  H2          -10.6566351238       -8.0118803041        9.9090532177  CLST         221          1.0000000000
       664       222  TIP3  OH2          -6.7908590749       -0.7699331202      -13.7078164167  CLST         222          1.0000000000
       665       222  TIP3  H1           -6.2518280897       -1.5970294342      -13.4942880809  CLST         222          1.0000000000
       666       222  TIP3  H2           -7.6551456925       -1.1933903554      -13.6775206290  CLST         222          1.0000000000
       667       223  TIP3  OH2           2.7320869403      -10.7288932940      -11.6167865991  CLST         223          1.0000000000
       668       223  TIP3  H1            2.1235795819      -11.5371680800      -11.4902547673  CLST         223          1.0000000000
       669       223  TIP3  H2            3.4847740411      -11.0006633993      -11.0675285849  CLST         223          1.0000000000
       670       224  TIP3  OH2           7.5860048444        4.6405600194        0.6464849092  CLST         224          1.0000000000
       671       224  TIP3  H1            8.3156535139        5.2869007083        0.5762626312  CLST         224          1.0000000000
       672       224  TIP3  H2            7.5282624984        4.2674900142       -0.2684609228  CLST         224          1.0000000000
       673       225  TIP3  OH2          -0.2110690317        4.6202179140       -1.2617843629  CLST         225          1.0000000000
       674       225  TIP3  H1           -0.3821014670        4.5249537375       -0.3077506168  CLST         225          1.0000000000
       675       225  TIP3  H2           -0.2321538605        3.6474212603       -1.5082364918  CLST         225          1.0000000000
       676       226  TIP3  OH2          -5.8779385697       -4.4962488504        7.6164280052  CLST         226          1.0000000000
       677       226  TIP3  H1           -5.7688125120       -5.4603290819        7.7671323359  CLST         226          1.0000000000
       678       226  TIP3  H2           -5.7702828359       -4.5080795945        6.6357330686  CLST         226          1.0000000000
       679       227  TIP3  OH2          11.6154599277       -4.1175046674       -9.8261661664  CLST         227          1.0000000000
       680       227  TIP3  H1           11.5614031036       -3.6088678796       -8.9566226694  CLST         227          1.0000000000
       681       227  TIP3  H2           11.3274956943       -3.4103563332      -10.4287972252  CLST         227          1.0000000000
       682       228  TIP3  OH2           3.4704017595       12.4513844858        3.2222499220  CLST         228          1.0000000000
       683       228  TIP3  H1            2.6907845107       12.1833406142        3.8481253867  CLST         228          1.0000000000
       684       228  TIP3  H2            3.0381239884       12.7093281150        2.4971427815  CLST         228          1.0000000000
       685       229  TIP3  OH2         -11.4045202995      -13.1205995416        2.9945990227  CLST         229          1.0000000000
       686       229  TIP3  H1          -11.6877525223      -13.6601406839        2.4095172856  CLST         229          1.0000000000
       687       229  TIP3  H2          -11.1508744928      -12.3502559029        2.3618839073  CLST         229          1.0000000000
       688       230  TIP3  OH2          12.3151631135        6.3939310687       -3.3754943022  CLST         230          1.0000000000
       689       230  TIP3  H1           13.3047085826        6.1995094788       -3.4359645343  CLST         230          1.0000000000
       690       230  TIP3  H2           12.0438375157        5.4645926675       -3.3346573593  CLST         230          1.0000000000
       691       231  TIP3  OH2           7.1504675259        3.3187193405        4.6815582913  CLST         231          1.0000000000
       692       231  TIP3  H1            7.5586714038        4.1968607168        4.8703868080  CLST         231          1.0000000000
       693       231  TIP3  H2            6.3058645955        3.6224725242        4.2186038159  CLST         231          1.0000000000
       694       232  TIP3  OH2         -10.3243580047        9.0322523457        7.5303045273  CLST         232          1.0000000000
       695       232  TIP3  H1          -10.8233657722        9.5725589056        8.2060666333  CLST         232          1.0000000000
       696       232  TIP3  H2          -10.2387081153        8.1595413244        8.0070454484  CLST         232          1.0000000000
       697       233  TIP3  OH2           3.6795670241       -5.2336627964        8.0020455742  CLST         233          1.0000000000
       698       233  TIP3  H1            4.2511952064       -5.6552016254        8.7297718568  CLST         233          1.0000000000
       699       233  TIP3  H2            3.5377811711       -4.3802425946        8.5629568989  CLST         233          1.0000000000
       700       234  TIP3  OH2          -3.5665245538        8.4600572789       -0.6875365646  CLST         234          1.0000000000
       701       234  TIP3  H1           -3.0117147666        8.2711391313       -1.4582993303  CLST         234          1.0000000000
       702       234  TIP3  H2           -3.6282918912        9.4888497090       -0.8809834756  CLST         234          1.0000000000
       703       235  TIP3  OH2          -1.9172990688       -4.1022413453       -8.9191778182  CLST         235          1.0000000000
       704       235  TIP3  H1           -1.7859639959       -4.9822827043       -9.3398482637  CLST         235          1.0000000000
       705       235  TIP3  H2           -0.9663178757       -3.8231184500       -8.9760789868  CLST         235          1.0000000000
       706       236  TIP3  OH2          -0.2158805205      -13.5633030958       -3.0686048358  CLST         236          1.0000000000
       707       236  TIP3  H1            0.3232514968      -12.8306884859       -2.7128124646  CLST         236          1.0000000000
       708       236  TIP3  H2           -0.8398070207      -13.6147598474       -2.3013529736  CLST         236          1.0000000000
       709       237  TIP3  OH2          -3.5867140722       -5.1713162437       10.9106611491  CLST         237          1.0000000000
       710       237  TIP3  H1           -4.5087302970       -4.8510781878       11.1213983543  CLST         237          1.0000000000
       711       237  TIP3  H2           -3.8504193452       -5.7591506374       10.1699873013  CLST         237          1.0000000000
       712       238  TIP3  OH2           0.5826268538        4.6377292263        7.3027896570  CLST         238          1.0000000000
       713       238  TIP3  H1           -0.0583454156        5.2529232992        6.8288474426  CLST         238          1.0000000000
       714       238  TIP3  H2            0.4626334197        5.0214000549        8.2164122516  CLST         238          1.0000000000
       715       239  TIP3  OH2         -14.1137324629        5.9833579418        3.5321498229  CLST         239          1.0000000000
       716       239  TIP3  H1          -14.1757768829        6.3558074170        2.6337561173  CLST         239          1.0000000000
       717       239  TIP3  H2          -13.4879271176        5.2877209621        3.3222303958  CLST         239          1.0000000000
       718       240  TIP3  OH2         -14.0998075371        8.9225858728       -0.2476833336  CLST         240          1.0000000000
       719       240  TIP3  H1          -14.7953348650        9.2245639008        0.3621004963  CLST         240          1.0000000000
       720       240  TIP3  H2          -14.0508287129        7.8504987528        0.0240003165  CLST         240          1.0000000000
       721       241  TIP3  OH2          -7.4926898762       -7.7009529394       -8.5645283799  CLST         241          1.0000000000
       722       241  TIP3  H1           -7.7948902631       -7.9621158647       -7.6447674848  CLST         241          1.0000000000
       723       241  TIP3  H2           -7.4569214091       -6.7133405884       -8.4451728992  CLST         241          1.0000000000
       724       242  TIP3  OH2           6.1299554319       -5.7431704657        9.6640302644  CLST         242          1.0000000000
       725       242  TIP3  H1            6.5615420397       -4.9191392478        9.3879815801  CLST         242          1.0000000000
       726       242  TIP3  H2            6.8965848220       -6.3581864931        9.4011306682  CLST         242          1.0000000000
       727       243  TIP3  OH2          -6.6412611112       -7.2442856089       -4.2026989562  CLST         243          1.0000000000
       728       243  TIP3  H1           -6.4265678848       -7.8995956604       -4.8984041554  CLST         243          1.0000000000
       729       243  TIP3  H2           -6.5040354482       -7.8526186555       -3.4182809186  CLST         243          1.0000000000
       730       244  TIP3  OH2           4.8009418340        5.8273559755        5.4626442049  CLST         244          1.0000000000
       731       244  TIP3  H1            4.9472514422        5.4485698017        4.5659984180  CLST         244          1.0000000000
       732       244  TIP3  H2            4.1034096152        5.1518237466        5.6567020555  CLST         244          1.0000000000
       733       245  TIP3  OH2          -7.1041645892        3.7255510313       -7.7793435917  CLST         245          1.0000000000
       734       245  TIP3  H1           -6.9867281858        3.0355792550       -7.0993412538  CLST         245          1.0000000000
       735       245  TIP3  H2           -7.4046133550        4.4270942190       -7.1657721044  CLST         245          1.0000000000
       736       246  TIP3  OH2           2.1135732386       -6.6217913063       -2.0102444601  CLST         246          1.0000000000
       737       246  TIP3  H1            1.8887269750       -5.8743826276       -2.6281625261  CLST         246          1.0000000000
       738       246  TIP3  H2            3.1291809286       -6.5244247088       -2.0973640780  CLST         246          1.0000000000
       739       247  TIP3  OH2           5.9648081365        8.0314883892        0.6901546232  CLST         247          1.0000000000
       740       247  TIP3  H1            6.4299595167        7.8204592708       -0.1421675506  CLST         247          1.0000000000
       741       247  TIP3  H2            5.4928636428        8.8691391856        0.4132232288  CLST         247          1.0000000000
       742       248  TIP3  OH2          -2.4649337857        8.3447397310      -11.8201458435  CLST         248          1.0000000000
       743       248  TIP3  H1           -1.5958394589        8.1097489176      -12.1973695251  CLST         248          1.0000000000
       744       248  TIP3  H2           -2.1503121251        9.1097087506      -11.2445130943  CLST         248          1.0000000000
       745       249  TIP3  OH2           8.9812624109        4.8313881349       -7.8191790372  CLST         249          1.0000000000
       746       249  TIP3  H1            8.4070788802        5.6113872420       -7.6802341086  CLST         249          1.0000000000
       747       249  TIP3  H2            8.5168120771        4.1871186893       -7.2059243999  CLST         249          1.0000000000
       748       250  TIP3  OH2          -7.5602313886        9.6708554302       -5.3562125801  CLST         250          1.0000000000
       749       250  TIP3  H1           -8.0899619139        8.9205094729       -5.6636525160  CLST         250          1.0000000000
       750       250  TIP3  H2           -7.4488785235       10.2622731189       -6.1227948363  CLST         250          1.0000000000
       751       251  TIP3  OH2          -3.5640893484       12.4012182770        3.0567781857  CLST         251          1.0000000000
       752       251  TIP3  H1           -3.3697233361       13.1455279022        2.7028066165  CLST         251          1.0000000000
       753       251  TIP3  H2           -2.9772363797       12.1538687356        3.8318580324  CLST         251          1.0000000000
       754       252  TIP3  OH2           5.9613565969        5.3653771613       14.5263379825  CLST         252          1.0000000000
       755       252  TIP3  H1            5.7064308863        6.3569675127       14.4906040593  CLST         252          1.0000000000
       756       252  TIP3  H2            5.5406557868        4.9590519102       15.1257805723  CLST         252          1.0000000000
       757       253  TIP3  OH2           6.1844296157       13.8310557411        3.1762993749  CLST         253          1.0000000000
       758       253  TIP3  H1            5.2948068467       13.5811673631        3.4422863778  CLST         253          1.0000000000
       759       253  TIP3  H2            6.2001062028       13.4198199158        2.2859186885  CLST         253          1.0000000000
       760       254  TIP3  OH2          -4.2008217654        8.1339885516        2.9996133052  CLST         254          1.0000000000
       761       254  TIP3  H1           -4.6871495492        8.6826782691        2.3270303518  CLST         254          1.0000000000
       762       254  TIP3  H2           -4.9775529054        7.6444655828        3.2881314654  CLST         254          1.0000000000
       763       255  TIP3  OH2          -7.0096458933       10.3036169798        4.2686148504  CLST         255          1.0000000000
       764       255  TIP3  H1           -7.9153043367       10.6818735579        4.2956788043  CLST         255          1.0000000000
       765       255  TIP3  H2           -7.0847857608        9.5604702708        4.9018576615  CLST         255          1.0000000000
       766       256  TIP3  OH2          11.5052746852        3.7023471096       -1.3824681512  CLST         256          1.0000000000
       767       256  TIP3  H1           11.9786010985        2.9326282758       -1.7761811751  CLST         256          1.0000000000
       768       256  TIP3  H2           11.4656500346        3.3671896120       -0.4688413813  CLST         256          1.0000000000
       769       257  TIP3  OH2          -8.5044738441       -1.3842881112       -4.9765635868  CLST         257          1.0000000000
       770       257  TIP3  H1           -7.6645694965       -0.9646825342       -4.6577412242  CLST         257          1.0000000000
       771       257  TIP3  H2           -8.4771558923       -1.1676458170       -5.9240271524  CLST         257          1.0000000000
       772       258  TIP3  OH2          -5.2247534403       10.2014294905        7.8170279530  CLST         258          1.0000000000
       773       258  TIP3  H1           -5.1884169575       10.7189112716        6.9751460999  CLST         258          1.0000000000
       774       258  TIP3  H2           -5.7161655149       10.8253947981        8.3594610461  CLST         258          1.0000000000
       775       259  TIP3  OH2          10.2051563552        6.0952129812        0.7734314675  CLST         259          1.0000000000
       776       259  TIP3  H1           11.1387305801        6.4649321537        0.6859250909  CLST         259          1.0000000000
       777       259  TIP3  H2           10.0610055200        6.3555306268        1.7032369956  CLST         259          1.0000000000
       778       260  TIP3  OH2          -4.9801481841        7.6427279337        8.8965613188  CLST         260          1.0000000000
       779       260  TIP3  H1           -4.9891466236        8.5367706666        8.4559432279  CLST         260          1.0000000000
       780       260  TIP3  H2           -5.7995410730        7.2356994188        8.5307351331  CLST         260          1.0000000000
       781       261  TIP3  OH2           0.9381873224       -4.4462937714       12.4883738086  CLST         261          1.0000000000
       782       261  TIP3  H1            0.4846276344       -5.3617940371       12.4908359840  CLST         261          1.0000000000
       783       261  TIP3  H2            1.6821674394       -4.5869724139       13.0916077864  CLST         261          1.0000000000
       784       262  TIP3  OH2         -11.0068637926        4.7361473480        6.0397156947  CLST         262          1.0000000000
       785       262  TIP3  H1          -10.1792039852        4.6694372624        5.4469929039  CLST         262          1.0000000000
       786       262  TIP3  H2          -11.6112390664        4.8548967819        5.2577161706  CLST         262          1.0000000000
       787       263  TIP3  OH2           1.7307899056        0.8611539319        6.6193569600  CLST         263          1.0000000000
       788       263  TIP3  H1            2.4555857247        1.4779035229        6.5210336839  CLST         263          1.0000000000
       789       263  TIP3  H2            2.3115534006        0.1294717722        6.9324377166  CLST         263          1.0000000000
       790       264  TIP3  OH2           5.1454748917       -4.3402363009       -9.5947944562  CLST         264          1.0000000000
       791       264  TIP3  H1            5.2003549960       -5.3285360541       -9.7825602964  CLST         264          1.0000000000
       792       264  TIP3  H2            4.2534053374       -4.2314873473      -10.0163121873  CLST         264          1.0000000000
       793       265  TIP3  OH2           7.6662686158        4.9083981734      -10.2291327783  CLST         265          1.0000000000
       794       265  TIP3  H1            7.7988886322        5.8692470183      -10.3422921875  CLST         265          1.0000000000
       795       265  TIP3  H2            8.3976220188        4.6977844184       -9.6066842006  CLST         265          1.0000000000
       796       266  TIP3  OH2          -7.9526795093       -8.8728349052        0.0184304723  CLST         266          1.0000000000
       797       266  TIP3  H1           -7.7123595443       -9.2191574550        0.9144252478  CLST         266          1.0000000000
       798       266  TIP3  H2           -8.2820463685       -8.0016211491        0.2024956615  CLST         266          1.0000000000
       799       267  TIP3  OH2           1.1708520307        2.6546610268       -5.1361157175  CLST         267          1.0000000000
       800       267  TIP3  H1            1.1896724915        3.5754493424       -4.7469914100  CLST         267          1.0000000000
       801       267  TIP3  H2            2.0506574875        2.3265048944       -4.9145345159  CLST         267          1.0000000000
       802       268  TIP3  OH2           5.1140388043       -4.5706871033       -6.9068531526  CLST         268          1.0000000000
       803       268  TIP3  H1            5.0817614800       -4.2501036443       -7.8592722886  CLST         268          1.0000000000
       804       268  TIP3  H2            4.7720694302       -5.4751316351       -6.9845499543  CLST         268          1.0000000000
       805       269  TIP3  OH2           5.5498828799       10.7825034130       -0.1008541677  CLST         269          1.0000000000
       806       269  TIP3  H1            6.4288329257       10.5865096758       -0.5007518358  CLST         269          1.0000000000
       807       269  TIP3  H2            5.8261546485       11.6284520150        0.3276039248  CLST         269          1.0000000000
       808       270  TIP3  OH2           1.1756762683        9.4264865552       -8.0092109107  CLST         270          1.0000000000
       809       270  TIP3  H1            1.2721461628        8.6106171847       -8.5162641333  CLST         270          1.0000000000
       810       270  TIP3  H2            0.7536370708        9.0486620844       -7.1598717823  CLST         270          1.0000000000
       811       271  TIP3  OH2          -6.4645209324       -9.0471064875       -2.1698263582  CLST         271          1.0000000000
       812       271  TIP3  H1           -5.6580568230       -8.9827360496       -1.6148348355  CLST         271          1.0000000000
       813       271  TIP3  H2           -7.0748077567       -8.9737252476       -1.3773902568  CLST         271          1.0000000000
       814       272  TIP3  OH2           9.3606861765       -8.2205146977        5.7375289084  CLST         272          1.0000000000
       815       272  TIP3  H1            8.3543137680       -8.3264595665        5.8582256134  CLST         272          1.0000000000
       816       272  TIP3  H2            9.4420499576       -7.6582876995        4.9378111640  CLST         272          1.0000000000
       817       273  TIP3  OH2         -13.8777722154        9.4859286822        3.1960494701  CLST         273          1.0000000000
       818       273  TIP3  H1          -14.4636469970        9.7406637140        3.9902281375  CLST         273          1.0000000000
       819       273  TIP3  H2          -13.4277427296        8.7569631744        3.7048591476  CLST         273          1.0000000000
       820       274  TIP3  OH2           4.1279856029       12.9937261174       -4.1025986115  CLST         274          1.0000000000
       821       274  TIP3  H1            3.7760561832       12.4351682843       -2.6005070919  CLST         274          1.0000000000
       822       274  TIP3  H2            3.8622665463       13.5769084041       -3.2689197444  CLST         274          1.0000000000
       823       275  TIP3  OH2           8.7986701611      -11.3534346797        5.8913765090  CLST         275          1.0000000000
       824       275  TIP3  H1            9.4457441241      -10.6486687164        5.9143417463  CLST         275          1.0000000000
       825       275  TIP3  H2            9.3233863909      -12.1014228175        5.5296480554  CLST         275          1.0000000000
       826       276  TIP3  OH2          -0.2683458304       -5.8081709225        1.3999124061  CLST         276          1.0000000000
       827       276  TIP3  H1           -0.9194758714       -6.0684218526        0.7064103718  CLST         276          1.0000000000
       828       276  TIP3  H2           -0.8670753347       -5.1602868434        1.8585150794  CLST         276          1.0000000000
       829       277  TIP3  OH2           6.6229741523        6.4589033786       -6.9438613346  CLST         277          1.0000000000
       830       277  TIP3  H1            5.7659240983        6.1625510491       -7.3161940848  CLST         277          1.0000000000
       831       277  TIP3  H2            6.7657277930        7.3175160881       -7.3914369681  CLST         277          1.0000000000
       832       278  TIP3  OH2          -0.6985736515       -7.5031442548        3.4901529180  CLST         278          1.0000000000
       833       278  TIP3  H1           -0.4587936803       -6.9346077860        2.6711397926  CLST         278          1.0000000000
       834       278  TIP3  H2           -0.8715384898       -6.7497849579        4.1136023351  CLST         278          1.0000000000
       835       279  TIP3  OH2         -13.6351297051        6.4038322244        0.3354033461  CLST         279          1.0000000000
       836       279  TIP3  H1          -13.7597994973        5.4967031506        0.0284748405  CLST         279          1.0000000000
       837       279  TIP3  H2          -12.6769898848        6.4358634303        0.6038476170  CLST         279          1.0000000000
       838       280  TIP3  OH2          -3.1568922044      -10.0993979314        5.4993776468  CLST         280          1.0000000000
       839       280  TIP3  H1           -2.6827538798       -9.4572530654        6.0794491784  CLST         280          1.0000000000
       840       280  TIP3  H2           -3.8155009701       -9.4351485377        5.1230487579  CLST         280          1.0000000000
       841       281  TIP3  OH2           8.1100292752        7.8082042756      -10.5740706371  CLST         281          1.0000000000
       842       281  TIP3  H1            8.5023383615        8.7223869521      -10.6383166977  CLST         281          1.0000000000
       843       281  TIP3  H2            7.1464564632        8.0518281194      -10.5209147936  CLST         281          1.0000000000
       844       282  TIP3  OH2          -7.7089967308      -11.8011097070       10.0780677545  CLST         282          1.0000000000
       845       282  TIP3  H1           -8.5493540429      -11.5725794812        9.7456567496  CLST         282          1.0000000000
       846       282  TIP3  H2           -7.2784529446      -12.3065647643        9.4054440154  CLST         282          1.0000000000
       847       283  TIP3  OH2           4.5297586800        8.4996783631       -4.7398121672  CLST         283          1.0000000000
       848       283  TIP3  H1            4.7317037013        9.4759004242       -4.8653501044  CLST         283          1.0000000000
       849       283  TIP3  H2            4.0304684342        8.5572685292       -3.8714871005  CLST         283          1.0000000000
       850       284  TIP3  OH2          12.0431492975        8.2685369316       -1.4166611762  CLST         284          1.0000000000
       851       284  TIP3  H1           12.0365031048        7.4306493797       -1.9956608053  CLST         284          1.0000000000
       852       284  TIP3  H2           11.1847718119        8.6203349462       -1.6534688811  CLST         284          1.0000000000
       853       285  TIP3  OH2          -5.3937250425        2.0023019570        8.7520366997  CLST         285          1.0000000000
       854       285  TIP3  H1           -4.7214603427        1.7367126137        8.0772699414  CLST         285          1.0000000000
       855       285  TIP3  H2           -4.8053874161        2.6396070616        9.2419012988  CLST         285          1.0000000000
       856       286  TIP3  OH2           3.0160957667        5.8335609357       -0.4874843668  CLST         286          1.0000000000
       857       286  TIP3  H1            2.1795445089        5.5147510024       -0.0712190462  CLST         286          1.0000000000
       858       286  TIP3  H2            3.6324946355        5.7036580402        0.2733137885  CLST         286          1.0000000000
       859       287  TIP3  OH2          -4.3058474729        9.2331217892       11.2099482239  CLST         287          1.0000000000
       860       287  TIP3  H1           -4.7898037236       10.0118161571       11.5811224442  CLST         287          1.0000000000
       861       287  TIP3  H2           -5.0451018316        8.7738847583       10.7604878014  CLST         287          1.0000000000
       862       288  TIP3  OH2           5.6581473308        3.4329028579       -9.5088509555  CLST         288          1.0000000000
       863       288  TIP3  H1            5.5453949845        2.6862800312      -10.0269233438  CLST         288          1.0000000000
       864       288  TIP3  H2            6.4957743562        3.9566636814       -9.8763138885  CLST         288          1.0000000000
       865       289  TIP3  OH2          -7.1548614000       -5.0440691396       -8.2634161425  CLST         289          1.0000000000
       866       289  TIP3  H1           -7.9623214207       -4.4473188819       -8.2621979809  CLST         289          1.0000000000
       867       289  TIP3  H2           -6.6008646676       -4.6346127754       -7.6723527567  CLST         289          1.0000000000
       868       290  TIP3  OH2           2.1999545040      -11.8801347247       11.1272565565  CLST         290          1.0000000000
       869       290  TIP3  H1            2.9048775907      -12.5141894088       10.9493124055  CLST         290          1.0000000000
       870       290  TIP3  H2            2.7318400322      -11.3600133107       11.7720653429  CLST         290          1.0000000000
       871       291  TIP3  OH2         -10.3067839508       -3.5239777658        2.9161030993  CLST         291          1.0000000000
       872       291  TIP3  H1          -11.0202657096       -4.1271032582        3.2820940513  CLST         291          1.0000000000
       873       291  TIP3  H2          -10.2879478013       -3.9009218134        2.0386179031  CLST         291          1.0000000000
       874       292  TIP3  OH2          12.1339997693        3.5276045266       -4.6228057704  CLST         292          1.0000000000
       875       292  TIP3  H1           11.2490060270        3.0911680616       -4.5921704320  CLST         292          1.0000000000
       876       292  TIP3  H2           11.9271363234        4.1989932368       -5.3321598758  CLST         292          1.0000000000
       877       293  TIP3  OH2           8.9245914737       10.7437843159       11.1470238494  CLST         293          1.0000000000
       878       293  TIP3  H1            8.5305296601       11.5117968180       11.4996403007  CLST         293          1.0000000000
       879       293  TIP3  H2            9.1534947888       11.1438568244       10.2444387218  CLST         293          1.0000000000
       880       294  TIP3  OH2           4.1462017736        4.4991555598       -2.4294907466  CLST         294          1.0000000000
       881       294  TIP3  H1            3.7086295445        5.0282054964       -1.7151887486  CLST         294          1.0000000000
       882       294  TIP3  H2            4.2905003768        5.0862571279       -3.1934465175  CLST         294          1.0000000000
       883       295  TIP3  OH2          -2.3922061210      -13.4296048750       -8.7719112258  CLST         295          1.0000000000
       884       295  TIP3  H1           -3.1543122323      -13.3253994471       -8.1761680326  CLST         295          1.0000000000
       885       295  TIP3  H2           -1.7460582239      -13.7759188397       -8.1465663740  CLST         295          1.0000000000
       886       296  TIP3  OH2          -1.5854898579       11.5226278146      -12.9912975558  CLST         296          1.0000000000
       887       296  TIP3  H1           -0.6464153844       11.2547163155      -13.1675703092  CLST         296          1.0000000000
       888       296  TIP3  H2           -1.6828469994       11.2404627760      -12.0360184794  CLST         296          1.0000000000
       889       297  TIP3  OH2           8.1267710455       -0.5245097495       11.3473407388  CLST         297          1.0000000000
       890       297  TIP3  H1            8.7050585216       -1.2607618325       11.0078881214  CLST         297          1.0000000000
       891       297  TIP3  H2            7.3490012124       -1.0816315983       11.4600657765  CLST         297          1.0000000000
       892       298  TIP3  OH2           1.0434435495       -1.2442336202       -7.4947676307  CLST         298          1.0000000000
       893       298  TIP3  H1            1.4581437396       -0.5939812204       -8.1292562586  CLST         298          1.0000000000
       894       298  TIP3  H2            0.8913276622       -2.0021031001       -8.1329639526  CLST         298          1.0000000000
       895       299  TIP3  OH2           2.9168254311       10.3706169214       12.6959523092  CLST         299          1.0000000000
       896       299  TIP3  H1            2.1713808155       10.7918232806       12.1657701036  CLST         299          1.0000000000
       897       299  TIP3  H2            2.4087090289        9.5672251122       12.7524281471  CLST         299          1.0000000000
       898       300  TIP3  OH2         -10.8431286424        5.2460345663       -3.7210826662  CLST         300          1.0000000000
       899       300  TIP3  H1          -10.8871633801        5.5989341153       -4.6426683049  CLST         300          1.0000000000
       900       300  TIP3  H2          -10.8848697030        6.1553739598       -3.2915533812  CLST         300          1.0000000000
       901       301  TIP3  OH2           9.6506051321       -8.3657810988       11.2063730121  CLST         301          1.0000000000
       902       301  TIP3  H1            9.4054623168       -7.9719990816       12.0620594315  CLST         301          1.0000000000
       903       301  TIP3  H2            9.6602612365       -9.3491266929       11.4564308479  CLST         301          1.0000000000
       904       302  TIP3  OH2           7.8394935509       12.8562572972        5.6455548072  CLST         302          1.0000000000
       905       302  TIP3  H1            7.3302017045       13.3682291281        4.9709503030  CLST         302          1.0000000000
       906       302  TIP3  H2            7.1226921492       12.2115803647        5.8408757196  CLST         302          1.0000000000
       907       303  TIP3  OH2         -11.0028001446        1.1781614241       -2.0253631452  CLST         303          1.0000000000
       908       303  TIP3  H1          -10.0863274643        0.9077823492       -1.8037597781  CLST         303          1.0000000000
       909       303  TIP3  H2          -11.1125144283        0.6120581605       -2.8472174085  CLST         303          1.0000000000
       910       304  TIP3  OH2          -7.9176610067        1.1980143403      -15.0577540620  CLST         304          1.0000000000
       911       304  TIP3  H1           -7.4413847831        0.4338846128      -14.6087975219  CLST         304          1.0000000000
       912       304  TIP3  H2           -7.2606592316        1.4781135601      -15.6638755656  CLST         304          1.0000000000
       913       305  TIP3  OH2           3.3777368584       -3.9556704807       13.9884175011  CLST         305          1.0000000000
       914       305  TIP3  H1            4.2695597337       -4.2020220217       13.7029805487  CLST         305          1.0000000000
       915       305  TIP3  H2            3.3784215186       -3.0343846905       13.6708812396  CLST         305          1.0000000000
       916       306  TIP3  OH2           8.7898537137      -11.9325634987      -11.2813657517  CLST         306          1.0000000000
       917       306  TIP3  H1            9.4913580351      -11.7776302346      -11.9919765530  CLST         306          1.0000000000
       918       306  TIP3  H2            8.9853615310      -12.7918500631      -11.0750163328  CLST         306          1.0000000000
       919       307  TIP3  OH2           9.3053343862        7.7329713694       -7.4557901132  CLST         307          1.0000000000
       920       307  TIP3  H1            8.5918908264        8.2933585826       -7.7524421465  CLST         307          1.0000000000
       921       307  TIP3  H2            9.6466434815        8.1433659810       -6.6217047009  CLST         307          1.0000000000
       922       308  TIP3  OH2         -10.8460288036       -4.8867725908        8.7540750995  CLST         308          1.0000000000
       923       308  TIP3  H1          -10.8353727040       -5.7440073505        9.3217857624  CLST         308          1.0000000000
       924       308  TIP3  H2           -9.9157788694       -4.6304352876        8.9601094772  CLST         308          1.0000000000
       925       309  TIP3  OH2          -1.9615459031       -0.5708159613        5.5546947993  CLST         309          1.0000000000
       926       309  TIP3  H1           -2.7836734972       -1.0058464665        5.1665653407  CLST         309          1.0000000000
       927       309  TIP3  H2           -1.9372780022       -1.2059599019        6.3743931863  CLST         309          1.0000000000
       928       310  TIP3  OH2          -5.0929403565       -0.6962360762        7.2169113041  CLST         310          1.0000000000
       929       310  TIP3  H1           -4.2944803705       -0.2007732597        7.5014737412  CLST         310          1.0000000000
       930       310  TIP3  H2           -5.1054958638       -1.3706386604        7.9392869047  CLST         310          1.0000000000
       931       311  TIP3  OH2          -7.4234715592        8.3433263516      -12.3993962508  CLST         311          1.0000000000
       932       311  TIP3  H1           -6.8390840061        7.5874631444      -12.7488210657  CLST         311          1.0000000000
       933       311  TIP3  H2           -7.2159210015        8.3087492484      -11.4439050380  CLST         311          1.0000000000
       934       312  TIP3  OH2           6.4894124074       -0.9274898820       -6.3253083138  CLST         312          1.0000000000
       935       312  TIP3  H1            6.2453061784       -0.2641101403       -5.6358902386  CLST         312          1.0000000000
       936       312  TIP3  H2            6.1852990428       -1.7540538338       -5.9193298052  CLST         312          1.0000000000
       937       313  TIP3  OH2          -8.9739898025      -10.5212295191        7.1534696135  CLST         313          1.0000000000
       938       313  TIP3  H1           -8.4162222543       -9.6855015677        7.0605777953  CLST         313          1.0000000000
       939       313  TIP3  H2           -9.3038228777      -10.5556279689        6.2340439712  CLST         313          1.0000000000
       940       314  TIP3  OH2          -1.3448684258      -12.1626648088      -10.8512423546  CLST         314          1.0000000000
       941       314  TIP3  H1           -1.2163200188      -11.3409731804      -10.3266560644  CLST         314          1.0000000000
       942       314  TIP3  H2           -1.7230080612      -12.7089419809      -10.0713381565  CLST         314          1.0000000000
       943       315  TIP3  OH2          -1.2858173146       -0.5829110602       -6.4870420419  CLST         315          1.0000000000
       944       315  TIP3  H1           -0.3815038045       -0.8874009739       -6.7747519225  CLST         315          1.0000000000
       945       315  TIP3  H2           -1.1103782551       -0.2439200751       -5.5337394778  CLST         315          1.0000000000
       946       316  TIP3  OH2         -13.1316482592       -3.8676180211       -5.5133657465  CLST         316          1.0000000000
       947       316  TIP3  H1          -12.3471411503       -4.3529050569       -5.8443591378  CLST         316          1.0000000000
       948       316  TIP3  H2          -12.8198426798       -3.0215688141       -5.8434574771  CLST         316          1.0000000000
       949       317  TIP3  OH2          -6.2572344342        0.0425710585       -3.7140649168  CLST         317          1.0000000000
       950       317  TIP3  H1           -5.4294546037       -0.0504719927       -3.1199573091  CLST         317          1.0000000000
       951       317  TIP3  H2           -6.7739820827        0.5080254107       -2.9968920273  CLST         317          1.0000000000
       952       318  TIP3  OH2          -3.8728050993       -9.6718002827       -9.3945365112  CLST         318          1.0000000000
       953       318  TIP3  H1           -4.0396728117       -9.8331069086       -8.4285823657  CLST         318          1.0000000000
       954       318  TIP3  H2           -2.8828139195       -9.7326764741       -9.3139647631  CLST         318          1.0000000000
       955       319  TIP3  OH2           5.6221186657       10.8124457791        8.5949769741  CLST         319          1.0000000000
       956       319  TIP3  H1            6.3811597016       10.2510165439        8.3506859326  CLST         319          1.0000000000
       957       319  TIP3  H2            6.0188441551       11.4338228291        9.1991249458  CLST         319          1.0000000000
       958       320  TIP3  OH2         -10.6792785227        1.0469370411      -14.5155625417  CLST         320          1.0000000000
       959       320  TIP3  H1           -9.7975485596        1.3448428555      -14.8353546249  CLST         320          1.0000000000
       960       320  TIP3  H2          -10.2962005488        0.2286310299      -14.1035770405  CLST         320          1.0000000000
       961       321  TIP3  OH2          -9.7099794486       10.3964395353       -9.8008873116  CLST         321          1.0000000000
       962       321  TIP3  H1          -10.6029092939       10.0833649574       -9.7497253810  CLST         321          1.0000000000
       963       321  TIP3  H2           -9.5640660484       10.2694277875      -10.7792683094  CLST         321          1.0000000000
       964       322  TIP3  OH2         -12.5352882361       -1.8302721972       -2.2654512682  CLST         322          1.0000000000
       965       322  TIP3  H1          -12.1807128646       -1.2802374763       -3.0115251361  CLST         322          1.0000000000
       966       322  TIP3  H2          -11.6419919667       -2.0427894927       -1.8680769788  CLST         322          1.0000000000
       967       323  TIP3  OH2          -1.1279503530        4.0095517091        4.3772665412  CLST         323          1.0000000000
       968       323  TIP3  H1           -0.8571353259        3.0693008566        4.5820845885  CLST         323          1.0000000000
       969       323  TIP3  H2           -0.9158028378        4.0196709661        3.4184616911  CLST         323          1.0000000000
       970       324  TIP3  OH2         -10.9098447427        6.3928128368        1.4190373632  CLST         324          1.0000000000
       971       324  TIP3  H1          -11.0901525820        5.5924917990        1.9825285542  CLST         324          1.0000000000
       972       324  TIP3  H2          -10.1544585924        6.7606672396        1.9773969123  CLST         324          1.0000000000
       973       325  TIP3  OH2          -4.7052560713        0.7737716011        3.6230865723  CLST         325          1.0000000000
       974       325  TIP3  H1           -5.7202774977        0.7365260846        3.6123490125  CLST         325          1.0000000000
       975       325  TIP3  H2           -4.6285269706        1.6815439448        3.3878428063  CLST         325          1.0000000000
       976       326  TIP3  OH2           9.0228056069        8.6389907601       -2.8038134669  CLST         326          1.0000000000
       977       326  TIP3  H1            8.6008612429        7.8057285800       -2.4583964303  CLST         326          1.0000000000
       978       326  TIP3  H2            8.4558231542        8.7008505837       -3.6189242390  CLST         326          1.0000000000
       979       327  TIP3  OH2          10.3919135508       -3.8275172993      -13.0294095730  CLST         327          1.0000000000
       980       327  TIP3  H1           10.0744935575       -3.4972263479      -13.8359280600  CLST         327          1.0000000000
       981       327  TIP3  H2           10.0734205251       -3.1113075919      -12.3854101670  CLST         327          1.0000000000
       982       328  TIP3  OH2           2.1715948834        7.0861144748       -9.7325326174  CLST         328          1.0000000000
       983       328  TIP3  H1            2.0777724403        6.1330096860       -9.6019550349  CLST         328          1.0000000000
       984       328  TIP3  H2            3.1601750607        7.1030549384       -9.7174568265  CLST         328          1.0000000000
       985       329  TIP3  OH2           1.4559973626      -11.6645030398       -2.3140341675  CLST         329          1.0000000000
       986       329  TIP3  H1            1.6465257626      -10.7241827824       -2.6609030188  CLST         329          1.0000000000
       987       329  TIP3  H2            2.2446382513      -11.6325123914       -1.7083863753  CLST         329          1.0000000000
       988       330  TIP3  OH2          -9.4817638266       -0.9090514249        3.4772505174  CLST         330          1.0000000000
       989       330  TIP3  H1           -9.7737668626       -1.8199038636        3.2714520005  CLST         330          1.0000000000
       990       330  TIP3  H2          -10.2433159597       -0.5856139548        3.9639014252  CLST         330          1.0000000000
       991       331  TIP3  OH2          12.2609924325        9.7939155335       -9.1756543552  CLST         331          1.0000000000
       992       331  TIP3  H1           12.9623601218        9.9105978633       -9.7098309397  CLST         331          1.0000000000
       993       331  TIP3  H2           12.1190859999        8.8257534941       -9.0971350714  CLST         331          1.0000000000
       994       332  TIP3  OH2          11.3787516431       -1.2663372454       -4.4875961679  CLST         332          1.0000000000
       995       332  TIP3  H1           12.1686046732       -1.6736076841       -5.0473787282  CLST         332          1.0000000000
       996       332  TIP3  H2           11.9245314150       -0.5836019876       -4.0730106327  CLST         332          1.0000000000
       997       333  TIP3  OH2          10.5662516288      -14.2083280273        8.0277908844  CLST         333          1.0000000000
       998       333  TIP3  H1            9.6326269554      -14.1592957735        8.1856591066  CLST         333          1.0000000000
       999       333  TIP3  H2           10.6735202552      -14.2338580756        7.0878665679  CLST         333          1.0000000000
      1000       334  TIP3  OH2         -10.6310852199       -9.7440533539        9.1255063938  CLST         334          1.0000000000
      1001       334  TIP3  H1          -11.5088940690       -9.9125497788        8.6751354305  CLST         334          1.0000000000
      1002       334  TIP3  H2          -10.0812511356      -10.1043377366        8.3804275308  CLST         334          1.0000000000
      1003       335  TIP3  OH2           6.8607881782       -9.9281417499        1.5147261280  CLST         335          1.0000000000
      1004       335  TIP3  H1            6.8646863607      -10.1584130092        2.4855724212  CLST         335          1.0000000000
      1005       335  TIP3  H2            5.8873698687       -9.7906123294        1.4320837763  CLST         335          1.0000000000
      1006       336  TIP3  OH2          -9.2647102836       -3.6887389724       -3.6091388944  CLST         336          1.0000000000
      1007       336  TIP3  H1           -9.2309106293       -4.3759950079       -4.2705437101  CLST         336          1.0000000000
      1008       336  TIP3  H2           -8.8671171154       -2.9366369512       -4.1160563295  CLST         336          1.0000000000
      1009       337  TIP3  OH2          -1.5337675814       -4.8542043366        8.1134076216  CLST         337          1.0000000000
      1010       337  TIP3  H1           -1.2152189492       -4.6081856752        9.0253591740  CLST         337          1.0000000000
      1011       337  TIP3  H2           -1.8017933925       -3.8909840855        7.8985075187  CLST         337          1.0000000000
      1012       338  TIP3  OH2          -0.6387908739        2.7829737159       10.7312045430  CLST         338          1.0000000000
      1013       338  TIP3  H1           -0.7198453537        2.6274008953        9.7502548895  CLST         338          1.0000000000
      1014       338  TIP3  H2            0.0684223987        2.1512489078       10.8830502930  CLST         338          1.0000000000
      1015       339  TIP3  OH2           7.8611296022        7.9361993082        2.7955253112  CLST         339          1.0000000000
      1016       339  TIP3  H1            7.5052705261        8.5696137235        3.4845231316  CLST         339          1.0000000000
      1017       339  TIP3  H2            7.2341693383        7.9942940345        2.0528462094  CLST         339          1.0000000000
      1018       340  TIP3  OH2          -4.6617586087      -11.6693112513      -11.2223991004  CLST         340          1.0000000000
      1019       340  TIP3  H1           -4.3542942954      -10.9659792227      -10.5839242379  CLST         340          1.0000000000
      1020       340  TIP3  H2           -4.1909222231      -12.4251818143      -10.8581619471  CLST         340          1.0000000000
      1021       341  TIP3  OH2          -6.7483658510        4.6957231969        9.4505528598  CLST         341          1.0000000000
      1022       341  TIP3  H1           -5.8065898149        4.5245465552        9.7136062344  CLST         341          1.0000000000
      1023       341  TIP3  H2           -7.0307141834        3.7930424788        9.2736080748  CLST         341          1.0000000000
      1024       342  TIP3  OH2          -4.4167503253      -11.0837085280       13.7892971803  CLST         342          1.0000000000
      1025       342  TIP3  H1           -5.1278035193      -11.0658707843       13.0624086332  CLST         342          1.0000000000
      1026       342  TIP3  H2           -4.8726446713      -11.0145998405       14.5376476453  CLST         342          1.0000000000
      1027       343  TIP3  OH2           1.3898651676       -8.9885496282       -9.8640468224  CLST         343          1.0000000000
      1028       343  TIP3  H1            1.3442699547       -8.0497864276      -10.2169508769  CLST         343          1.0000000000
      1029       343  TIP3  H2            1.8606799935       -9.4434670686      -10.5872532597  CLST         343          1.0000000000
      1030       344  TIP3  OH2           5.5562428690       -3.9528772350        6.4151713475  CLST         344          1.0000000000
      1031       344  TIP3  H1            4.9327165706       -4.5501043393        6.8969826988  CLST         344          1.0000000000
      1032       344  TIP3  H2            6.0708791324       -4.5913619857        5.8509784047  CLST         344          1.0000000000
      1033       345  TIP3  OH2          13.0882350745        7.3287749798        8.7646379898  CLST         345          1.0000000000
      1034       345  TIP3  H1           12.5793612035        6.6385296751        8.3008818899  CLST         345          1.0000000000
      1035       345  TIP3  H2           12.4848639236        7.4192669831        9.5710976392  CLST         345          1.0000000000
      1036       346  TIP3  OH2           9.5104721007        9.2736634817        0.8904674522  CLST         346          1.0000000000
      1037       346  TIP3  H1            9.7388517823       10.0557316032        1.4711786647  CLST         346          1.0000000000
      1038       346  TIP3  H2            9.1041109885        8.7173586160        1.6055812580  CLST         346          1.0000000000
      1039       347  TIP3  OH2          -5.1422195291        2.9880971141       -9.7535870467  CLST         347          1.0000000000
      1040       347  TIP3  H1           -5.9256582596        3.3858961205       -9.3061120866  CLST         347          1.0000000000
      1041       347  TIP3  H2           -4.5637264081        2.9284903450       -8.9716755364  CLST         347          1.0000000000
      1042       348  TIP3  OH2          -1.1819979448        6.2028499724        5.8125412395  CLST         348          1.0000000000
      1043       348  TIP3  H1           -1.3869732962        5.3197555351        5.3138251738  CLST         348          1.0000000000
      1044       348  TIP3  H2           -0.5937230079        6.5156042486        5.0486615700  CLST         348          1.0000000000
      1045       349  TIP3  OH2          -4.1090493872        5.1478766702       -2.4566237353  CLST         349          1.0000000000
      1046       349  TIP3  H1           -3.8064814960        4.8936032622       -3.3533440292  CLST         349          1.0000000000
      1047       349  TIP3  H2           -3.5244556555        5.9818128841       -2.4387825649  CLST         349          1.0000000000
      1048       350  TIP3  OH2          -2.7266639905        9.0189470543        5.1374799841  CLST         350          1.0000000000
      1049       350  TIP3  H1           -3.2730521564        8.6758535533        4.3721407021  CLST         350          1.0000000000
      1050       350  TIP3  H2           -2.3921040040        8.2080349021        5.5330687198  CLST         350          1.0000000000
      1051       351  TIP3  OH2           4.7697230624       -7.6469004277       -7.6919205994  CLST         351          1.0000000000
      1052       351  TIP3  H1            4.0809535715       -8.3501268829       -7.7149262532  CLST         351          1.0000000000
      1053       351  TIP3  H2            4.7451571861       -7.4258108519       -8.6804000240  CLST         351          1.0000000000
      1054       352  TIP3  OH2         -10.4512564740      -11.1233883703        1.6898446229  CLST         352          1.0000000000
      1055       352  TIP3  H1           -9.4921726490      -11.1473977849        1.5344382198  CLST         352          1.0000000000
      1056       352  TIP3  H2          -10.7205342994      -10.3595974448        1.1668699427  CLST         352          1.0000000000
      1057       353  TIP3  OH2          10.7349783684       -8.0744295484       -8.5581911948  CLST         353          1.0000000000
      1058       353  TIP3  H1            9.7867582585       -8.3122310312       -8.7808700240  CLST         353          1.0000000000
      1059       353  TIP3  H2           10.6582169758       -8.3504300965       -7.6164292548  CLST         353          1.0000000000
      1060       354  TIP3  OH2           6.9814220764      -10.5036319454        4.0732144003  CLST         354          1.0000000000
      1061       354  TIP3  H1            7.6462076313      -10.8316571754        4.7476078529  CLST         354          1.0000000000
      1062       354  TIP3  H2            6.7416498991       -9.6470293493        4.5110921559  CLST         354          1.0000000000
      1063       355  TIP3  OH2          -7.2221812128        9.0764195688       -8.8748985351  CLST         355          1.0000000000
      1064       355  TIP3  H1           -6.6616933666        9.8612477742       -8.7217565833  CLST         355          1.0000000000
      1065       355  TIP3  H2           -8.0460014844        9.4903557728       -9.2131013647  CLST         355          1.0000000000
      1066       356  TIP3  OH2          12.5263996289        1.0954147578       -2.0783292798  CLST         356          1.0000000000
      1067       356  TIP3  H1           11.5715790449        0.7891805885       -2.2508244505  CLST         356          1.0000000000
      1068       356  TIP3  H2           12.6128474063        0.8118982620       -1.1505472317  CLST         356          1.0000000000
      1069       357  TIP3  OH2          -0.5848640892       -0.4634428041       -1.9711542654  CLST         357          1.0000000000
      1070       357  TIP3  H1            0.1931008105       -0.9558649823       -2.3272138411  CLST         357          1.0000000000
      1071       357  TIP3  H2           -0.8617141857       -0.1148723232       -2.8826511847  CLST         357          1.0000000000
      1072       358  TIP3  OH2          -5.5236907176        7.0230226711       -7.6366378460  CLST         358          1.0000000000
      1073       358  TIP3  H1           -6.1461765623        7.4939798469       -8.2127000297  CLST         358          1.0000000000
      1074       358  TIP3  H2           -6.1884010107        6.5303142978       -7.0876356208  CLST         358          1.0000000000
      1075       359  TIP3  OH2          -5.1107627793       12.0395188973        6.0142804763  CLST         359          1.0000000000
      1076       359  TIP3  H1           -5.4120589361       11.6369077107        5.1811852842  CLST         359          1.0000000000
      1077       359  TIP3  H2           -4.1493347252       12.1819705503        5.7707741352  CLST         359          1.0000000000
      1078       360  TIP3  OH2          -6.9152720809        5.7828688170       -3.3118340085  CLST         360          1.0000000000
      1079       360  TIP3  H1           -7.1996995495        6.4337238746       -2.6437057797  CLST         360          1.0000000000
      1080       360  TIP3  H2           -5.9807656903        5.6208644775       -3.0087100985  CLST         360          1.0000000000
      1081       361  TIP3  OH2          -1.5693568911       -1.0463697001       10.0032597582  CLST         361          1.0000000000
      1082       361  TIP3  H1           -1.4111959105       -0.5564617029       10.8582060967  CLST         361          1.0000000000
      1083       361  TIP3  H2           -1.6450433883       -1.9529638926       10.4561347947  CLST         361          1.0000000000
      1084       362  TIP3  OH2         -10.6031315913        2.9043896566        0.6712945554  CLST         362          1.0000000000
      1085       362  TIP3  H1          -10.3786492797        3.5810005652       -0.0076835449  CLST         362          1.0000000000
      1086       362  TIP3  H2          -11.3375225988        2.4218617256        0.2344471379  CLST         362          1.0000000000
      1087       363  TIP3  OH2          10.4545253228        2.4845630222       10.3403652302  CLST         363          1.0000000000
      1088       363  TIP3  H1           10.6676242950        1.4970265362       10.0307772412  CLST         363          1.0000000000
      1089       363  TIP3  H2           11.2653153107        2.8569919045       10.3045224996  CLST         363          1.0000000000
      1090       364  TIP3  OH2           7.6456311868       -5.6084226071       -6.1786109314  CLST         364          1.0000000000
      1091       364  TIP3  H1            6.8460514452       -5.2003782614       -6.5969243754  CLST         364          1.0000000000
      1092       364  TIP3  H2            8.2637508566       -5.4419044217       -6.9666031739  CLST         364          1.0000000000
      1093       365  TIP3  OH2          -6.1615964305       -6.8258267069        2.6217000723  CLST         365          1.0000000000
      1094       365  TIP3  H1           -6.7241069961       -6.0476342347        2.5152907689  CLST         365          1.0000000000
      1095       365  TIP3  H2           -6.9112475258       -7.4513069807        2.8839963142  CLST         365          1.0000000000
      1096       366  TIP3  OH2           1.8395584188       -1.4311294158       -2.9265633554  CLST         366          1.0000000000
      1097       366  TIP3  H1            2.7845454562       -1.3888259245       -2.5452907206  CLST         366          1.0000000000
      1098       366  TIP3  H2            2.0488607317       -1.0048545999       -3.8010183761  CLST         366          1.0000000000
      1099       367  TIP3  OH2          -5.2281525225       11.6313634926       12.3265143374  CLST         367          1.0000000000
      1100       367  TIP3  H1           -6.2250339993       11.7672381395       11.8337553122  CLST         367          1.0000000000
      1101       367  TIP3  H2           -5.3038085406       12.0609149709       13.0706136482  CLST         367          1.0000000000
      1102       368  TIP3  OH2          -2.7661949099        6.3958779384        1.1509168790  CLST         368          1.0000000000
      1103       368  TIP3  H1           -2.7217732900        7.0987306207        0.4620071880  CLST         368          1.0000000000
      1104       368  TIP3  H2           -3.0553163758        6.9474387961        1.9018706998  CLST         368          1.0000000000
      1105       369  TIP3  OH2         -11.6156285183       -1.7925821115       -6.4103791904  CLST         369          1.0000000000
      1106       369  TIP3  H1          -10.7533552256       -2.2545108796       -6.2855137265  CLST         369          1.0000000000
      1107       369  TIP3  H2          -11.7514988569       -2.0652683932       -7.3551522463  CLST         369          1.0000000000
      1108       370  TIP3  OH2         -11.9870223719        5.5187074715      -11.7389094998  CLST         370          1.0000000000
      1109       370  TIP3  H1          -12.4059702907        4.8170124518      -12.3988098619  CLST         370          1.0000000000
      1110       370  TIP3  H2          -12.6289593900        5.8441896750      -11.2829995282  CLST         370          1.0000000000
      1111       371  TIP3  OH2           2.1248060191        7.8432287336        5.7690292162  CLST         371          1.0000000000
      1112       371  TIP3  H1            1.8850531380        7.5325721972        6.6729504088  CLST         371          1.0000000000
      1113       371  TIP3  H2            3.0996152667        7.7981244184        5.7616139795  CLST         371          1.0000000000
      1114       372  TIP3  OH2           8.1747238067       -7.3731205644        9.1495682371  CLST         372          1.0000000000
      1115       372  TIP3  H1            8.7670992677       -7.3079486306        8.3781697323  CLST         372          1.0000000000
      1116       372  TIP3  H2            8.7917269270       -7.8325145444        9.8048990531  CLST         372          1.0000000000
      1117       373  TIP3  OH2          11.1010852069       -0.3608893960        6.5122180116  CLST         373          1.0000000000
      1118       373  TIP3  H1           11.2515132045        0.4139984683        5.8847881280  CLST         373          1.0000000000
      1119       373  TIP3  H2           10.2134252699       -0.5134869247        6.1287612675  CLST         373          1.0000000000
      1120       374  TIP3  OH2          -9.3962957368        4.7053760249      -12.3546812176  CLST         374          1.0000000000
      1121       374  TIP3  H1           -9.3481964277        5.6450493769      -12.5714543802  CLST         374          1.0000000000
      1122       374  TIP3  H2          -10.3371704072        4.8047455007      -12.0568151860  CLST         374          1.0000000000
      1123       375  TIP3  OH2           9.8278603636       -5.6269898184       -2.7403673461  CLST         375          1.0000000000
      1124       375  TIP3  H1           10.3696034341       -5.2883093128       -3.4928949796  CLST         375          1.0000000000
      1125       375  TIP3  H2           10.0730223492       -6.5745887148       -2.7843549644  CLST         375          1.0000000000
      1126       376  TIP3  OH2          -2.2941311067      -11.1464708527       12.1023414813  CLST         376          1.0000000000
      1127       376  TIP3  H1           -2.8723432477      -11.3587685250       12.8862228247  CLST         376          1.0000000000
      1128       376  TIP3  H2           -2.9715741600      -11.2483692586       11.4111358435  CLST         376          1.0000000000
      1129       377  TIP3  OH2         -10.0907401852       12.8930047018       10.4531949111  CLST         377          1.0000000000
      1130       377  TIP3  H1           -9.1490939072       12.6104735652       10.6336167086  CLST         377          1.0000000000
      1131       377  TIP3  H2           -9.9003347613       13.4745081446        9.6555939214  CLST         377          1.0000000000
      1132       378  TIP3  OH2           2.1461491483       -8.0252757246        7.2950505384  CLST         378          1.0000000000
      1133       378  TIP3  H1            2.0999814605       -7.0679715147        7.3655428619  CLST         378          1.0000000000
      1134       378  TIP3  H2            1.4203393548       -8.3805308500        7.8315132151  CLST         378          1.0000000000
      1135       379  TIP3  OH2          -9.5058470191        9.3391852454       -1.0717776333  CLST         379          1.0000000000
      1136       379  TIP3  H1           -9.0204375755        9.4711477777       -0.2525375269  CLST         379          1.0000000000
      1137       379  TIP3  H2           -9.7090453790       10.1977577809       -1.4444512826  CLST         379          1.0000000000
      1138       380  TIP3  OH2           2.9139913763       -4.2375374320      -11.2713049523  CLST         380          1.0000000000
      1139       380  TIP3  H1            2.4698420217       -3.4034338696      -11.6754598255  CLST         380          1.0000000000
      1140       380  TIP3  H2            3.3798357017       -4.4962461572      -12.0982890955  CLST         380          1.0000000000
      1141       381  TIP3  OH2          10.1532904312        4.2744220469        3.3902601155  CLST         381          1.0000000000
      1142       381  TIP3  H1            9.5127958074        4.9216240523        3.8532372302  CLST         381          1.0000000000
      1143       381  TIP3  H2           10.9109898229        4.9160011167        3.3909761844  CLST         381          1.0000000000
      1144       382  TIP3  OH2           2.0021933501       -5.3745939160        5.7402485651  CLST         382          1.0000000000
      1145       382  TIP3  H1            2.6445209566       -5.2361473564        6.4788639881  CLST         382          1.0000000000
      1146       382  TIP3  H2            2.5967671669       -5.9782663408        5.2223312749  CLST         382          1.0000000000
      1147       383  TIP3  OH2          10.2780609796        8.9605525877        4.8329221752  CLST         383          1.0000000000
      1148       383  TIP3  H1            9.4240784421        9.0706500641        4.3748854858  CLST         383          1.0000000000
      1149       383  TIP3  H2           10.4311521661        9.9356842983        4.9950194182  CLST         383          1.0000000000
      1150       384  TIP3  OH2          -3.2918567989       -1.8289563973       -8.2137590545  CLST         384          1.0000000000
      1151       384  TIP3  H1           -2.7499167267       -2.6836753020       -8.2866031548  CLST         384          1.0000000000
      1152       384  TIP3  H2           -2.6396229210       -1.3993919237       -7.5809298301  CLST         384          1.0000000000
      1153       385  TIP3  OH2           3.6833056079      -11.8552620561       -0.6802481418  CLST         385          1.0000000000
      1154       385  TIP3  H1            4.5991384403      -12.2980363778       -0.4971594183  CLST         385          1.0000000000
      1155       385  TIP3  H2            3.8819357054      -10.9760144520       -0.2016589299  CLST         385          1.0000000000
      1156       386  TIP3  OH2          -4.3614541581        9.4453681770       -6.0872833128  CLST         386          1.0000000000
      1157       386  TIP3  H1           -4.5812277738        8.5409267577       -6.3711306415  CLST         386          1.0000000000
      1158       386  TIP3  H2           -4.3053121244        9.7942470988       -6.9955025346  CLST         386          1.0000000000
      1159       387  TIP3  OH2          -9.9491467180       10.7156188944        2.8032103829  CLST         387          1.0000000000
      1160       387  TIP3  H1          -10.7159092172       10.4098367899        2.3034222817  CLST         387          1.0000000000
      1161       387  TIP3  H2           -9.2367568156       10.4479715764        2.1585169672  CLST         387          1.0000000000
      1162       388  TIP3  OH2          -1.7362676222      -12.3871471719        6.0601024260  CLST         388          1.0000000000
      1163       388  TIP3  H1           -2.0916268412      -11.5549038073        5.6804420064  CLST         388          1.0000000000
      1164       388  TIP3  H2           -1.8887457550      -12.1951318607        7.0235376749  CLST         388          1.0000000000
      1165       389  TIP3  OH2          -8.1375177396        3.3936609580       -3.5089378454  CLST         389          1.0000000000
      1166       389  TIP3  H1           -7.6128225261        4.1958317433       -3.3456438249  CLST         389          1.0000000000
      1167       389  TIP3  H2           -9.0259745300        3.7551174588       -3.5137847395  CLST         389          1.0000000000
      1168       390  TIP3  OH2          -5.8902670192       -4.0425226438        4.6606123922  CLST         390          1.0000000000
      1169       390  TIP3  H1           -5.4927712478       -3.1167731768        4.6600517272  CLST         390          1.0000000000
      1170       390  TIP3  H2           -5.1198816625       -4.4718732128        4.2889962307  CLST         390          1.0000000000
      1171       391  TIP3  OH2          -8.7323532424       -8.8015050339       -6.2030352145  CLST         391          1.0000000000
      1172       391  TIP3  H1           -9.1078849591       -9.4911299100       -6.7692324874  CLST         391          1.0000000000
      1173       391  TIP3  H2           -8.0497300387       -9.3412552781       -5.7680522122  CLST         391          1.0000000000
      1174       392  TIP3  OH2           1.0843517348       -1.9440930853       10.1159312003  CLST         392          1.0000000000
      1175       392  TIP3  H1            0.6029701534       -2.8127874521       10.2175624655  CLST         392          1.0000000000
      1176       392  TIP3  H2            0.2853552831       -1.3968338322        9.9163206324  CLST         392          1.0000000000
      1177       393  TIP3  OH2          10.9235625053      -12.1849998169       -0.6965823497  CLST         393          1.0000000000
      1178       393  TIP3  H1           11.3606353324      -11.2296253315       -0.7361690672  CLST         393          1.0000000000
      1179       393  TIP3  H2           11.6205442064      -12.7373364622       -1.0560731721  CLST         393          1.0000000000
      1180       394  TIP3  OH2           0.5131387522       11.7602399955       -8.6528926076  CLST         394          1.0000000000
      1181       394  TIP3  H1            0.8420457636       12.1371992709       -7.8164638155  CLST         394          1.0000000000
      1182       394  TIP3  H2            0.7047490373       10.8082275927       -8.4027152673  CLST         394          1.0000000000
      1183       395  TIP3  OH2           6.9805640557        7.5946975211       -4.5677513261  CLST         395          1.0000000000
      1184       395  TIP3  H1            6.1016102544        8.0805435163       -4.5725828178  CLST         395          1.0000000000
      1185       395  TIP3  H2            6.8436911188        7.0880316924       -5.4057754574  CLST         395          1.0000000000
      1186       396  TIP3  OH2          -1.1021947971      -10.0481350582       -9.0922452919  CLST         396          1.0000000000
      1187       396  TIP3  H1           -1.0625616707       -9.9554607131       -8.0746274674  CLST         396          1.0000000000
      1188       396  TIP3  H2           -0.2281360237       -9.6049893629       -9.2393802059  CLST         396          1.0000000000
      1189       397  TIP3  OH2          11.3924209925        7.2702808008       -9.0596950307  CLST         397          1.0000000000
      1190       397  TIP3  H1           11.5661717663        6.4734822783       -8.5426546651  CLST         397          1.0000000000
      1191       397  TIP3  H2           10.5210272489        7.5065136959       -8.6142399945  CLST         397          1.0000000000
      1192       398  TIP3  OH2          10.7279738105        7.8845141710       -4.8522854131  CLST         398          1.0000000000
      1193       398  TIP3  H1           10.2715629552        8.3095158486       -4.0483427342  CLST         398          1.0000000000
      1194       398  TIP3  H2           11.3464560255        7.3673400676       -4.2680702610  CLST         398          1.0000000000
      1195       399  TIP3  OH2           1.9146562199       11.2073354404        4.8723166644  CLST         399          1.0000000000
      1196       399  TIP3  H1            1.1443551458       10.6122415581        5.0959308150  CLST         399          1.0000000000
      1197       399  TIP3  H2            2.4261134530       11.0654188059        5.7043413706  CLST         399          1.0000000000
      1198       400  TIP3  OH2           4.0795040688       -3.0124851425       -5.0601001534  CLST         400          1.0000000000
      1199       400  TIP3  H1            4.8307410037       -3.0526936440       -4.4558412909  CLST         400          1.0000000000
      1200       400  TIP3  H2            4.3846403227       -3.6373798713       -5.8077112472  CLST         400          1.0000000000
      1201       401  TIP3  OH2         -15.1009547003       10.0296544628        5.4127845354  CLST         401          1.0000000000
      1202       401  TIP3  H1          -14.5532011602       10.4681586854        6.0887767842  CLST         401          1.0000000000
      1203       401  TIP3  H2          -15.6465691819        9.4712606715        5.9742806042  CLST         401          1.0000000000
      1204       402  TIP3  OH2           1.7358091703       -1.6004520709       12.6812126702  CLST         402          1.0000000000
      1205       402  TIP3  H1            1.4303150189       -2.4972623705       12.8756011673  CLST         402          1.0000000000
      1206       402  TIP3  H2            1.7682301731       -1.6939468491       11.6875933090  CLST         402          1.0000000000
      1207       403  TIP3  OH2          -2.0410721597       -6.9778563257       -0.5996845133  CLST         403          1.0000000000
      1208       403  TIP3  H1           -2.0290888073       -6.9437576558       -1.6096320556  CLST         403          1.0000000000
      1209       403  TIP3  H2           -1.6062348765       -8.3811689465       -1.9838767876  CLST         403          1.0000000000
      1210       404  TIP3  OH2          -4.9370672324       -2.5575318399        9.1594069247  CLST         404          1.0000000000
      1211       404  TIP3  H1           -5.2307039304       -2.9048900119       10.0516906128  CLST         404          1.0000000000
      1212       404  TIP3  H2           -5.3662632603       -3.3117284021        8.6155282074  CLST         404          1.0000000000
      1213       405  TIP3  OH2         -12.0094248995        7.3052985948       11.4116265963  CLST         405          1.0000000000
      1214       405  TIP3  H1          -11.8014989279        6.3715697970       11.1342251045  CLST         405          1.0000000000
      1215       405  TIP3  H2          -12.8236637151        7.0863275070       11.7767450352  CLST         405          1.0000000000
      1216       406  TIP3  OH2           1.0641340687        7.8331094269      -12.2239857559  CLST         406          1.0000000000
      1217       406  TIP3  H1            1.2207188766        8.8491375150      -12.3989065217  CLST         406          1.0000000000
      1218       406  TIP3  H2            1.5151059216        7.8129905719      -11.3018238513  CLST         406          1.0000000000
      1219       407  TIP3  OH2          10.4448688458      -13.1619541551        5.0491367589  CLST         407          1.0000000000
      1220       407  TIP3  H1           10.3920807051      -13.1988824219        4.1114658326  CLST         407          1.0000000000
      1221       407  TIP3  H2           11.2175936041      -12.5090508140        5.2167808969  CLST         407          1.0000000000
      1222       408  TIP3  OH2          -2.9699593169      -11.6961693892        1.8983295319  CLST         408          1.0000000000
      1223       408  TIP3  H1           -2.1407533849      -11.1190476537        1.9611925874  CLST         408          1.0000000000
      1224       408  TIP3  H2           -2.4699951905      -12.5065779969        2.2617810032  CLST         408          1.0000000000
      1225       409  TIP3  OH2           1.0764618526       -9.5156254099        9.7536322183  CLST         409          1.0000000000
      1226       409  TIP3  H1            0.7176275129       -9.1480729503       10.5951652421  CLST         409          1.0000000000
      1227       409  TIP3  H2            1.5488803676      -10.2533837653       10.2197628046  CLST         409          1.0000000000
      1228       410  TIP3  OH2           9.9610605896       -7.1869805511       -5.2918965524  CLST         410          1.0000000000
      1229       410  TIP3  H1            9.0356758480       -6.8961771599       -5.4071567397  CLST         410          1.0000000000
      1230       410  TIP3  H2           10.3435335485       -6.3718147685       -5.6436295388  CLST         410          1.0000000000
      1231       411  TIP3  OH2          -9.9219514985       -2.3819740914       -1.5427091904  CLST         411          1.0000000000
      1232       411  TIP3  H1           -9.2329334116       -2.1942452675       -0.9168487180  CLST         411          1.0000000000
      1233       411  TIP3  H2           -9.6652273291       -2.9711126070       -2.2710750835  CLST         411          1.0000000000
      1234       412  TIP3  OH2           6.7270451013      -10.4991916974      -11.9275449558  CLST         412          1.0000000000
      1235       412  TIP3  H1            6.0090789267      -10.8482203473      -11.3337589162  CLST         412          1.0000000000
      1236       412  TIP3  H2            7.4997563889      -11.0823171407      -11.6580720479  CLST         412          1.0000000000
      1237       413  TIP3  OH2           7.1253603049       13.0594008990        0.3295364225  CLST         413          1.0000000000
      1238       413  TIP3  H1            7.5847955153       12.4134794686       -0.2134929998  CLST         413          1.0000000000
      1239       413  TIP3  H2            7.9107322589       13.4819129285        0.7586432815  CLST         413          1.0000000000
      1240       414  TIP3  OH2           1.5435194073       -2.4726805306      -12.4403677849  CLST         414          1.0000000000
      1241       414  TIP3  H1            0.6350605240       -2.1235869134      -12.2359130077  CLST         414          1.0000000000
      1242       414  TIP3  H2            1.6076091922       -2.7147075203      -13.3705557800  CLST         414          1.0000000000
      1243       415  TIP3  OH2           4.1650741277        5.2383306981       -8.2509043848  CLST         415          1.0000000000
      1244       415  TIP3  H1            3.5147487528        4.5450265031       -7.9940134034  CLST         415          1.0000000000
      1245       415  TIP3  H2            4.8072171904        4.5698395198       -8.6973739884  CLST         415          1.0000000000
      1246       416  TIP3  OH2           5.6427912287       12.2868704967       -7.8522744914  CLST         416          1.0000000000
      1247       416  TIP3  H1            5.4222641835       13.2120482349       -7.8335990417  CLST         416          1.0000000000
      1248       416  TIP3  H2            6.5619594306       12.2395082781       -8.2022877118  CLST         416          1.0000000000
      1249       417  TIP3  OH2          12.5882905121      -11.1242931550        2.7461990170  CLST         417          1.0000000000
      1250       417  TIP3  H1           11.7824445518      -11.5510888836        2.3636198528  CLST         417          1.0000000000
      1251       417  TIP3  H2           12.6709358510      -10.2905364078        2.2601018186  CLST         417          1.0000000000
      1252       418  TIP3  OH2          -9.1546105012       -1.5992491776        8.2984793673  CLST         418          1.0000000000
      1253       418  TIP3  H1           -8.7059546993       -1.2030436421        7.5152797267  CLST         418          1.0000000000
      1254       418  TIP3  H2           -8.9381378226       -0.8676881570        8.9120538063  CLST         418          1.0000000000
      1255       419  TIP3  OH2          14.8681087448        0.1222812470       -6.2065331626  CLST         419          1.0000000000
      1256       419  TIP3  H1           15.1334079461        1.3565303402       -4.2634428151  CLST         419          1.0000000000
      1257       419  TIP3  H2           15.2887605475        1.2959455300       -5.6168615708  CLST         419          1.0000000000
      1258       420  TIP3  OH2          -8.2268218038       -8.1858582654        3.7282057749  CLST         420          1.0000000000
      1259       420  TIP3  H1           -9.0356162012       -7.7495754292        3.3131424728  CLST         420          1.0000000000
      1260       420  TIP3  H2           -8.5988101194       -9.1087827203        3.6808258918  CLST         420          1.0000000000
      1261       421  TIP3  OH2           3.5836355740       -6.2248836786      -13.2950186748  CLST         421          1.0000000000
      1262       421  TIP3  H1            4.5074335485       -6.5534695824      -13.1612906389  CLST         421          1.0000000000
      1263       421  TIP3  H2            3.1443508983       -7.1281421506      -13.4350584115  CLST         421          1.0000000000
      1264       422  TIP3  OH2          -1.7162811308       -9.4671734801       -1.8328040801  CLST         422          1.0000000000
      1265       422  TIP3  H1           -1.0982449552      -10.2027134563       -2.1075162090  CLST         422          1.0000000000
      1266       422  TIP3  H2           -2.5608475889      -10.0573225967       -1.7552351206  CLST         422          1.0000000000
      1267       423  TIP3  OH2           1.6254033836        4.9421227930       -3.9532761736  CLST         423          1.0000000000
      1268       423  TIP3  H1            2.4450236119        5.2414411407       -4.4542199096  CLST         423          1.0000000000
      1269       423  TIP3  H2            2.0430301851        4.4557130078       -3.2018986324  CLST         423          1.0000000000
      1270       424  TIP3  OH2          -9.0069617621        4.4289303135        4.3344342779  CLST         424          1.0000000000
      1271       424  TIP3  H1           -8.8853332686        3.7275304729        3.6965114548  CLST         424          1.0000000000
      1272       424  TIP3  H2           -8.1908743888        4.9334969345        4.3760933869  CLST         424          1.0000000000
      1273       425  TIP3  OH2           8.0147986846      -12.7104273314        8.4529723214  CLST         425          1.0000000000
      1274       425  TIP3  H1            8.3628465006      -12.4665174868        7.5938403102  CLST         425          1.0000000000
      1275       425  TIP3  H2            7.2432190012      -12.1372172604        8.4461108953  CLST         425          1.0000000000
      1276       426  TIP3  OH2           8.3170722543        2.3156885944        8.1446857775  CLST         426          1.0000000000
      1277       426  TIP3  H1            9.0730353522        2.0631145243        8.7235956906  CLST         426          1.0000000000
      1278       426  TIP3  H2            8.3864899445        3.3007181059        8.1267406288  CLST         426          1.0000000000
      1279       427  TIP3  OH2          11.4478228916        7.5097476853       10.8467605536  CLST         427          1.0000000000
      1280       427  TIP3  H1           11.3246524893        7.8092459881       11.7660942818  CLST         427          1.0000000000
      1281       427  TIP3  H2           10.5830189833        6.9933882765       10.7335181462  CLST         427          1.0000000000
      1282       428  TIP3  OH2          12.4941775738        7.5475075198        1.0414785773  CLST         428          1.0000000000
      1283       428  TIP3  H1           12.3003182548        8.0640842955        0.1670673319  CLST         428          1.0000000000
      1284       428  TIP3  H2           13.4341541349        7.6974958211        1.0360546121  CLST         428          1.0000000000
      1285       429  TIP3  OH2          11.8540791697       -9.8958911517       -0.8308273958  CLST         429          1.0000000000
      1286       429  TIP3  H1           12.2406852836       -9.4092201841       -0.0763041452  CLST         429          1.0000000000
      1287       429  TIP3  H2           11.6341216052       -9.1888463891       -1.4710026217  CLST         429          1.0000000000
      1288       430  TIP3  OH2           9.9154771027       -6.6716690123        3.6459734930  CLST         430          1.0000000000
      1289       430  TIP3  H1            9.8972109274       -7.1426153550        2.7528857671  CLST         430          1.0000000000
      1290       430  TIP3  H2           10.9102012712       -6.4976331569        3.5955328772  CLST         430          1.0000000000
      1291       431  TIP3  OH2         -12.8790719663        9.3114678406       -2.5395561971  CLST         431          1.0000000000
      1292       431  TIP3  H1          -13.7592787624        9.5154524522       -2.8764570549  CLST         431          1.0000000000
      1293       431  TIP3  H2          -13.7991259495        9.0706466469       -0.9445358037  CLST         431          1.0000000000
      1294       432  TIP3  OH2           5.4312888024        8.5866185787      -10.0006675121  CLST         432          1.0000000000
      1295       432  TIP3  H1            5.7843380692        8.9520087305       -9.1383357769  CLST         432          1.0000000000
      1296       432  TIP3  H2            4.6095194541        9.1924071131      -10.0655180969  CLST         432          1.0000000000
      1297       433  TIP3  OH2          -0.6668319632        8.0647849075        7.7273169650  CLST         433          1.0000000000
      1298       433  TIP3  H1           -1.4873875060        8.4317980417        8.1095838560  CLST         433          1.0000000000
      1299       433  TIP3  H2           -1.0109846947        7.4453477405        7.0555035412  CLST         433          1.0000000000
      1300       434  TIP3  OH2          -7.3336390938        0.7260193139        3.7032070932  CLST         434          1.0000000000
      1301       434  TIP3  H1           -7.7058619395        1.4162966796        3.0514305653  CLST         434          1.0000000000
      1302       434  TIP3  H2           -8.0142330146        0.0110393470        3.5324806582  CLST         434          1.0000000000
      1303       435  TIP3  OH2           9.9673402301       -0.5140392503       -7.2247112124  CLST         435          1.0000000000
      1304       435  TIP3  H1            9.7902208007       -0.7059339228       -6.2724991167  CLST         435          1.0000000000
      1305       435  TIP3  H2           10.6293592020        0.1802202023       -7.2395307149  CLST         435          1.0000000000
      1306       436  TIP3  OH2           3.6458828681       10.5083596860       -9.0977446825  CLST         436          1.0000000000
      1307       436  TIP3  H1            4.2209134436       11.0991433533       -8.5411978433  CLST         436          1.0000000000
      1308       436  TIP3  H2            2.8702657442       10.3387566022       -8.5530301144  CLST         436          1.0000000000
      1309       437  TIP3  OH2          -8.3328793337       -0.9362146922       -8.0471547821  CLST         437          1.0000000000
      1310       437  TIP3  H1           -8.4848934287       -0.4710125448       -8.8959128877  CLST         437          1.0000000000
      1311       437  TIP3  H2           -7.3943827153       -0.6489355557       -7.9391737188  CLST         437          1.0000000000
      1312       438  TIP3  OH2          -3.3810902719        5.4603960859       -8.1105246049  CLST         438          1.0000000000
      1313       438  TIP3  H1           -4.2196248796        6.0196517208       -7.9354068004  CLST         438          1.0000000000
      1314       438  TIP3  H2           -3.3838064107        5.7351434803       -9.0994270680  CLST         438          1.0000000000
      1315       439  TIP3  OH2          14.2293040067        1.6793016536       -4.1213446602  CLST         439          1.0000000000
      1316       439  TIP3  H1           13.4980340987        2.4306800255       -4.2381866204  CLST         439          1.0000000000
      1317       439  TIP3  H2           13.7655328727        1.4432356694       -3.2212951332  CLST         439          1.0000000000
      1318       440  TIP3  OH2           1.1686428735      -12.8548172449      -11.2299898885  CLST         440          1.0000000000
      1319       440  TIP3  H1            0.1505809539      -12.6433073554      -11.2254893434  CLST         440          1.0000000000
      1320       440  TIP3  H2            1.2668192044      -13.6059400348      -11.5959134685  CLST         440          1.0000000000
      1321       441  TIP3  OH2          -1.5514966235       -4.2862087199        3.0953479211  CLST         441          1.0000000000
      1322       441  TIP3  H1           -1.8817461744       -3.4688314197        3.1525812009  CLST         441          1.0000000000
      1323       441  TIP3  H2           -1.3236233147       -4.6096293306        4.0172940096  CLST         441          1.0000000000
      1324       442  TIP3  OH2           3.1914530248       -9.7456028420       -7.9821673978  CLST         442          1.0000000000
      1325       442  TIP3  H1            3.7972287287      -10.2096647370       -8.6110504255  CLST         442          1.0000000000
      1326       442  TIP3  H2            2.4416542847       -9.5226993893       -8.5846657346  CLST         442          1.0000000000
      1327       443  TIP3  OH2           1.2862800302       10.3976662760      -12.8489128602  CLST         443          1.0000000000
      1328       443  TIP3  H1            1.7360385631       12.0247734840      -11.7635289847  CLST         443          1.0000000000
      1329       443  TIP3  H2            1.7246265044       10.7323435522      -13.7348242835  CLST         443          1.0000000000
      1330       444  TIP3  OH2          -8.0327158616        1.3997322086       -1.8664823685  CLST         444          1.0000000000
      1331       444  TIP3  H1           -8.0657962532        2.2358780229       -2.4590116321  CLST         444          1.0000000000
      1332       444  TIP3  H2           -7.5543878971        1.8970043968       -1.1481390556  CLST         444          1.0000000000
      1333       445  TIP3  OH2         -11.4324877492       -5.2701118859        6.1193558121  CLST         445          1.0000000000
      1334       445  TIP3  H1          -11.4743581156       -4.2941451490        5.8647952868  CLST         445          1.0000000000
      1335       445  TIP3  H2          -11.2800693691       -5.1524565669        7.0836700539  CLST         445          1.0000000000
      1336       446  TIP3  OH2          -2.8995666052        4.6947462325       -5.1885367107  CLST         446          1.0000000000
      1337       446  TIP3  H1           -3.0621068295        4.9515129488       -6.1334388737  CLST         446          1.0000000000
      1338       446  TIP3  H2           -2.0340462626        5.1755518382       -5.1375910748  CLST         446          1.0000000000
      1339       447  TIP3  OH2          -5.1337944184      -12.6295707537       -3.8410910770  CLST         447          1.0000000000
      1340       447  TIP3  H1           -5.4971489629      -13.4071927048       -3.4221751590  CLST         447          1.0000000000
      1341       447  TIP3  H2           -4.6738206842      -12.2925462905       -3.0191011008  CLST         447          1.0000000000
      1342       448  TIP3  OH2           7.2781532260        9.5364502908        4.7215913603  CLST         448          1.0000000000
      1343       448  TIP3  H1            7.4031093477        9.5269643023        5.7404852381  CLST         448          1.0000000000
      1344       448  TIP3  H2            6.5296833140       10.2334130134        4.7945518472  CLST         448          1.0000000000
      1345       449  TIP3  OH2           4.2572094356        5.1472355751        8.4599729395  CLST         449          1.0000000000
      1346       449  TIP3  H1            4.8942823039        4.5772066283        8.9903619478  CLST         449          1.0000000000
      1347       449  TIP3  H2            4.0511339067        4.5586698264        7.7063696872  CLST         449          1.0000000000
      1348       450  TIP3  OH2          -4.1712231213        0.4755939878       -2.1345059928  CLST         450          1.0000000000
      1349       450  TIP3  H1           -3.8002438601        1.2680890430       -2.5217633816  CLST         450          1.0000000000
      1350       450  TIP3  H2           -3.3610994477        0.0386125017       -1.8412633823  CLST         450          1.0000000000
      1351       451  TIP3  OH2          13.5302648826       -1.9248420901       -5.8116522099  CLST         451          1.0000000000
      1352       451  TIP3  H1           14.0478222641       -1.2304923411       -5.7726987162  CLST         451          1.0000000000
      1353       451  TIP3  H2           14.1778364293       -0.3827102825       -6.6146254774  CLST         451          1.0000000000
      1354       452  TIP3  OH2           8.4561159319        5.0678836184        8.0839183891  CLST         452          1.0000000000
      1355       452  TIP3  H1            7.7067722926        5.7050407503        7.8317240209  CLST         452          1.0000000000
      1356       452  TIP3  H2            9.1323631571        5.5786608236        7.5731715712  CLST         452          1.0000000000
      1357       453  TIP3  OH2           7.1288896006        2.6351052504       -6.1267300512  CLST         453          1.0000000000
      1358       453  TIP3  H1            6.3090837576        2.3714538096       -5.6497630692  CLST         453          1.0000000000
      1359       453  TIP3  H2            6.8216728834        2.3732549295       -7.0257760256  CLST         453          1.0000000000
      1360       454  TIP3  OH2           1.1776753748        5.4755225113        1.9507282395  CLST         454          1.0000000000
      1361       454  TIP3  H1            0.2436267854        5.1807751943        1.8068759482  CLST         454          1.0000000000
      1362       454  TIP3  H2            0.9257605948        6.2262008409        2.5698137559  CLST         454          1.0000000000
      1363       455  TIP3  OH2          -1.1789570973        0.8782819552      -10.3617278244  CLST         455          1.0000000000
      1364       455  TIP3  H1           -1.5772824445        1.0690474429       -9.4957435018  CLST         455          1.0000000000
      1365       455  TIP3  H2           -0.9268165938        1.8281092645      -10.5376289232  CLST         455          1.0000000000
      1366       456  TIP3  OH2           5.3624982502       11.3170263933        5.1980870373  CLST         456          1.0000000000
      1367       456  TIP3  H1            4.7618430724       11.4760479523        4.4282442267  CLST         456          1.0000000000
      1368       456  TIP3  H2            4.6706222889       11.2596699461        5.9263082487  CLST         456          1.0000000000
      1369       457  TIP3  OH2          -4.9143300899       -7.6887614631        4.8759294240  CLST         457          1.0000000000
      1370       457  TIP3  H1           -5.6914973674       -7.7947261523        5.4636204878  CLST         457          1.0000000000
      1371       457  TIP3  H2           -5.2899598143       -7.2205272406        4.0905697351  CLST         457          1.0000000000
      1372       458  TIP3  OH2           7.9764238330       -6.4259962421      -11.2305640744  CLST         458          1.0000000000
      1373       458  TIP3  H1            8.9598325588       -6.3357976498      -11.4529159058  CLST         458          1.0000000000
      1374       458  TIP3  H2            7.8053554642       -5.5025980752      -10.9363011521  CLST         458          1.0000000000
      1375       459  TIP3  OH2           6.5631695362       -9.9849752910       -7.8835252287  CLST         459          1.0000000000
      1376       459  TIP3  H1            6.1052464728       -9.1897790470       -7.5482476646  CLST         459          1.0000000000
      1377       459  TIP3  H2            7.2594050864       -9.5270610554       -8.4671129202  CLST         459          1.0000000000
      1378       460  TIP3  OH2           9.1237062143       -2.1438713884       -2.7752179933  CLST         460          1.0000000000
      1379       460  TIP3  H1            9.6869355149       -2.7548502378       -2.2665717239  CLST         460          1.0000000000
      1380       460  TIP3  H2            9.8196346288       -1.6721227765       -3.2727220153  CLST         460          1.0000000000
      1381       461  TIP3  OH2          -1.3953857606      -12.9034824782       -5.3642988520  CLST         461          1.0000000000
      1382       461  TIP3  H1           -0.6628817399      -13.0429840190       -6.0050826199  CLST         461          1.0000000000
      1383       461  TIP3  H2           -0.9071727602      -13.1688159302       -4.4945553532  CLST         461          1.0000000000
      1384       462  TIP3  OH2          -0.0366020775        5.5589042002      -12.7637395844  CLST         462          1.0000000000
      1385       462  TIP3  H1            0.4160487336        6.4836513342      -12.5809044306  CLST         462          1.0000000000
      1386       462  TIP3  H2            0.6526391358        5.2015701632      -13.1698851269  CLST         462          1.0000000000
      1387       463  TIP3  OH2          -1.8375574736        1.8559974806       -7.7191875365  CLST         463          1.0000000000
      1388       463  TIP3  H1           -1.6181864342        0.9651702690       -7.2784688787  CLST         463          1.0000000000
      1389       463  TIP3  H2           -2.8223641365        1.8535594348       -7.4744351931  CLST         463          1.0000000000
      1390       464  TIP3  OH2          -6.7491701813        6.3065099177        4.3758925632  CLST         464          1.0000000000
      1391       464  TIP3  H1           -6.1258048490        5.7838127888        4.7600478620  CLST         464          1.0000000000
      1392       464  TIP3  H2           -7.1598172014        6.8643896959        5.1462340935  CLST         464          1.0000000000
      1393       465  TIP3  OH2          -4.6009557662      -12.5031619095        6.2429641336  CLST         465          1.0000000000
      1394       465  TIP3  H1           -3.7462025191      -12.9652609781        6.0295766244  CLST         465          1.0000000000
      1395       465  TIP3  H2           -4.1814628094      -11.5942312170        6.3240752557  CLST         465          1.0000000000
      1396       466  TIP3  OH2          -2.3788453295        9.1938156629       -4.1379966553  CLST         466          1.0000000000
      1397       466  TIP3  H1           -3.0157740062        9.3182204445       -4.8254165240  CLST         466          1.0000000000
      1398       466  TIP3  H2           -2.6617551193        9.9688156721       -3.3700741059  CLST         466          1.0000000000
      1399       467  TIP3  OH2           8.2161533659        5.9669237000        4.6649452533  CLST         467          1.0000000000
      1400       467  TIP3  H1            8.5562859717        6.5773652339        5.3653975216  CLST         467          1.0000000000
      1401       467  TIP3  H2            7.9386451045        6.6054185943        3.9536980584  CLST         467          1.0000000000
      1402       468  TIP3  OH2          -0.5080015326      -12.4049259598       10.4238344209  CLST         468          1.0000000000
      1403       468  TIP3  H1           -0.9614665775      -11.9602006268       11.1691392528  CLST         468          1.0000000000
      1404       468  TIP3  H2            0.4280525646      -12.2360133771       10.6179450821  CLST         468          1.0000000000
      1405       469  TIP3  OH2           5.5455950007        8.2896146217       14.2434131415  CLST         469          1.0000000000
      1406       469  TIP3  H1            6.3800010593        8.4239276231       13.7529196482  CLST         469          1.0000000000
      1407       469  TIP3  H2            5.0612567992        8.9827777656       13.7968656234  CLST         469          1.0000000000
      1408       470  TIP3  OH2         -11.3154796435       12.9299025372        0.5955722899  CLST         470          1.0000000000
      1409       470  TIP3  H1          -11.0049687007       12.7260956472       -0.2344149457  CLST         470          1.0000000000
      1410       470  TIP3  H2          -11.7028350806       12.0640121898        0.8583629423  CLST         470          1.0000000000
      1411       471  TIP3  OH2          -4.2028432835        9.8269588492       -9.0181622311  CLST         471          1.0000000000
      1412       471  TIP3  H1           -4.3480010664        8.8600273826       -9.1508813671  CLST         471          1.0000000000
      1413       471  TIP3  H2           -4.6537230435       10.0814184653       -9.8773001053  CLST         471          1.0000000000
      1414       472  TIP3  OH2         -12.0012526590        3.9209406533        2.7450072890  CLST         472          1.0000000000
      1415       472  TIP3  H1          -12.3767499036        3.0515514041        3.0269211884  CLST         472          1.0000000000
      1416       472  TIP3  H2          -11.6256018575        3.5282398986        1.9075161099  CLST         472          1.0000000000
      1417       473  TIP3  OH2           5.3740632802        0.7957318285       10.2716010871  CLST         473          1.0000000000
      1418       473  TIP3  H1            5.9894895659        1.5818721867       10.2432404459  CLST         473          1.0000000000
      1419       473  TIP3  H2            4.6985679894        1.2611278432       10.7679972198  CLST         473          1.0000000000
      1420       474  TIP3  OH2           1.4605156818        1.7209894069        1.5418425502  CLST         474          1.0000000000
      1421       474  TIP3  H1            0.5445323297        1.8667904969        1.1628565205  CLST         474          1.0000000000
      1422       474  TIP3  H2            1.5420016601        0.8344569448        1.2068308661  CLST         474          1.0000000000
      1423       475  TIP3  OH2           6.0114905541       -8.7261749524       11.9681842348  CLST         475          1.0000000000
      1424       475  TIP3  H1            6.9193173842       -8.9194993917       12.2896273950  CLST         475          1.0000000000
      1425       475  TIP3  H2            6.0479272322       -9.0002475946       11.0282058182  CLST         475          1.0000000000
      1426       476  TIP3  OH2         -11.5294780138       -9.0266695902        0.0149381719  CLST         476          1.0000000000
      1427       476  TIP3  H1          -11.7109107544       -8.1962102291       -0.5598151456  CLST         476          1.0000000000
      1428       476  TIP3  H2          -11.1272300546       -9.4148191266       -0.7458785256  CLST         476          1.0000000000
      1429       477  TIP3  OH2         -12.5780599085        3.7004251427      -13.3493654478  CLST         477          1.0000000000
      1430       477  TIP3  H1          -13.0490733539        2.8797713248      -13.3996773495  CLST         477          1.0000000000
      1431       477  TIP3  H2          -11.7624553149        3.3654563904      -13.7280613439  CLST         477          1.0000000000
      1432       478  TIP3  OH2          -4.0560052504        6.5301849108      -10.7253810728  CLST         478          1.0000000000
      1433       478  TIP3  H1           -4.6583441847        6.6441493152      -11.5324998929  CLST         478          1.0000000000
      1434       478  TIP3  H2           -3.3747407429        7.1340653328      -11.1259117900  CLST         478          1.0000000000
      1435       479  TIP3  OH2           7.9673269835       -1.6699260218       -8.4675476529  CLST         479          1.0000000000
      1436       479  TIP3  H1            8.7626531395       -1.3085971236       -7.9895860140  CLST         479          1.0000000000
      1437       479  TIP3  H2            7.2941901001       -1.2121000008       -7.8811286655  CLST         479          1.0000000000
      1438       480  TIP3  OH2          -6.0580149564        7.4983539162        0.0345572533  CLST         480          1.0000000000
      1439       480  TIP3  H1           -5.2005438860        7.8755080887       -0.3188291480  CLST         480          1.0000000000
      1440       480  TIP3  H2           -5.7781842237        6.5773500281        0.1979320430  CLST         480          1.0000000000
      1441       481  TIP3  OH2          -3.0094361077        2.4851209377       12.0014767762  CLST         481          1.0000000000
      1442       481  TIP3  H1           -2.0788805257        2.3979933176       11.6290522307  CLST         481          1.0000000000
      1443       481  TIP3  H2           -3.0831866513        1.7423390462       12.5697325006  CLST         481          1.0000000000
      1444       482  TIP3  OH2          -8.0178977453       11.6169295592       -7.4793533505  CLST         482          1.0000000000
      1445       482  TIP3  H1           -8.6525676451       11.3043444879       -8.1260807927  CLST         482          1.0000000000
      1446       482  TIP3  H2           -7.3284184777       12.0174823750       -8.0984451762  CLST         482          1.0000000000
      1447       483  TIP3  OH2           6.4080714802       -5.9162955403       12.6112101748  CLST         483          1.0000000000
      1448       483  TIP3  H1            6.0803433634       -6.8398106751       12.4381728123  CLST         483          1.0000000000
      1449       483  TIP3  H2            6.2136908893       -5.6865225761       11.6618087690  CLST         483          1.0000000000
      1450       484  TIP3  OH2           6.8181255266       -3.0054328209        3.0704892060  CLST         484          1.0000000000
      1451       484  TIP3  H1            5.8571028192       -3.2502230601        3.0198625182  CLST         484          1.0000000000
      1452       484  TIP3  H2            6.6908822386       -2.2201552327        3.6861651435  CLST         484          1.0000000000
      1453       485  TIP3  OH2         -11.6854758154        4.6151383444       10.0214082118  CLST         485          1.0000000000
      1454       485  TIP3  H1          -11.2450573529        3.7186177390        9.8872691691  CLST         485          1.0000000000
      1455       485  TIP3  H2          -12.4786487658        4.3524657626        9.3986190928  CLST         485          1.0000000000
      1456       486  TIP3  OH2           8.4245675956       -7.1479799304       13.6313073073  CLST         486          1.0000000000
      1457       486  TIP3  H1            8.6388692211       -6.8355973808       14.4146960424  CLST         486          1.0000000000
      1458       486  TIP3  H2            7.7312196255       -6.5085309914       13.3220794063  CLST         486          1.0000000000
      1459       487  TIP3  OH2          12.1350281926       -8.5356860971        6.0432592997  CLST         487          1.0000000000
      1460       487  TIP3  H1           11.1356117502       -8.4217588958        5.9166277030  CLST         487          1.0000000000
      1461       487  TIP3  H2           12.0951414842       -8.5669056025        7.0412595915  CLST         487          1.0000000000
      1462       488  TIP3  OH2          15.1502164586        8.3881123799        7.6903812506  CLST         488          1.0000000000
      1463       488  TIP3  H1           15.8604474290        7.7928384147        7.4691249904  CLST         488          1.0000000000
      1464       488  TIP3  H2           14.4202726533        7.8333060596        8.1468560542  CLST         488          1.0000000000
      1465       489  TIP3  OH2          -6.1181323511      -10.9546463037       11.8964582493  CLST         489          1.0000000000
      1466       489  TIP3  H1           -6.4333664387      -10.0636313814       11.8015392178  CLST         489          1.0000000000
      1467       489  TIP3  H2           -6.8655826297      -11.3856070878       11.3072535194  CLST         489          1.0000000000
      1468       490  TIP3  OH2           6.9476524622      -13.0621654785        2.2654499313  CLST         490          1.0000000000
      1469       490  TIP3  H1            6.8106661574      -12.2436599680        2.7711489701  CLST         490          1.0000000000
      1470       490  TIP3  H2            6.7461207133      -13.7012812968        2.9593351593  CLST         490          1.0000000000
      1471       491  TIP3  OH2           3.1666602655       -9.3482442109        5.0705621045  CLST         491          1.0000000000
      1472       491  TIP3  H1            2.3114332775       -9.2345694884        5.5008765765  CLST         491          1.0000000000
      1473       491  TIP3  H2            2.8977958190       -9.8098591751        4.2592100349  CLST         491          1.0000000000
      1474       492  TIP3  OH2          -0.5492214088       -6.5652673204       12.2380549141  CLST         492          1.0000000000
      1475       492  TIP3  H1           -0.4102794637       -7.5788590892       12.3072464789  CLST         492          1.0000000000
      1476       492  TIP3  H2           -1.4909764801       -6.6246090324       12.0421969469  CLST         492          1.0000000000
      1477       493  TIP3  OH2           3.3104535134       10.8270025576        7.1596294495  CLST         493          1.0000000000
      1478       493  TIP3  H1            4.0979324220       10.6368184640        7.7885583273  CLST         493          1.0000000000
      1479       493  TIP3  H2            2.6056416021       10.4465254812        7.7019562559  CLST         493          1.0000000000
      1480       494  TIP3  OH2          -9.1653052916        5.4730208462       -0.8256403047  CLST         494          1.0000000000
      1481       494  TIP3  H1           -9.6042670685        5.9342095372       -1.5857808038  CLST         494          1.0000000000
      1482       494  TIP3  H2           -9.5201749537        6.0023552685       -0.0787983382  CLST         494          1.0000000000
      1483       495  TIP3  OH2           5.0157271590       -6.8393567253       -2.0390855592  CLST         495          1.0000000000
      1484       495  TIP3  H1            5.7421546932       -6.3224123593       -2.5071207255  CLST         495          1.0000000000
      1485       495  TIP3  H2            5.7449392965       -7.4144348159       -1.6150313727  CLST         495          1.0000000000
      1486       496  TIP3  OH2         -12.7504629319      -10.8056363040        7.4695495519  CLST         496          1.0000000000
      1487       496  TIP3  H1          -13.6146055901      -10.9973257492        7.4574691103  CLST         496          1.0000000000
      1488       496  TIP3  H2          -12.4883316631      -11.5320415148        6.8407298903  CLST         496          1.0000000000
      1489       497  TIP3  OH2          -9.8191707006      -13.4270847082       -7.2823436831  CLST         497          1.0000000000
      1490       497  TIP3  H1          -10.5371446367      -14.0226472797       -7.3506397991  CLST         497          1.0000000000
      1491       497  TIP3  H2           -9.9080529205      -12.9453181281       -8.0784351437  CLST         497          1.0000000000
      1492       498  TIP3  OH2          -5.5204193202        0.4808899795      -11.1013258275  CLST         498          1.0000000000
      1493       498  TIP3  H1           -5.8523681319        0.5841947963      -12.0286538749  CLST         498          1.0000000000
      1494       498  TIP3  H2           -5.4647605322        1.4264527815      -10.8559294222  CLST         498          1.0000000000
      1495       499  TIP3  OH2          11.5938213238        6.5406742340        3.5672388534  CLST         499          1.0000000000
      1496       499  TIP3  H1           11.9386407857        6.9666248680        2.7656902861  CLST         499          1.0000000000
      1497       499  TIP3  H2           11.3707845198        7.2851070757        4.1638126466  CLST         499          1.0000000000
      1498       500  TIP3  OH2           2.3750481621       -8.6676359977      -13.2571158174  CLST         500          1.0000000000
      1499       500  TIP3  H1            2.0520360757       -9.1872173596      -13.9447826933  CLST         500          1.0000000000
      1500       500  TIP3  H2            2.6169848964       -9.4222706921      -12.6578963491  CLST         500          1.0000000000
      1501       501  TIP3  OH2           1.3053777538      -10.8987937304       13.8640253840  CLST         501          1.0000000000
      1502       501  TIP3  H1            1.2365543221      -11.8445025922       13.9167763033  CLST         501          1.0000000000
      1503       501  TIP3  H2            2.2119368043      -10.7518412514       13.7796944716  CLST         501          1.0000000000
      1504       502  TIP3  OH2           6.0239729284        3.7103090111        9.8007325967  CLST         502          1.0000000000
      1505       502  TIP3  H1            6.4412754115        4.0487996761       10.6344403910  CLST         502          1.0000000000
      1506       502  TIP3  H2            6.8581037432        3.3852501140        9.3908672172  CLST         502          1.0000000000
      1507       503  TIP3  OH2          10.4551970662       -0.9010145350        0.2230800216  CLST         503          1.0000000000
      1508       503  TIP3  H1           11.2120644392       -0.4725264234        0.6857026937  CLST         503          1.0000000000
      1509       503  TIP3  H2           10.2178977945       -0.2065002302       -0.4238351702  CLST         503          1.0000000000
      1510       504  TIP3  OH2           8.2101435478      -13.7433810703       10.8320565526  CLST         504          1.0000000000
      1511       504  TIP3  H1            8.2947988922      -13.4873884763        9.8541035686  CLST         504          1.0000000000
      1512       504  TIP3  H2            8.3532965299      -14.6104824956       10.9742578720  CLST         504          1.0000000000
      1513       505  TIP3  OH2           3.6891616747      -10.9438078602       -5.6905752048  CLST         505          1.0000000000
      1514       505  TIP3  H1            3.5083321651      -10.3686295825       -6.5159772143  CLST         505          1.0000000000
      1515       505  TIP3  H2            3.0848234133      -10.4740426519       -5.0950396382  CLST         505          1.0000000000
      1516       506  TIP3  OH2          -9.2015043549       -3.3992969266       -8.1170828745  CLST         506          1.0000000000
      1517       506  TIP3  H1           -8.8078112813       -2.4808368620       -8.0312204646  CLST         506          1.0000000000
      1518       506  TIP3  H2          -10.0187025437       -3.2522124415       -8.6334471873  CLST         506          1.0000000000
      1519       507  TIP3  OH2          11.0625896790        9.7580176835      -12.8108207649  CLST         507          1.0000000000
      1520       507  TIP3  H1           11.1988119206        9.7073462867      -13.6608612226  CLST         507          1.0000000000
      1521       507  TIP3  H2           10.9339356906        8.6676330122      -12.4449991303  CLST         507          1.0000000000
      1522       508  TIP3  OH2           9.2684497710       12.2986675948        8.9479222108  CLST         508          1.0000000000
      1523       508  TIP3  H1            8.9599734934       12.2743942821        8.0324084170  CLST         508          1.0000000000
      1524       508  TIP3  H2           10.2033406833       12.5181671601        8.7509196994  CLST         508          1.0000000000
      1525       509  TIP3  OH2          -0.7741258834       -1.5612233208      -11.3094579515  CLST         509          1.0000000000
      1526       509  TIP3  H1           -1.7085825180       -1.7940368855      -11.3739494758  CLST         509          1.0000000000
      1527       509  TIP3  H2           -0.8782524694       -0.5570777355      -10.9791263318  CLST         509          1.0000000000
      1528       510  TIP3  OH2           8.0846779962        2.1767923174       11.4755920679  CLST         510          1.0000000000
      1529       510  TIP3  H1            8.0505144311        1.1805155140       11.5844317260  CLST         510          1.0000000000
      1530       510  TIP3  H2            9.0014998619        2.2046092091       11.0796457880  CLST         510          1.0000000000
      1531       511  TIP3  OH2          -8.8376739674       -5.9269632322       -0.6840821961  CLST         511          1.0000000000
      1532       511  TIP3  H1           -9.7759087642       -6.1463125592       -0.9083377650  CLST         511          1.0000000000
      1533       511  TIP3  H2           -8.6801178747       -5.2759077703       -1.3854973914  CLST         511          1.0000000000
      1534       512  TIP3  OH2           9.9762778909        7.1702879539        6.7765340068  CLST         512          1.0000000000
      1535       512  TIP3  H1           10.0486984969        7.7946236780        7.5340368146  CLST         512          1.0000000000
      1536       512  TIP3  H2           10.3377855231        7.7863134397        6.0840412451  CLST         512          1.0000000000
      1537       513  TIP3  OH2         -11.7482599450       10.6272792480        9.2463371332  CLST         513          1.0000000000
      1538       513  TIP3  H1          -11.1893503259       11.4190515370        9.3948596877  CLST         513          1.0000000000
      1539       513  TIP3  H2          -11.5047216450       10.1671722642       10.1069070270  CLST         513          1.0000000000
      1540       514  TIP3  OH2          -4.7705623866        5.0106475539        0.1243428205  CLST         514          1.0000000000
      1541       514  TIP3  H1           -3.9511904843        5.4705046599        0.4485410409  CLST         514          1.0000000000
      1542       514  TIP3  H2           -4.5398081731        5.0059697066       -0.8596848775  CLST         514          1.0000000000
      1543       515  TIP3  OH2          -0.9198744628        0.8157891941       -4.3032540368  CLST         515          1.0000000000
      1544       515  TIP3  H1           -1.7204676110        1.4132973887       -4.3288723245  CLST         515          1.0000000000
      1545       515  TIP3  H2           -0.1768902693        1.4168243538       -4.5346279473  CLST         515          1.0000000000
      1546       516  TIP3  OH2          -7.2751479315       -8.5402315420        6.4824305096  CLST         516          1.0000000000
      1547       516  TIP3  H1           -7.4525176012       -8.6526397262        5.5056478087  CLST         516          1.0000000000
      1548       516  TIP3  H2           -7.7793360514       -7.6659954831        6.6276809727  CLST         516          1.0000000000
      1549       517  TIP3  OH2           0.7134784920       10.9974048447       11.4289084119  CLST         517          1.0000000000
      1550       517  TIP3  H1            0.5526945198       10.6726026594       10.5083425219  CLST         517          1.0000000000
      1551       517  TIP3  H2           -0.2108775029       11.3167076233       11.6190580745  CLST         517          1.0000000000
      1552       518  TIP3  OH2         -11.7730611493       -3.4515224432      -11.4209675329  CLST         518          1.0000000000
      1553       518  TIP3  H1          -12.0921625736       -3.0292346300      -12.2361669396  CLST         518          1.0000000000
      1554       518  TIP3  H2          -10.9102965751       -3.7361993359      -11.7897620109  CLST         518          1.0000000000
      1555       519  TIP3  OH2           2.2250933470        3.3556982864        3.4354341026  CLST         519          1.0000000000
      1556       519  TIP3  H1            2.0008736003        4.1331070502        2.8393237231  CLST         519          1.0000000000
      1557       519  TIP3  H2            1.7966984501        2.6623850593        2.8100612827  CLST         519          1.0000000000
      1558       520  TIP3  OH2         -10.1956788097        6.2341531078        8.2158783799  CLST         520          1.0000000000
      1559       520  TIP3  H1          -10.4879453445        5.7130580051        7.4015233043  CLST         520          1.0000000000
      1560       520  TIP3  H2          -10.7846003703        5.7527351996        8.8691215055  CLST         520          1.0000000000
      1561       521  TIP3  OH2           8.2809903430       -8.7418380180       -9.5135946641  CLST         521          1.0000000000
      1562       521  TIP3  H1            8.5353129867       -9.1962240827      -10.3640956125  CLST         521          1.0000000000
      1563       521  TIP3  H2            8.0177862305       -7.8590582927       -9.8771253138  CLST         521          1.0000000000
      1564       522  TIP3  OH2          -5.5622263479       -7.1159397314        8.1413740773  CLST         522          1.0000000000
      1565       522  TIP3  H1           -6.0750202500       -7.8566314220        7.7719742639  CLST         522          1.0000000000
      1566       522  TIP3  H2           -4.6017435319       -7.3419972176        8.2233938478  CLST         522          1.0000000000
      1567       523  TIP3  OH2          -4.0474631025       12.0306508193      -13.5923827731  CLST         523          1.0000000000
      1568       523  TIP3  H1           -3.0677224498       11.7663046639      -13.4580317942  CLST         523          1.0000000000
      1569       523  TIP3  H2           -4.0764565564       12.6653470326      -14.1517413147  CLST         523          1.0000000000
      1570       524  TIP3  OH2           6.8821249478        3.7872861039       -1.8156339499  CLST         524          1.0000000000
      1571       524  TIP3  H1            7.0723893274        3.0143698818       -2.3593497273  CLST         524          1.0000000000
      1572       524  TIP3  H2            5.9121790241        3.7680488837       -1.9045959113  CLST         524          1.0000000000
      1573       525  TIP3  OH2           0.4594356572        6.8360483127       -2.5539747132  CLST         525          1.0000000000
      1574       525  TIP3  H1            0.9117553819        6.3599646014       -3.2968542561  CLST         525          1.0000000000
      1575       525  TIP3  H2            0.3070131404        6.0047249576       -2.0335356439  CLST         525          1.0000000000
      1576       526  TIP3  OH2           6.9701596762       -5.4842946732       -3.6030343146  CLST         526          1.0000000000
      1577       526  TIP3  H1            7.0952283568       -5.8325875660       -4.5138792696  CLST         526          1.0000000000
      1578       526  TIP3  H2            7.9213883921       -5.4507622085       -3.3044493399  CLST         526          1.0000000000
      1579       527  TIP3  OH2           0.4147991709        7.2378041597        3.9244432573  CLST         527          1.0000000000
      1580       527  TIP3  H1            1.1605844408        7.3665092665        4.5890895034  CLST         527          1.0000000000
      1581       527  TIP3  H2            0.2348586074        8.1890551351        3.7921571673  CLST         527          1.0000000000
      1582       528  TIP3  OH2          -2.7007012408        9.9551310984        8.7892921747  CLST         528          1.0000000000
      1583       528  TIP3  H1           -3.1015206687        9.7946974863        9.6703642642  CLST         528          1.0000000000
      1584       528  TIP3  H2           -3.5367536177       10.1583492441        8.2938478651  CLST         528          1.0000000000
      1585       529  TIP3  OH2          -6.0930180681       12.3431269138       -9.3072107418  CLST         529          1.0000000000
      1586       529  TIP3  H1           -5.1791491556       12.4403393578       -9.0783576484  CLST         529          1.0000000000
      1587       529  TIP3  H2           -6.0281341247       12.1457364334      -10.2344023336  CLST         529          1.0000000000
      1588       530  TIP3  OH2          -4.3985814828       -5.5570964217      -13.1226815901  CLST         530          1.0000000000
      1589       530  TIP3  H1           -4.3549925128       -6.5386510267      -13.0449126183  CLST         530          1.0000000000
      1590       530  TIP3  H2           -3.4630876023       -5.2456778883      -13.1733597114  CLST         530          1.0000000000
      1591       531  TIP3  OH2         -11.6858590096       -0.2834939510       10.3281622998  CLST         531          1.0000000000
      1592       531  TIP3  H1          -12.1236177549       -0.5701205716       11.0964344310  CLST         531          1.0000000000
      1593       531  TIP3  H2          -11.9354087531       -0.9658829710        9.6576163902  CLST         531          1.0000000000
      1594       532  TIP3  OH2         -12.1391842068       -3.0972203925       -8.8404910789  CLST         532          1.0000000000
      1595       532  TIP3  H1          -12.8826670706       -3.5707402019       -8.5664799227  CLST         532          1.0000000000
      1596       532  TIP3  H2          -12.1891036904       -3.2334909590       -9.8644957395  CLST         532          1.0000000000
      1597       533  TIP3  OH2          -2.9086744812       -7.2197953417        8.6959308921  CLST         533          1.0000000000
      1598       533  TIP3  H1           -2.2035938691       -7.8778130416        8.4999782412  CLST         533          1.0000000000
      1599       533  TIP3  H2           -2.3679011912       -6.4187328971        8.5066192927  CLST         533          1.0000000000
      1600       534  TIP3  OH2           0.4997872362      -13.2014229131       -7.6340850447  CLST         534          1.0000000000
      1601       534  TIP3  H1            0.8716140004      -13.2364972522       -8.5206397536  CLST         534          1.0000000000
      1602       534  TIP3  H2            1.3763783964      -13.3610236236       -7.2035866862  CLST         534          1.0000000000
      1603       535  TIP3  OH2           2.7385438297        3.0659402966       -7.4039011225  CLST         535          1.0000000000
      1604       535  TIP3  H1            3.3167573738        2.5562383089       -6.7706889888  CLST         535          1.0000000000
      1605       535  TIP3  H2            1.8484279126        2.8550456093       -7.0743218105  CLST         535          1.0000000000
      1606       536  TIP3  OH2           8.0275308780      -12.6766483550       -3.5465149967  CLST         536          1.0000000000
      1607       536  TIP3  H1            7.3233839433      -12.6809546413       -4.2210010064  CLST         536          1.0000000000
      1608       536  TIP3  H2            8.2492479749      -13.5637581737       -3.5969610226  CLST         536          1.0000000000
      1609       537  TIP3  OH2          11.8648675167       -2.6460946734       -7.5344643013  CLST         537          1.0000000000
      1610       537  TIP3  H1           11.5128494707       -1.7987774364       -7.2655216406  CLST         537          1.0000000000
      1611       537  TIP3  H2           12.8567027288       -2.6553826519       -7.0805934982  CLST         537          1.0000000000
      1612       538  TIP3  OH2          -5.1217975559      -10.8828682035        0.7831136845  CLST         538          1.0000000000
      1613       538  TIP3  H1           -4.3070666983      -11.0540924841        1.3372969007  CLST         538          1.0000000000
      1614       538  TIP3  H2           -4.9455122701       -9.8828384355        0.7134076260  CLST         538          1.0000000000
      1615       539  TIP3  OH2           2.5067544019       -5.0657940921        0.8963525640  CLST         539          1.0000000000
      1616       539  TIP3  H1            1.5580947437       -5.3620141587        1.1903357971  CLST         539          1.0000000000
      1617       539  TIP3  H2            2.3446227917       -5.2126963394       -0.0511352490  CLST         539          1.0000000000
      1618       540  TIP3  OH2           4.0346773518       -6.8479313894        4.8448980831  CLST         540          1.0000000000
      1619       540  TIP3  H1            3.7652554885       -7.7776552577        5.1151667940  CLST         540          1.0000000000
      1620       540  TIP3  H2            4.2633272385       -6.9566129540        3.8892048699  CLST         540          1.0000000000
      1621       541  TIP3  OH2          -5.5227045713       10.4355900873        2.1871394721  CLST         541          1.0000000000
      1622       541  TIP3  H1           -5.9459964305       10.3978978586        3.0947453360  CLST         541          1.0000000000
      1623       541  TIP3  H2           -4.8394870562       11.1349660399        2.3828351444  CLST         541          1.0000000000
      1624       542  TIP3  OH2         -11.0761754013       14.4828148088        5.5070513769  CLST         542          1.0000000000
      1625       542  TIP3  H1          -11.3723756179       15.2547493320        5.2535147830  CLST         542          1.0000000000
      1626       542  TIP3  H2          -10.8372177357       14.0381713760        4.5759673521  CLST         542          1.0000000000
      1627       543  TIP3  OH2         -10.6846680438       11.2443184720       -2.5086419771  CLST         543          1.0000000000
      1628       543  TIP3  H1          -11.5985593135       10.9618293888       -2.6206565795  CLST         543          1.0000000000
      1629       543  TIP3  H2          -10.3738843054       11.4503763890       -3.3742309927  CLST         543          1.0000000000
      1630       544  TIP3  OH2          -0.5024604908        5.7547191108       -5.6584264385  CLST         544          1.0000000000
      1631       544  TIP3  H1           -0.5659434941        5.3201538349       -6.5798299866  CLST         544          1.0000000000
      1632       544  TIP3  H2            0.2339791762        5.2470610375       -5.2414781089  CLST         544          1.0000000000
      1633       545  TIP3  OH2          -7.8950103320        2.5279757864      -12.5665322974  CLST         545          1.0000000000
      1634       545  TIP3  H1           -8.1119060401        2.1796566116      -13.4227259526  CLST         545          1.0000000000
      1635       545  TIP3  H2           -8.3816840864        3.3876393647      -12.5648392174  CLST         545          1.0000000000
      1636       546  TIP3  OH2           3.8026301396       11.1189515940       -2.1658783821  CLST         546          1.0000000000
      1637       546  TIP3  H1            3.4467990482       10.1985018828       -2.3636209217  CLST         546          1.0000000000
      1638       546  TIP3  H2            4.3207583958       10.9539022350       -1.3114392860  CLST         546          1.0000000000
      1639       547  TIP3  OH2          -3.5538060829       -2.2562242756      -11.1919887487  CLST         547          1.0000000000
      1640       547  TIP3  H1           -3.6001111498       -2.4189703607      -10.2357649100  CLST         547          1.0000000000
      1641       547  TIP3  H2           -3.8976244415       -1.3510213013      -11.2385988527  CLST         547          1.0000000000
      1642       548  TIP3  OH2          10.5982874352        2.4195136164        1.3847795361  CLST         548          1.0000000000
      1643       548  TIP3  H1            9.6063419133        2.2662525203        1.4205753872  CLST         548          1.0000000000
      1644       548  TIP3  H2           10.5287127486        3.1376807207        2.0929228531  CLST         548          1.0000000000
