* Geometry rescue: heat segment 3/8 at step 2000
*
        1644  EXT
         1         1  TIP3  OH2           4.4948065189       -1.4720642670       -2.2827492678  CLST           1          1.0000000000
         2         1  TIP3  H1            4.7800268287       -1.5677760260       -1.3376291757  CLST           1          1.0000000000
         3         1  TIP3  H2            5.1725997997       -1.9701071631       -2.7977470341  CLST           1          1.0000000000
         4         2  TIP3  OH2          10.6148766532        7.3547232957      -11.8734808308  CLST           2          1.0000000000
         5         2  TIP3  H1           10.9901458589        7.4713834527      -10.9687006969  CLST           2          1.0000000000
         6         2  TIP3  H2            9.6602765205        7.6434916334      -11.6100278146  CLST           2          1.0000000000
         7         3  TIP3  OH2           8.8401074861        5.2748541438       -4.2019982931  CLST           3          1.0000000000
         8         3  TIP3  H1            9.2626510228        5.5075746039       -3.3184150972  CLST           3          1.0000000000
         9         3  TIP3  H2            8.3168776926        6.0976190082       -4.3560059110  CLST           3          1.0000000000
        10         4  TIP3  OH2          -2.8653352187        6.7902025750       10.1534836951  CLST           4          1.0000000000
        11         4  TIP3  H1           -3.5979498619        7.1604645417        9.5759983349  CLST           4          1.0000000000
        12         4  TIP3  H2           -2.9149044730        7.5415716096       10.7955841855  CLST           4          1.0000000000
        13         5  TIP3  OH2           9.1146919030        6.2286594406       10.5768935134  CLST           5          1.0000000000
        14         5  TIP3  H1            8.6840567053        5.4912480929       11.0983257453  CLST           5          1.0000000000
        15         5  TIP3  H2            8.8431960471        5.9133822008        9.6495861651  CLST           5          1.0000000000
        16         6  TIP3  OH2          10.4564681441       -5.9768769487      -11.5929453490  CLST           6          1.0000000000
        17         6  TIP3  H1           10.9374968330       -5.4819438394      -10.8635494436  CLST           6          1.0000000000
        18         6  TIP3  H2           10.4979468083       -5.1976323835      -12.2482473310  CLST           6          1.0000000000
        19         7  TIP3  OH2         -12.3147589725        8.2084965847        5.8347915062  CLST           7          1.0000000000
        20         7  TIP3  H1          -12.8135348339        9.0115500669        6.1210053992  CLST           7          1.0000000000
        21         7  TIP3  H2          -11.5331422717        8.3801817664        6.4210683842  CLST           7          1.0000000000
        22         8  TIP3  OH2          -4.4308465328       -8.2175715493        0.5476911837  CLST           8          1.0000000000
        23         8  TIP3  H1           -4.9744929421       -7.5536471311        0.9041355362  CLST           8          1.0000000000
        24         8  TIP3  H2           -3.6080193956       -7.6789199128        0.1919630506  CLST           8          1.0000000000
        25         9  TIP3  OH2           2.5311077500      -14.1873364701       -4.1215335722  CLST           9          1.0000000000
        26         9  TIP3  H1            1.6277246334      -14.3177123945       -3.7960691017  CLST           9          1.0000000000
        27         9  TIP3  H2            2.8518025359      -13.6525523020       -3.3766637230  CLST           9          1.0000000000
        28        10  TIP3  OH2         -14.0901424031       -1.2226167432       -0.3426673638  CLST          10          1.0000000000
        29        10  TIP3  H1          -13.4980995530       -1.5911958226       -1.1085661781  CLST          10          1.0000000000
        30        10  TIP3  H2          -14.5822600687       -1.8617287488       -0.0661664378  CLST          10          1.0000000000
        31        11  TIP3  OH2           6.9305183536        6.7837752907       -1.8737367438  CLST          11          1.0000000000
        32        11  TIP3  H1            7.2206297340        5.8668765776       -2.0241785153  CLST          11          1.0000000000
        33        11  TIP3  H2            6.8316400878        7.0682158338       -2.7958658507  CLST          11          1.0000000000
        34        12  TIP3  OH2          -8.1964264120        2.4967193233        1.9899602513  CLST          12          1.0000000000
        35        12  TIP3  H1           -7.6375739964        2.7124599970        1.1915145219  CLST          12          1.0000000000
        36        12  TIP3  H2           -9.0400475828        2.3996254747        1.5046782827  CLST          12          1.0000000000
        37        13  TIP3  OH2           7.7898699638        2.4022598596        2.0370860501  CLST          13          1.0000000000
        38        13  TIP3  H1            7.4468579883        3.1786948451        1.5242665684  CLST          13          1.0000000000
        39        13  TIP3  H2            7.7000235081        2.7762293653        2.9552251457  CLST          13          1.0000000000
        40        14  TIP3  OH2          -0.4353532561        2.1998647369        7.9429576044  CLST          14          1.0000000000
        41        14  TIP3  H1           -0.0626745750        3.0671218236        7.5364775110  CLST          14          1.0000000000
        42        14  TIP3  H2            0.3361021052        1.6328252542        7.6848153128  CLST          14          1.0000000000
        43        15  TIP3  OH2          -9.0048717113       -3.8649275367      -12.6373920664  CLST          15          1.0000000000
        44        15  TIP3  H1           -8.2773769208       -3.9159353828      -13.3029117169  CLST          15          1.0000000000
        45        15  TIP3  H2           -8.4427635104       -4.4210214070      -11.9802829676  CLST          15          1.0000000000
        46        16  TIP3  OH2          -3.9093049534      -12.6740703838       -6.1441544670  CLST          16          1.0000000000
        47        16  TIP3  H1           -4.4447226633      -12.7064222425       -5.3107927304  CLST          16          1.0000000000
        48        16  TIP3  H2           -2.9986605081      -12.7169666774       -5.7855515532  CLST          16          1.0000000000
        49        17  TIP3  OH2           4.8918197039      -13.3031732576       -8.3889532900  CLST          17          1.0000000000
        50        17  TIP3  H1            5.4270921117      -13.1959701045       -7.5613436184  CLST          17          1.0000000000
        51        17  TIP3  H2            4.0307377649      -13.4215405154       -7.8925855267  CLST          17          1.0000000000
        52        18  TIP3  OH2         -11.6994494694       -6.7302752045       -1.5128002067  CLST          18          1.0000000000
        53        18  TIP3  H1          -12.0554670467       -5.8881917572       -1.9426439275  CLST          18          1.0000000000
        54        18  TIP3  H2          -11.6890543955       -7.2063612156       -2.4099419583  CLST          18          1.0000000000
        55        19  TIP3  OH2          11.0105363926        0.1681216590        9.4529136929  CLST          19          1.0000000000
        56        19  TIP3  H1           10.6278808339       -0.7318621380        9.7763098451  CLST          19          1.0000000000
        57        19  TIP3  H2           11.0833151555       -0.0125924193        8.4185247327  CLST          19          1.0000000000
        58        20  TIP3  OH2         -13.2587914887        1.5707475206        2.9037521235  CLST          20          1.0000000000
        59        20  TIP3  H1          -13.0897847192        1.3265631530        1.9753050428  CLST          20          1.0000000000
        60        20  TIP3  H2          -14.1848349404        1.4731872241        2.9979651263  CLST          20          1.0000000000
        61        21  TIP3  OH2         -10.1208005268       12.4476246528       -5.4503235358  CLST          21          1.0000000000
        62        21  TIP3  H1          -10.4157247529       13.2689659491       -5.6645400119  CLST          21          1.0000000000
        63        21  TIP3  H2           -9.3392917913       12.2913212067       -5.9747056179  CLST          21          1.0000000000
        64        22  TIP3  OH2           2.8392506675       12.2544243841       -6.4634931379  CLST          22          1.0000000000
        65        22  TIP3  H1            3.2144370356       11.5383023257       -5.9795372377  CLST          22          1.0000000000
        66        22  TIP3  H2            3.2733582424       12.9956772642       -5.8270585750  CLST          22          1.0000000000
        67        23  TIP3  OH2           5.6104703181       -1.8782671325       11.4732831490  CLST          23          1.0000000000
        68        23  TIP3  H1            5.3617385680       -2.4302886747       10.7407892268  CLST          23          1.0000000000
        69        23  TIP3  H2            5.1468241349       -1.0375714605       11.2507435772  CLST          23          1.0000000000
        70        24  TIP3  OH2          -0.2238218322        1.0890823900        4.6011129454  CLST          24          1.0000000000
        71        24  TIP3  H1            0.5097808913        0.9912336226        5.2714797824  CLST          24          1.0000000000
        72        24  TIP3  H2           -0.8572258818        0.4151495571        4.9950765845  CLST          24          1.0000000000
        73        25  TIP3  OH2           3.2837181336        2.0508925365       -2.4819649398  CLST          25          1.0000000000
        74        25  TIP3  H1            3.7082498691        1.6998676757       -1.6478759427  CLST          25          1.0000000000
        75        25  TIP3  H2            3.7385602620        2.9305327420       -2.4863746620  CLST          25          1.0000000000
        76        26  TIP3  OH2          11.3716983820        5.4427291395       -6.5510266770  CLST          26          1.0000000000
        77        26  TIP3  H1           10.5417721910        5.1471353158       -7.0149802520  CLST          26          1.0000000000
        78        26  TIP3  H2           11.1322235988        6.2750820227       -6.0850738099  CLST          26          1.0000000000
        79        27  TIP3  OH2         -10.3093124999        7.3153725709       -5.4332985909  CLST          27          1.0000000000
        80        27  TIP3  H1          -10.5389373490        7.8006605062       -4.5465964924  CLST          27          1.0000000000
        81        27  TIP3  H2          -11.1497514845        7.3874025522       -5.9736408216  CLST          27          1.0000000000
        82        28  TIP3  OH2          -4.1512312725      -10.2520258897       -6.8452978936  CLST          28          1.0000000000
        83        28  TIP3  H1           -4.1616253950      -11.2525316579       -6.5851873913  CLST          28          1.0000000000
        84        28  TIP3  H2           -5.0051098707       -9.9827859480       -6.3759044036  CLST          28          1.0000000000
        85        29  TIP3  OH2         -10.8327619837        7.6628390114       -2.5520233786  CLST          29          1.0000000000
        86        29  TIP3  H1          -10.3710235493        8.2945000310       -2.0341910704  CLST          29          1.0000000000
        87        29  TIP3  H2          -11.9110604435        8.3039753069       -2.4381506533  CLST          29          1.0000000000
        88        30  TIP3  OH2           8.9046640309      -10.4233593626       -2.1371721543  CLST          30          1.0000000000
        89        30  TIP3  H1            9.8488742962      -11.6048757412       -1.4802759933  CLST          30          1.0000000000
        90        30  TIP3  H2            8.5581259304      -11.3390821372       -2.6757617099  CLST          30          1.0000000000
        91        31  TIP3  OH2          -9.4969979125       -1.3316700259      -12.9943898079  CLST          31          1.0000000000
        92        31  TIP3  H1           -9.3642555319       -2.2756781878      -12.7136119028  CLST          31          1.0000000000
        93        31  TIP3  H2           -9.3995434484       -0.8388393023      -12.1568668026  CLST          31          1.0000000000
        94        32  TIP3  OH2          -8.6194577321       -6.4485620968        6.9409432531  CLST          32          1.0000000000
        95        32  TIP3  H1           -9.5951215421       -6.3456509123        6.9417617560  CLST          32          1.0000000000
        96        32  TIP3  H2           -8.4814264390       -5.8828270179        6.1008613999  CLST          32          1.0000000000
        97        33  TIP3  OH2          11.8478934038       -8.8467633012        8.9472258446  CLST          33          1.0000000000
        98        33  TIP3  H1           11.9602716231       -9.7560506406        9.2809861037  CLST          33          1.0000000000
        99        33  TIP3  H2           11.3226245687       -8.5086811074        9.6777791889  CLST          33          1.0000000000
       100        34  TIP3  OH2           4.1920168883       -3.8293801332        2.7558175080  CLST          34          1.0000000000
       101        34  TIP3  H1            3.5806560536       -4.0557241968        1.9959189743  CLST          34          1.0000000000
       102        34  TIP3  H2            4.3837569985       -4.7413946618        3.0571683190  CLST          34          1.0000000000
       103        35  TIP3  OH2           6.2930874657       -0.7463809958        4.3688869000  CLST          35          1.0000000000
       104        35  TIP3  H1            5.5125690500       -1.1127161291        4.8902953453  CLST          35          1.0000000000
       105        35  TIP3  H2            6.8110805420       -0.2384997920        5.0202912607  CLST          35          1.0000000000
       106        36  TIP3  OH2          -1.5960481308        1.3273197302        2.0673021522  CLST          36          1.0000000000
       107        36  TIP3  H1           -2.2800485899        0.7277988742        2.3565299801  CLST          36          1.0000000000
       108        36  TIP3  H2           -1.0183084378        1.3108981152        2.8786744388  CLST          36          1.0000000000
       109        37  TIP3  OH2          -4.4188981404       -8.1217612999      -12.9192950333  CLST          37          1.0000000000
       110        37  TIP3  H1           -5.1071468201       -8.3850775668      -12.2744503244  CLST          37          1.0000000000
       111        37  TIP3  H2           -4.1532356302       -8.9948681710      -13.2945745157  CLST          37          1.0000000000
       112        38  TIP3  OH2          -3.1457606024        2.1255708889       -4.2973650608  CLST          38          1.0000000000
       113        38  TIP3  H1           -3.0177813334        3.0640899108       -4.6462695712  CLST          38          1.0000000000
       114        38  TIP3  H2           -3.5018864334        1.7282630010       -5.1424310194  CLST          38          1.0000000000
       115        39  TIP3  OH2           1.8233388087      -10.9242978904        2.2089703465  CLST          39          1.0000000000
       116        39  TIP3  H1            1.5470939143      -11.4398769328        3.0203652591  CLST          39          1.0000000000
       117        39  TIP3  H2            0.9041540316      -10.5812379647        2.0124953497  CLST          39          1.0000000000
       118        40  TIP3  OH2          -7.0644821145       12.6795798250        8.3202699515  CLST          40          1.0000000000
       119        40  TIP3  H1           -7.9468553508       13.0363634337        7.9955414075  CLST          40          1.0000000000
       120        40  TIP3  H2           -6.4502202503       12.7983222859        7.5947236567  CLST          40          1.0000000000
       121        41  TIP3  OH2           9.6113352949       -2.3088171650      -11.1873534717  CLST          41          1.0000000000
       122        41  TIP3  H1            8.8778463233       -2.8785295361      -10.8091451547  CLST          41          1.0000000000
       123        41  TIP3  H2            9.5518346171       -1.4809589031      -10.7283988930  CLST          41          1.0000000000
       124        42  TIP3  OH2           9.8342033019       10.5678418009      -10.6984073447  CLST          42          1.0000000000
       125        42  TIP3  H1           10.5871045455       10.5034997736      -10.1204337421  CLST          42          1.0000000000
       126        42  TIP3  H2           10.1926131183       10.4759055294      -11.6606492815  CLST          42          1.0000000000
       127        43  TIP3  OH2          11.9749692074       12.5139250140        7.6873360006  CLST          43          1.0000000000
       128        43  TIP3  H1           12.5592609951       13.1445882034        7.7444756949  CLST          43          1.0000000000
       129        43  TIP3  H2           12.4027832929       11.7415191508        8.2501357886  CLST          43          1.0000000000
       130        44  TIP3  OH2           7.7158392530        0.9225911619        5.8611479568  CLST          44          1.0000000000
       131        44  TIP3  H1            7.9961518697        1.4367715702        6.7074461623  CLST          44          1.0000000000
       132        44  TIP3  H2            7.5024890547        1.8126631637        5.4203011954  CLST          44          1.0000000000
       133        45  TIP3  OH2           7.7510199363        9.4266743673        7.4537867250  CLST          45          1.0000000000
       134        45  TIP3  H1            7.3548913980        8.4997167112        7.5289123241  CLST          45          1.0000000000
       135        45  TIP3  H2            8.6077765296        9.2827036207        7.9545562595  CLST          45          1.0000000000
       136        46  TIP3  OH2          -5.5790055424       -3.0839328005      -13.0390742233  CLST          46          1.0000000000
       137        46  TIP3  H1           -5.2879343154       -4.0169219891      -13.2952496339  CLST          46          1.0000000000
       138        46  TIP3  H2           -4.8525559133       -2.9049848382      -12.4044735378  CLST          46          1.0000000000
       139        47  TIP3  OH2           1.4099766091       -6.4669520674      -11.0328751087  CLST          47          1.0000000000
       140        47  TIP3  H1            1.7217366825       -5.5389593497      -10.9391753444  CLST          47          1.0000000000
       141        47  TIP3  H2            1.5207297839       -6.5596789790      -11.9894091016  CLST          47          1.0000000000
       142        48  TIP3  OH2           5.1284878233        5.6538796369        1.2250033649  CLST          48          1.0000000000
       143        48  TIP3  H1            5.9557659439        5.2906189855        0.8208216216  CLST          48          1.0000000000
       144        48  TIP3  H2            5.4252084379        6.5982391944        1.3058850487  CLST          48          1.0000000000
       145        49  TIP3  OH2          -3.5454057978      -10.5682485960      -13.8601291048  CLST          49          1.0000000000
       146        49  TIP3  H1           -2.6955471909      -10.9849116455      -13.9248580282  CLST          49          1.0000000000
       147        49  TIP3  H2           -3.8840915736      -11.1416169406      -13.1458095070  CLST          49          1.0000000000
       148        50  TIP3  OH2           2.7374270067        3.8063317482        5.9829556602  CLST          50          1.0000000000
       149        50  TIP3  H1            1.8659794997        4.2065866471        6.3541641957  CLST          50          1.0000000000
       150        50  TIP3  H2            2.4643573862        3.6208828771        5.0420174209  CLST          50          1.0000000000
       151        51  TIP3  OH2          -6.2610566732       -9.9638550301       -4.8467427655  CLST          51          1.0000000000
       152        51  TIP3  H1           -6.2813619621      -10.0132338344       -3.8685006730  CLST          51          1.0000000000
       153        51  TIP3  H2           -6.5374953118      -10.8888265694       -5.0268661340  CLST          51          1.0000000000
       154        52  TIP3  OH2           9.0316445695       -5.6988751400       -0.0753371635  CLST          52          1.0000000000
       155        52  TIP3  H1            9.3559448623       -5.4590160237       -1.0498185181  CLST          52          1.0000000000
       156        52  TIP3  H2            9.0815173567       -4.7411313722        0.2707982163  CLST          52          1.0000000000
       157        53  TIP3  OH2          -9.1775511093        9.6760075852      -12.2882045101  CLST          53          1.0000000000
       158        53  TIP3  H1           -9.5454208185        9.8199299853      -13.1425489905  CLST          53          1.0000000000
       159        53  TIP3  H2           -8.3659827329        9.0922458393      -12.4022459212  CLST          53          1.0000000000
       160        54  TIP3  OH2           0.4937706893       -2.9929372557       -9.4448277087  CLST          54          1.0000000000
       161        54  TIP3  H1            1.3295558795       -3.2881116496       -9.8165771891  CLST          54          1.0000000000
       162        54  TIP3  H2            0.1451946486       -2.4396693191      -10.2180603357  CLST          54          1.0000000000
       163        55  TIP3  OH2           2.8388826796       -4.0474987701      -14.7786341726  CLST          55          1.0000000000
       164        55  TIP3  H1            3.2631678660       -4.8536861980      -14.4962583611  CLST          55          1.0000000000
       165        55  TIP3  H2            2.8600671554       -3.9424509712      -15.7112380321  CLST          55          1.0000000000
       166        56  TIP3  OH2          -9.9658456818       11.0283934886        5.7948856240  CLST          56          1.0000000000
       167        56  TIP3  H1           -9.9628232077       10.2019433610        6.3225596487  CLST          56          1.0000000000
       168        56  TIP3  H2          -10.2560617876       10.7331944494        4.9130975979  CLST          56          1.0000000000
       169        57  TIP3  OH2           1.6923220937      -13.2418689031        0.5108661581  CLST          57          1.0000000000
       170        57  TIP3  H1            1.6926356529      -12.3650789519        0.9865835099  CLST          57          1.0000000000
       171        57  TIP3  H2            2.5326235439      -13.0516430424        0.0320818455  CLST          57          1.0000000000
       172        58  TIP3  OH2         -13.1950625138       10.7220375554        7.0641248373  CLST          58          1.0000000000
       173        58  TIP3  H1          -12.5293148816       11.3218172818        6.6494743233  CLST          58          1.0000000000
       174        58  TIP3  H2          -12.7690688834       10.7211813997        7.9568211108  CLST          58          1.0000000000
       175        59  TIP3  OH2         -11.6795152066       -2.7154250137        5.5491902289  CLST          59          1.0000000000
       176        59  TIP3  H1          -11.8777961072       -2.5700926514        6.5082828010  CLST          59          1.0000000000
       177        59  TIP3  H2          -11.7083217756       -1.7350909738        5.3218021554  CLST          59          1.0000000000
       178        60  TIP3  OH2           1.3092431591        9.5182684927        8.5580851338  CLST          60          1.0000000000
       179        60  TIP3  H1            0.5205665554        8.9570538732        8.2923484720  CLST          60          1.0000000000
       180        60  TIP3  H2            1.8452434811        8.7258394189        8.8744794670  CLST          60          1.0000000000
       181        61  TIP3  OH2           2.7407757217       -0.7470824902       -5.5279290807  CLST          61          1.0000000000
       182        61  TIP3  H1            3.1940534694       -1.6399534924       -5.5454936403  CLST          61          1.0000000000
       183        61  TIP3  H2            2.0751622341       -0.8921773162       -6.2824068002  CLST          61          1.0000000000
       184        62  TIP3  OH2           8.0637008869        8.5907132222       12.3584224899  CLST          62          1.0000000000
       185        62  TIP3  H1            8.2131714487        7.7518393110       11.8963818486  CLST          62          1.0000000000
       186        62  TIP3  H2            8.1451025497        9.2883172484       11.6803019081  CLST          62          1.0000000000
       187        63  TIP3  OH2           4.6072547203       -6.9445113378      -10.2360338671  CLST          63          1.0000000000
       188        63  TIP3  H1            3.7710397399       -6.9059047107      -10.7550013443  CLST          63          1.0000000000
       189        63  TIP3  H2            5.1776457548       -7.3288219599      -10.9708915350  CLST          63          1.0000000000
       190        64  TIP3  OH2          -2.4547139990       11.7350131726        5.3165821777  CLST          64          1.0000000000
       191        64  TIP3  H1           -2.5440125622       10.7405313228        5.2938226391  CLST          64          1.0000000000
       192        64  TIP3  H2           -1.7443355791       11.7788782204        6.0193749887  CLST          64          1.0000000000
       193        65  TIP3  OH2          11.0429619500       -4.3446628643       -5.3568348288  CLST          65          1.0000000000
       194        65  TIP3  H1           11.3691987608       -3.9681942301       -6.2663989577  CLST          65          1.0000000000
       195        65  TIP3  H2           10.9438384328       -3.3703748363       -5.0477334332  CLST          65          1.0000000000
       196        66  TIP3  OH2           6.2160206652       -9.9443704792        9.3849591459  CLST          66          1.0000000000
       197        66  TIP3  H1            5.5003413466       -9.7026203824        8.7270601599  CLST          66          1.0000000000
       198        66  TIP3  H2            6.8869151128       -9.3115429848        9.0737310944  CLST          66          1.0000000000
       199        67  TIP3  OH2         -11.4580730200       -7.5908132417       -3.9536987870  CLST          67          1.0000000000
       200        67  TIP3  H1          -10.6640495209       -7.0829085970       -4.2563748659  CLST          67          1.0000000000
       201        67  TIP3  H2          -11.9163161124       -7.6357466541       -4.7923778867  CLST          67          1.0000000000
       202        68  TIP3  OH2          -0.6063650907       -5.5353833383        5.4074761100  CLST          68          1.0000000000
       203        68  TIP3  H1            0.4040553482       -5.5013438725        5.5117869077  CLST          68          1.0000000000
       204        68  TIP3  H2           -0.8444832023       -5.4503281000        6.3462611997  CLST          68          1.0000000000
       205        69  TIP3  OH2           7.9925035481       11.5477759231       -8.7318126174  CLST          69          1.0000000000
       206        69  TIP3  H1            8.4116432184       11.1687516863       -9.4903640178  CLST          69          1.0000000000
       207        69  TIP3  H2            8.8841114318       11.7714213574       -8.2537242097  CLST          69          1.0000000000
       208        70  TIP3  OH2          -0.9984043293      -12.5339254629       -0.5364420031  CLST          70          1.0000000000
       209        70  TIP3  H1           -0.0097203454      -12.6423202925       -0.4920978766  CLST          70          1.0000000000
       210        70  TIP3  H2           -1.0774759489      -12.7364269108        0.4578264629  CLST          70          1.0000000000
       211        71  TIP3  OH2         -10.1863795948       -7.3826094218        1.9876601681  CLST          71          1.0000000000
       212        71  TIP3  H1          -10.7483161934       -6.6520395091        2.3313473353  CLST          71          1.0000000000
       213        71  TIP3  H2          -10.6820932765       -7.7834769901        1.2527471582  CLST          71          1.0000000000
       214        72  TIP3  OH2           0.2730985585        2.0085539856       -1.5676955385  CLST          72          1.0000000000
       215        72  TIP3  H1           -0.1655446812        1.1290105150       -1.7741878219  CLST          72          1.0000000000
       216        72  TIP3  H2            1.1891554521        1.7584764176       -1.8233760633  CLST          72          1.0000000000
       217        73  TIP3  OH2          -9.7448817274       13.2349834898        7.3999398367  CLST          73          1.0000000000
       218        73  TIP3  H1           -9.8162443751       12.4603189905        6.7720382800  CLST          73          1.0000000000
       219        73  TIP3  H2          -10.2177900021       13.8393699631        6.6873502106  CLST          73          1.0000000000
       220        74  TIP3  OH2           6.4712971679       -2.9320143073       -3.6804222781  CLST          74          1.0000000000
       221        74  TIP3  H1            6.5738244145       -3.9186200413       -3.4684404378  CLST          74          1.0000000000
       222        74  TIP3  H2            7.3486903273       -2.6166401061       -3.4393282498  CLST          74          1.0000000000
       223        75  TIP3  OH2           2.9362577642      -13.3679382777       -6.5370545118  CLST          75          1.0000000000
       224        75  TIP3  H1            3.0922546958      -12.4858962866       -6.1072322755  CLST          75          1.0000000000
       225        75  TIP3  H2            2.8251143414      -13.9128172307       -5.6866893585  CLST          75          1.0000000000
       226        76  TIP3  OH2           4.0365659828       -9.7979579493        1.2670522308  CLST          76          1.0000000000
       227        76  TIP3  H1            4.1765349420       -8.8464188653        1.4356773780  CLST          76          1.0000000000
       228        76  TIP3  H2            3.1903233943      -10.0566459549        1.7154638552  CLST          76          1.0000000000
       229        77  TIP3  OH2          10.3806081406       -8.2761712924       -2.7340447159  CLST          77          1.0000000000
       230        77  TIP3  H1            9.8091942938       -9.0740181937       -2.6403737478  CLST          77          1.0000000000
       231        77  TIP3  H2           10.2362454239       -8.1416588424       -3.7272606020  CLST          77          1.0000000000
       232        78  TIP3  OH2          10.7613256014       11.7086321535       -8.0216582959  CLST          78          1.0000000000
       233        78  TIP3  H1           11.7447442976       10.5562883810       -8.7342896561  CLST          78          1.0000000000
       234        78  TIP3  H2           11.5082274738       12.0926685208       -6.9463746650  CLST          78          1.0000000000
       235        79  TIP3  OH2          12.6495330423        0.7349750002        1.1153646072  CLST          79          1.0000000000
       236        79  TIP3  H1           13.1005087437        0.5692518156        1.8911587165  CLST          79          1.0000000000
       237        79  TIP3  H2           11.9734875576        1.4568140254        1.2860766373  CLST          79          1.0000000000
       238        80  TIP3  OH2          -7.6365358273        0.0736418468        6.6970203465  CLST          80          1.0000000000
       239        80  TIP3  H1           -7.6392840568        0.5896144793        5.8400634905  CLST          80          1.0000000000
       240        80  TIP3  H2           -6.6848924856       -0.2015222051        6.6547662402  CLST          80          1.0000000000
       241        81  TIP3  OH2          -7.5696690524      -10.9384334594        1.9545721111  CLST          81          1.0000000000
       242        81  TIP3  H1           -6.7264346669      -10.9501639880        1.4615568806  CLST          81          1.0000000000
       243        81  TIP3  H2           -7.2347636307      -11.1586383515        2.8415212053  CLST          81          1.0000000000
       244        82  TIP3  OH2          -1.4287609428      -10.0156956880       -6.5963535238  CLST          82          1.0000000000
       245        82  TIP3  H1           -2.4175916433       -9.8899211402       -6.4630051790  CLST          82          1.0000000000
       246        82  TIP3  H2           -1.3588631732      -10.8546546878       -6.1329765561  CLST          82          1.0000000000
       247        83  TIP3  OH2          12.2132746437       -8.5424307822        1.5704917815  CLST          83          1.0000000000
       248        83  TIP3  H1           12.5395287950       -8.0558341128        2.3650582321  CLST          83          1.0000000000
       249        83  TIP3  H2           11.2653371156       -8.2947951365        1.5086924242  CLST          83          1.0000000000
       250        84  TIP3  OH2          -3.3348743055       10.4844681608       -2.1748764082  CLST          84          1.0000000000
       251        84  TIP3  H1           -5.9272921523       10.4034867042       -2.5715719635  CLST          84          1.0000000000
       252        84  TIP3  H2           -4.2292040651       10.6233554898       -2.5368250070  CLST          84          1.0000000000
       253        85  TIP3  OH2           5.8471768392       -1.9984930861        0.0149546222  CLST          85          1.0000000000
       254        85  TIP3  H1            5.8462197137       -1.3873733395        0.8049218621  CLST          85          1.0000000000
       255        85  TIP3  H2            6.4201177047       -2.6836090062        0.3438174761  CLST          85          1.0000000000
       256        86  TIP3  OH2           6.7530850557       -8.2152406280        5.9857993078  CLST          86          1.0000000000
       257        86  TIP3  H1            6.0651938307       -8.5635757634        6.6114538176  CLST          86          1.0000000000
       258        86  TIP3  H2            6.3379326370       -7.3364822821        5.8022594557  CLST          86          1.0000000000
       259        87  TIP3  OH2          -1.3536382867       -3.8045684237       10.6338321399  CLST          87          1.0000000000
       260        87  TIP3  H1           -0.7988426411       -4.1378494032       11.3646533411  CLST          87          1.0000000000
       261        87  TIP3  H2           -2.2507763459       -4.1924140312       10.8281424099  CLST          87          1.0000000000
       262        88  TIP3  OH2          -0.9355391892        4.4697758358       -7.9356890809  CLST          88          1.0000000000
       263        88  TIP3  H1           -1.2660860197        3.5518190007       -7.7055688618  CLST          88          1.0000000000
       264        88  TIP3  H2           -1.8047310901        4.8965466212       -8.0313268434  CLST          88          1.0000000000
       265        89  TIP3  OH2           3.4095665431        0.8120365098      -11.7821614317  CLST          89          1.0000000000
       266        89  TIP3  H1            3.5787971343        1.3014424969      -12.5883717705  CLST          89          1.0000000000
       267        89  TIP3  H2            3.2799595942        0.0038188221      -12.2752976400  CLST          89          1.0000000000
       268        90  TIP3  OH2           5.3827683260       11.0320063531       -5.4761356065  CLST          90          1.0000000000
       269        90  TIP3  H1            5.0372691686       11.8281444741       -4.8333434217  CLST          90          1.0000000000
       270        90  TIP3  H2            5.4673906672       11.6628780681       -6.2596301980  CLST          90          1.0000000000
       271        91  TIP3  OH2           6.0250123712       -7.8071599236      -12.3131478900  CLST          91          1.0000000000
       272        91  TIP3  H1            6.2915110739       -8.7970857169      -12.3311024234  CLST          91          1.0000000000
       273        91  TIP3  H2            6.8819448286       -7.3594662388      -12.2168301656  CLST          91          1.0000000000
       274        92  TIP3  OH2           9.8497153225       11.4742606772        2.5175443994  CLST          92          1.0000000000
       275        92  TIP3  H1           10.1269272323       11.7666186293        3.4369441165  CLST          92          1.0000000000
       276        92  TIP3  H2            9.5881952131       12.3369426093        2.1415716097  CLST          92          1.0000000000
       277        93  TIP3  OH2          -8.7310466364        7.3527837163        2.6971237613  CLST          93          1.0000000000
       278        93  TIP3  H1           -8.2882099632        8.0426360216        2.1654679106  CLST          93          1.0000000000
       279        93  TIP3  H2           -8.0153693314        6.9685556018        3.2484999326  CLST          93          1.0000000000
       280        94  TIP3  OH2         -14.2394116372        6.4477634090        6.4803628731  CLST          94          1.0000000000
       281        94  TIP3  H1          -13.5033438578        7.1093404193        6.3706357918  CLST          94          1.0000000000
       282        94  TIP3  H2          -14.3492402832        6.2845692799        5.5077476578  CLST          94          1.0000000000
       283        95  TIP3  OH2           9.7991313390        5.6514618654       -1.8509005178  CLST          95          1.0000000000
       284        95  TIP3  H1            9.8409501116        6.0032476093       -0.9102556334  CLST          95          1.0000000000
       285        95  TIP3  H2           10.3661435086        4.8404610653       -1.6063814011  CLST          95          1.0000000000
       286        96  TIP3  OH2           9.5396350107      -10.9282720310       11.2482990193  CLST          96          1.0000000000
       287        96  TIP3  H1           10.2432101476      -11.1751875112       10.5890482811  CLST          96          1.0000000000
       288        96  TIP3  H2            9.0253787793      -11.7655181220       11.3378857968  CLST          96          1.0000000000
       289        97  TIP3  OH2          -7.6708643401        6.8935993181        8.4242934402  CLST          97          1.0000000000
       290        97  TIP3  H1           -7.3429527039        5.9815745109        8.7886530816  CLST          97          1.0000000000
       291        97  TIP3  H2           -8.6687824429        6.6371303550        8.4146343587  CLST          97          1.0000000000
       292        98  TIP3  OH2           5.9655967085        0.5279274143       -3.4415960232  CLST          98          1.0000000000
       293        98  TIP3  H1            6.6582831360        0.2102339889       -2.8054797912  CLST          98          1.0000000000
       294        98  TIP3  H2            5.2340128373        0.0132909625       -2.9940092413  CLST          98          1.0000000000
       295        99  TIP3  OH2          -6.8412429277      -11.5511348139        4.8599895863  CLST          99          1.0000000000
       296        99  TIP3  H1           -6.9354309631      -11.2847194494        5.7787900137  CLST          99          1.0000000000
       297        99  TIP3  H2           -6.1317955404      -12.1932604397        5.0075826948  CLST          99          1.0000000000
       298       100  TIP3  OH2           2.3613203848        0.3395481159       -9.2123529283  CLST         100          1.0000000000
       299       100  TIP3  H1            2.7534629730        0.4494874228      -10.1374370218  CLST         100          1.0000000000
       300       100  TIP3  H2            2.5437613717        1.2513913053       -8.9301512591  CLST         100          1.0000000000
       301       101  TIP3  OH2          12.5147311694       -7.0217142429        3.7031288189  CLST         101          1.0000000000
       302       101  TIP3  H1           12.6069398321       -7.5174666377        4.5757935408  CLST         101          1.0000000000
       303       101  TIP3  H2           13.2018311679       -6.3813256303        3.7759536301  CLST         101          1.0000000000
       304       102  TIP3  OH2         -12.1971389655       10.3004308210        1.3208235743  CLST         102          1.0000000000
       305       102  TIP3  H1          -13.5698511261        9.9303468199        2.5215940458  CLST         102          1.0000000000
       306       102  TIP3  H2          -12.7321323053       10.2398077268        0.5772308875  CLST         102          1.0000000000
       307       103  TIP3  OH2          -0.7337775916       -9.2880227414        7.7598781888  CLST         103          1.0000000000
       308       103  TIP3  H1           -0.0515096802       -9.4624543978        8.5082575068  CLST         103          1.0000000000
       309       103  TIP3  H2           -1.3324199859      -10.0307934546        8.0358100257  CLST         103          1.0000000000
       310       104  TIP3  OH2          -4.3452670413      -12.2471219687       10.0024983804  CLST         104          1.0000000000
       311       104  TIP3  H1           -4.8897979016      -11.8464223183       10.7297954064  CLST         104          1.0000000000
       312       104  TIP3  H2           -5.0507665114      -12.6832429571        9.4971724474  CLST         104          1.0000000000
       313       105  TIP3  OH2          -5.2931908354       10.6168085018      -11.4369022046  CLST         105          1.0000000000
       314       105  TIP3  H1           -4.7483375938       11.1885813627      -12.1945145040  CLST         105          1.0000000000
       315       105  TIP3  H2           -5.9900540620       10.3095770225      -12.0250531626  CLST         105          1.0000000000
       316       106  TIP3  OH2           7.2292926220       -8.1002699183       -1.4135386107  CLST         106          1.0000000000
       317       106  TIP3  H1            7.9741142313       -7.5259263403       -1.1764557966  CLST         106          1.0000000000
       318       106  TIP3  H2            7.7068348654       -8.9721164307       -1.4576887804  CLST         106          1.0000000000
       319       107  TIP3  OH2          -8.1855846190       -4.8176913553        4.9102161525  CLST         107          1.0000000000
       320       107  TIP3  H1           -8.7534312605       -4.2927616597        4.3060068061  CLST         107          1.0000000000
       321       107  TIP3  H2           -7.2647697724       -4.4833162210        4.7362211267  CLST         107          1.0000000000
       322       108  TIP3  OH2         -10.6204755884        2.0111899588        9.4748929281  CLST         108          1.0000000000
       323       108  TIP3  H1           -9.6437491948        1.8050541875        9.4241195699  CLST         108          1.0000000000
       324       108  TIP3  H2          -10.9655504351        1.1890312426        9.9382149026  CLST         108          1.0000000000
       325       109  TIP3  OH2           2.4047173251        7.0325820714        8.8736860182  CLST         109          1.0000000000
       326       109  TIP3  H1            1.7722202879        6.4997778419        9.4023198838  CLST         109          1.0000000000
       327       109  TIP3  H2            3.1651746827        6.3830264182        8.8073605075  CLST         109          1.0000000000
       328       110  TIP3  OH2           1.6358484074       12.3988187402      -10.9150781081  CLST         110          1.0000000000
       329       110  TIP3  H1            2.4776226460       12.4227322043      -10.5098656554  CLST         110          1.0000000000
       330       110  TIP3  H2            1.0192365156       12.3842721392      -10.0190689284  CLST         110          1.0000000000
       331       111  TIP3  OH2          11.7023926090      -11.6270355054        9.5102144041  CLST         111          1.0000000000
       332       111  TIP3  H1           12.3873677602      -12.1089747458        9.9270004450  CLST         111          1.0000000000
       333       111  TIP3  H2           11.2977867249      -12.3958440631        9.0325022912  CLST         111          1.0000000000
       334       112  TIP3  OH2           6.2577766573        0.1122655049        1.7876962430  CLST         112          1.0000000000
       335       112  TIP3  H1            6.9788437128        0.8215073469        1.8646919754  CLST         112          1.0000000000
       336       112  TIP3  H2            6.1024031928       -0.0890800423        2.7673564236  CLST         112          1.0000000000
       337       113  TIP3  OH2         -12.9322043718        1.1208443579       -0.0247957525  CLST         113          1.0000000000
       338       113  TIP3  H1          -13.4955558615        0.2882825387       -0.1242215857  CLST         113          1.0000000000
       339       113  TIP3  H2          -12.3781672855        1.0094355273       -0.8272869747  CLST         113          1.0000000000
       340       114  TIP3  OH2         -13.9771352494        3.5918028248       -0.3680176339  CLST         114          1.0000000000
       341       114  TIP3  H1          -13.7395699979        2.6565460604       -0.1132751003  CLST         114          1.0000000000
       342       114  TIP3  H2          -13.3883626098        3.5714750158       -1.1935867540  CLST         114          1.0000000000
       343       115  TIP3  OH2          -8.9177117700        0.4328555647      -10.8007793855  CLST         115          1.0000000000
       344       115  TIP3  H1           -8.2997031621        0.9841762490      -11.3631177418  CLST         115          1.0000000000
       345       115  TIP3  H2           -9.3782957469        1.2370190848      -10.4994469921  CLST         115          1.0000000000
       346       116  TIP3  OH2           6.9398414203       -5.6874861415        2.1033692423  CLST         116          1.0000000000
       347       116  TIP3  H1            7.5332748235       -5.7686692382        1.3366021767  CLST         116          1.0000000000
       348       116  TIP3  H2            7.0100156048       -4.7380846850        2.3473553748  CLST         116          1.0000000000
       349       117  TIP3  OH2          -0.7418035424        0.1357314534       12.4310654368  CLST         117          1.0000000000
       350       117  TIP3  H1            0.0500702984       -0.3715078453       12.7967290256  CLST         117          1.0000000000
       351       117  TIP3  H2           -0.8249280017        0.8220294920       13.0510026397  CLST         117          1.0000000000
       352       118  TIP3  OH2           0.2293699243       -9.5352596130        4.9869354175  CLST         118          1.0000000000
       353       118  TIP3  H1           -0.0687532434       -9.3684632452        5.9519065616  CLST         118          1.0000000000
       354       118  TIP3  H2           -0.1772370387       -8.7769306686        4.5225973320  CLST         118          1.0000000000
       355       119  TIP3  OH2          -9.2500127797      -10.4854168450       -8.7754799592  CLST         119          1.0000000000
       356       119  TIP3  H1           -9.4979688115      -11.0515455038       -9.7665585189  CLST         119          1.0000000000
       357       119  TIP3  H2           -8.8949665838       -9.7287043326       -9.2419490613  CLST         119          1.0000000000
       358       120  TIP3  OH2           9.6422614752       -7.8549531176        1.3259750707  CLST         120          1.0000000000
       359       120  TIP3  H1            8.8934947100       -8.4833343425        1.1316120085  CLST         120          1.0000000000
       360       120  TIP3  H2            9.4634278185       -7.1081343675        0.6947603704  CLST         120          1.0000000000
       361       121  TIP3  OH2          -5.7185644010       -0.3773616822       -8.1914027376  CLST         121          1.0000000000
       362       121  TIP3  H1           -5.5756878820       -0.1058744658       -9.1383453412  CLST         121          1.0000000000
       363       121  TIP3  H2           -4.9833855839       -1.0443668777       -8.1173659996  CLST         121          1.0000000000
       364       122  TIP3  OH2          10.3577921245       12.0444911082        5.1295239570  CLST         122          1.0000000000
       365       122  TIP3  H1            9.5456156593       12.4430539452        5.5202247550  CLST         122          1.0000000000
       366       122  TIP3  H2           10.9767028293       12.1806358590        5.8686302583  CLST         122          1.0000000000
       367       123  TIP3  OH2          -7.4551169471       -5.4640650002      -11.2643151392  CLST         123          1.0000000000
       368       123  TIP3  H1           -6.7707767876       -6.0992571992      -11.5150048434  CLST         123          1.0000000000
       369       123  TIP3  H2           -7.2980216162       -5.4485097402      -10.2833764940  CLST         123          1.0000000000
       370       124  TIP3  OH2          -6.0945723216       -8.7556425781      -10.8081312148  CLST         124          1.0000000000
       371       124  TIP3  H1           -5.3552076917       -8.9998441494      -10.1924354656  CLST         124          1.0000000000
       372       124  TIP3  H2           -6.7238645055       -8.4047096286      -10.0625899537  CLST         124          1.0000000000
       373       125  TIP3  OH2         -13.4762372860        4.1761209030        8.1657721726  CLST         125          1.0000000000
       374       125  TIP3  H1          -13.2673877967        3.4108175213        7.5823899850  CLST         125          1.0000000000
       375       125  TIP3  H2          -13.7984302124        4.8439487718        7.5006810502  CLST         125          1.0000000000
       376       126  TIP3  OH2          -7.0891117969      -10.8211901803      -12.1602673060  CLST         126          1.0000000000
       377       126  TIP3  H1           -6.2853642755      -11.4155086047      -11.8783920815  CLST         126          1.0000000000
       378       126  TIP3  H2           -6.8273326217       -9.9819315711      -11.5794379160  CLST         126          1.0000000000
       379       127  TIP3  OH2          -7.4926525038      -11.6949442937       -7.0285990095  CLST         127          1.0000000000
       380       127  TIP3  H1           -8.1250721599      -12.4776661322       -7.0308808867  CLST         127          1.0000000000
       381       127  TIP3  H2           -7.9906500261      -11.1945197745       -7.7221871944  CLST         127          1.0000000000
       382       128  TIP3  OH2           9.9497115052        0.9380751666       -2.3830655588  CLST         128          1.0000000000
       383       128  TIP3  H1            9.0832951587        0.5154434391       -2.2818316203  CLST         128          1.0000000000
       384       128  TIP3  H2            9.7985254592        1.3557892785       -3.2775315663  CLST         128          1.0000000000
       385       129  TIP3  OH2          -7.6975866890        9.5525354839        0.9399859977  CLST         129          1.0000000000
       386       129  TIP3  H1           -6.8421465635       10.0169498474        1.2722159727  CLST         129          1.0000000000
       387       129  TIP3  H2           -7.1630947166        8.8048898631        0.4978601525  CLST         129          1.0000000000
       388       130  TIP3  OH2          -4.1716713501        3.9443409252       10.0753863571  CLST         130          1.0000000000
       389       130  TIP3  H1           -3.5991809381        4.7342440291       10.0699013443  CLST         130          1.0000000000
       390       130  TIP3  H2           -3.8210233792        3.4788180475       10.8843000674  CLST         130          1.0000000000
       391       131  TIP3  OH2           7.7033507749       -3.7682018784      -10.0403796005  CLST         131          1.0000000000
       392       131  TIP3  H1            7.7578208651       -3.0939410246       -9.2873979073  CLST         131          1.0000000000
       393       131  TIP3  H2            6.7131268239       -3.9523940431       -9.9243449730  CLST         131          1.0000000000
       394       132  TIP3  OH2         -11.4273937594       11.4515224464       12.2913226585  CLST         132          1.0000000000
       395       132  TIP3  H1          -11.0341634532       12.1590272644       11.7022866100  CLST         132          1.0000000000
       396       132  TIP3  H2          -12.0770035880       11.7123462669       12.7309607942  CLST         132          1.0000000000
       397       133  TIP3  OH2          10.2439736123        9.2422285041        8.5579690108  CLST         133          1.0000000000
       398       133  TIP3  H1           10.4170586538        8.7992169417        9.4246505672  CLST         133          1.0000000000
       399       133  TIP3  H2           11.0485297770        9.8289499918        8.5930248582  CLST         133          1.0000000000
       400       134  TIP3  OH2          -7.7122247273        5.7873147083       -5.9676976927  CLST         134          1.0000000000
       401       134  TIP3  H1           -8.4512899921        6.3690915402       -5.8287790685  CLST         134          1.0000000000
       402       134  TIP3  H2           -7.3350068897        5.7456747871       -5.0488844616  CLST         134          1.0000000000
       403       135  TIP3  OH2          10.7952137944      -11.0285786112      -13.0445540137  CLST         135          1.0000000000
       404       135  TIP3  H1           10.8949516788      -10.0364132399      -12.4841124747  CLST         135          1.0000000000
       405       135  TIP3  H2           11.2166934852      -11.0464259764      -13.7646902811  CLST         135          1.0000000000
       406       136  TIP3  OH2          -4.3434874310        1.8009847514       -6.9832720513  CLST         136          1.0000000000
       407       136  TIP3  H1           -4.8102109125        0.9630387601       -7.3616074273  CLST         136          1.0000000000
       408       136  TIP3  H2           -5.1722194069        2.1197355853       -6.4935523015  CLST         136          1.0000000000
       409       137  TIP3  OH2          12.7803215241       10.4645699458        9.0603101137  CLST         137          1.0000000000
       410       137  TIP3  H1           12.8036248889       10.2629552821       10.0213183417  CLST         137          1.0000000000
       411       137  TIP3  H2           13.4004918565        9.7660678377        8.7969369347  CLST         137          1.0000000000
       412       138  TIP3  OH2          -0.7612631934      -10.0894192086        1.6824620924  CLST         138          1.0000000000
       413       138  TIP3  H1           -0.9581755501       -9.6080624912        0.8509036858  CLST         138          1.0000000000
       414       138  TIP3  H2           -0.8572468535       -9.3456808411        2.3410838750  CLST         138          1.0000000000
       415       139  TIP3  OH2          -9.5230302507      -10.7222444440        4.5410433719  CLST         139          1.0000000000
       416       139  TIP3  H1          -10.0674330225      -10.8573321511        3.7746882337  CLST         139          1.0000000000
       417       139  TIP3  H2           -8.7493530331      -11.2937719438        4.3517407925  CLST         139          1.0000000000
       418       140  TIP3  OH2          -7.1106773405        3.4059186751       -0.3557984480  CLST         140          1.0000000000
       419       140  TIP3  H1           -6.2766941933        3.9057823095       -0.1911865386  CLST         140          1.0000000000
       420       140  TIP3  H2           -7.6944094499        4.1554798256       -0.6060693899  CLST         140          1.0000000000
       421       141  TIP3  OH2           2.0723781473       -4.3356209855       -3.5852646349  CLST         141          1.0000000000
       422       141  TIP3  H1            1.7325344474       -3.4733349943       -3.2066715911  CLST         141          1.0000000000
       423       141  TIP3  H2            2.7805025741       -3.9250662664       -4.1183570746  CLST         141          1.0000000000
       424       142  TIP3  OH2         -11.8068316386        0.0011234660        4.7227742185  CLST         142          1.0000000000
       425       142  TIP3  H1          -11.8164200297        0.6368368579        5.4667766194  CLST         142          1.0000000000
       426       142  TIP3  H2          -12.1620053387        0.6009748595        4.0361787479  CLST         142          1.0000000000
       427       143  TIP3  OH2           9.3739912131       -5.6015562459       -8.1781569488  CLST         143          1.0000000000
       428       143  TIP3  H1            9.6034476660       -4.9271141000       -8.8328262086  CLST         143          1.0000000000
       429       143  TIP3  H2            9.9717500404       -6.3432803336       -8.4744918021  CLST         143          1.0000000000
       430       144  TIP3  OH2           3.3976201397       -2.9206120902        8.9842356859  CLST         144          1.0000000000
       431       144  TIP3  H1            2.6500442824       -2.5720478901        9.5383992318  CLST         144          1.0000000000
       432       144  TIP3  H2            3.3688515567       -2.1760130120        8.3008240443  CLST         144          1.0000000000
       433       145  TIP3  OH2         -10.3785800591       13.4974245514        3.2386955635  CLST         145          1.0000000000
       434       145  TIP3  H1          -10.7471985945       13.4305238182        2.3199276699  CLST         145          1.0000000000
       435       145  TIP3  H2          -10.0956775878       12.4918494493        3.2493727954  CLST         145          1.0000000000
       436       146  TIP3  OH2           9.1457270556        2.6729598263       -4.3958602295  CLST         146          1.0000000000
       437       146  TIP3  H1            8.9411494776        3.6304965929       -4.1834680688  CLST         146          1.0000000000
       438       146  TIP3  H2            8.3402389687        2.6222313570       -5.0180690269  CLST         146          1.0000000000
       439       147  TIP3  OH2         -11.0663459786       -0.4704248881       -4.1096429088  CLST         147          1.0000000000
       440       147  TIP3  H1          -10.1124146811       -0.7851787499       -4.2897679545  CLST         147          1.0000000000
       441       147  TIP3  H2          -11.4084837860       -0.6457211129       -5.0149893284  CLST         147          1.0000000000
       442       148  TIP3  OH2          -7.9916387550        1.4688086761        8.9402484267  CLST         148          1.0000000000
       443       148  TIP3  H1           -7.9283802384        1.0809683667        8.0178249223  CLST         148          1.0000000000
       444       148  TIP3  H2           -6.9794112069        1.6059286381        8.9830831927  CLST         148          1.0000000000
       445       149  TIP3  OH2           8.7597865955       -2.9614031986        0.8028495601  CLST         149          1.0000000000
       446       149  TIP3  H1            9.4533482172       -2.2712743586        0.7354222464  CLST         149          1.0000000000
       447       149  TIP3  H2            8.3090464329       -2.6383367593        1.6242454179  CLST         149          1.0000000000
       448       150  TIP3  OH2          -2.0903815701      -11.5333909432        8.5298889759  CLST         150          1.0000000000
       449       150  TIP3  H1           -2.9477956888      -11.7542326397        8.9435415187  CLST         150          1.0000000000
       450       150  TIP3  H2           -1.4532376200      -11.9062188526        9.2133589877  CLST         150          1.0000000000
       451       151  TIP3  OH2          -9.0835613150       -6.5698783460       -5.0114069398  CLST         151          1.0000000000
       452       151  TIP3  H1           -8.1265063575       -6.6457349588       -4.6106535047  CLST         151          1.0000000000
       453       151  TIP3  H2           -8.8824789662       -7.4018057738       -5.5734627696  CLST         151          1.0000000000
       454       152  TIP3  OH2           4.1715420732       -2.1752589611        5.1368590488  CLST         152          1.0000000000
       455       152  TIP3  H1            4.6545385633       -2.9384800952        5.5921380587  CLST         152          1.0000000000
       456       152  TIP3  H2            3.9832434086       -2.5479835513        4.2538177047  CLST         152          1.0000000000
       457       153  TIP3  OH2          -2.6965299101        4.9003272674      -14.1396148394  CLST         153          1.0000000000
       458       153  TIP3  H1           -1.7876054682        5.2616826812      -13.9734359158  CLST         153          1.0000000000
       459       153  TIP3  H2           -2.7894114140        4.6675608969      -13.1846055784  CLST         153          1.0000000000
       460       154  TIP3  OH2           4.4553400193       -6.8188891557        2.1883875534  CLST         154          1.0000000000
       461       154  TIP3  H1            5.3510105245       -6.3681824349        1.9972796732  CLST         154          1.0000000000
       462       154  TIP3  H2            3.8023974192       -6.3782986513        1.6442874696  CLST         154          1.0000000000
       463       155  TIP3  OH2           9.4265946916       -2.5093575680       10.2416641578  CLST         155          1.0000000000
       464       155  TIP3  H1            8.8615081260       -2.9245362439        9.5802231241  CLST         155          1.0000000000
       465       155  TIP3  H2           10.0370225999       -3.2363972172       10.4194460889  CLST         155          1.0000000000
       466       156  TIP3  OH2          -2.2728193126       11.1658100206       11.8052084518  CLST         156          1.0000000000
       467       156  TIP3  H1           -3.1308445384       11.6741554010       11.7633546849  CLST         156          1.0000000000
       468       156  TIP3  H2           -2.7307468720       10.3790618985       12.1771827938  CLST         156          1.0000000000
       469       157  TIP3  OH2           3.8532284690       -0.9482485115        7.3725790252  CLST         157          1.0000000000
       470       157  TIP3  H1            4.7564270241       -0.8821338541        7.7557139801  CLST         157          1.0000000000
       471       157  TIP3  H2            3.9930508117       -1.3327597463        6.4862470426  CLST         157          1.0000000000
       472       158  TIP3  OH2          10.6699062578        9.0668044061       13.1113700751  CLST         158          1.0000000000
       473       158  TIP3  H1            9.7945347875        8.6410442970       13.2387821142  CLST         158          1.0000000000
       474       158  TIP3  H2           10.2726041166        9.8179750440       12.6072777402  CLST         158          1.0000000000
       475       159  TIP3  OH2           0.3986948610      -12.0294666999        4.2793133288  CLST         159          1.0000000000
       476       159  TIP3  H1           -0.1301024595      -12.3928675066        5.0750433476  CLST         159          1.0000000000
       477       159  TIP3  H2            0.1285837512      -11.0995216167        4.5086732651  CLST         159          1.0000000000
       478       160  TIP3  OH2           7.0980087568       -3.5567096661        8.5188238450  CLST         160          1.0000000000
       479       160  TIP3  H1            6.5809140383       -3.6572224666        7.6752458227  CLST         160          1.0000000000
       480       160  TIP3  H2            6.8249213480       -2.6196083040        8.6294815571  CLST         160          1.0000000000
       481       161  TIP3  OH2          -2.4343615053       -2.3190474198        7.8382574441  CLST         161          1.0000000000
       482       161  TIP3  H1           -1.9903130518       -1.7791477722        8.5467609587  CLST         161          1.0000000000
       483       161  TIP3  H2           -3.3554201137       -2.2727329186        8.1763822456  CLST         161          1.0000000000
       484       162  TIP3  OH2          -0.7952994287        3.6899976620      -10.7186635153  CLST         162          1.0000000000
       485       162  TIP3  H1           -0.5703902111        4.4684847629      -11.2596246368  CLST         162          1.0000000000
       486       162  TIP3  H2           -0.8392053869        3.9431949640       -9.7668012112  CLST         162          1.0000000000
       487       163  TIP3  OH2         -10.2951919966        9.2435325912       11.2511385646  CLST         163          1.0000000000
       488       163  TIP3  H1          -10.9245891068        8.4470740503       11.3987493570  CLST         163          1.0000000000
       489       163  TIP3  H2          -10.7029437451        9.9393456690       11.7990099405  CLST         163          1.0000000000
       490       164  TIP3  OH2           4.0606443982      -10.6338483185       12.9260319378  CLST         164          1.0000000000
       491       164  TIP3  H1            4.5379680888       -9.7240752006       12.8577093607  CLST         164          1.0000000000
       492       164  TIP3  H2            4.8617128908      -11.1603153234       12.5595438770  CLST         164          1.0000000000
       493       165  TIP3  OH2         -11.9626826950       -5.5061664797        3.5149897553  CLST         165          1.0000000000
       494       165  TIP3  H1          -11.7399241930       -5.6270996239        4.5382973882  CLST         165          1.0000000000
       495       165  TIP3  H2          -12.8834290767       -5.4537370102        3.5547096919  CLST         165          1.0000000000
       496       166  TIP3  OH2          -1.4732184343       -6.2896558766      -10.4819553551  CLST         166          1.0000000000
       497       166  TIP3  H1           -0.4917602569       -6.3648571557      -10.5641058092  CLST         166          1.0000000000
       498       166  TIP3  H2           -1.6666769487       -7.2264607213      -10.5317595558  CLST         166          1.0000000000
       499       167  TIP3  OH2           7.9625333654       10.4603720196       -0.8940765173  CLST         167          1.0000000000
       500       167  TIP3  H1            8.5900109849       10.0000956308       -0.2562372882  CLST         167          1.0000000000
       501       167  TIP3  H2            8.4381324567       10.2460199887       -1.7323106456  CLST         167          1.0000000000
       502       168  TIP3  OH2          -0.6026227869      -13.2537797825        2.1138291063  CLST         168          1.0000000000
       503       168  TIP3  H1           -0.2851007456      -12.7693868239        2.9090594332  CLST         168          1.0000000000
       504       168  TIP3  H2            0.2286917234      -13.6816207513        1.8607229439  CLST         168          1.0000000000
       505       169  TIP3  OH2           5.0052870813        4.1385306379        3.3615963303  CLST         169          1.0000000000
       506       169  TIP3  H1            4.0476650532        3.8812349762        3.3662235431  CLST         169          1.0000000000
       507       169  TIP3  H2            5.0720665032        4.6876351595        2.5330636607  CLST         169          1.0000000000
       508       170  TIP3  OH2          -1.1639890422        4.2858390349        1.6379700555  CLST         170          1.0000000000
       509       170  TIP3  H1           -1.8662748879        5.0077037125        1.5173682261  CLST         170          1.0000000000
       510       170  TIP3  H2           -1.6142022606        3.4448377592        1.5152305312  CLST         170          1.0000000000
       511       171  TIP3  OH2          -3.0180653280        1.2227865821        7.2916300862  CLST         171          1.0000000000
       512       171  TIP3  H1           -2.7035924278        0.6818097248        6.4982310290  CLST         171          1.0000000000
       513       171  TIP3  H2           -2.1273984181        1.6019510867        7.5159785427  CLST         171          1.0000000000
       514       172  TIP3  OH2          -6.2749850762      -13.0899664441        8.1668169016  CLST         172          1.0000000000
       515       172  TIP3  H1           -6.3652604520      -13.9988802212        7.9885159643  CLST         172          1.0000000000
       516       172  TIP3  H2           -5.6564071347      -12.8403408666        7.4077240507  CLST         172          1.0000000000
       517       173  TIP3  OH2          10.3716028699      -12.4828955288        1.8669835624  CLST         173          1.0000000000
       518       173  TIP3  H1           10.3941252369      -12.4375867751        0.3647064358  CLST         173          1.0000000000
       519       173  TIP3  H2            9.3093731986      -12.6423220066        1.5239487276  CLST         173          1.0000000000
       520       174  TIP3  OH2           0.1302403233        5.6281339530        9.8033182379  CLST         174          1.0000000000
       521       174  TIP3  H1           -0.0851777246        4.7925166487       10.2320055942  CLST         174          1.0000000000
       522       174  TIP3  H2           -0.7177098688        6.1100403661        9.8595238855  CLST         174          1.0000000000
       523       175  TIP3  OH2          -5.6818303177       10.3169006136       -3.5462868071  CLST         175          1.0000000000
       524       175  TIP3  H1           -5.6817027538        9.7434279783       -5.6219820815  CLST         175          1.0000000000
       525       175  TIP3  H2           -6.2361050071        9.9170308168       -4.7191661966  CLST         175          1.0000000000
       526       176  TIP3  OH2           6.7416310260        9.3298691533       -7.7741486107  CLST         176          1.0000000000
       527       176  TIP3  H1            7.2486158764       10.1295999724       -8.0394584225  CLST         176          1.0000000000
       528       176  TIP3  H2            6.1582247087        9.7275683043       -7.0879790385  CLST         176          1.0000000000
       529       177  TIP3  OH2          -3.6796112960      -11.3115536931       -1.4095907624  CLST         177          1.0000000000
       530       177  TIP3  H1           -3.1855867200      -12.0424223583       -0.9278674426  CLST         177          1.0000000000
       531       177  TIP3  H2           -4.3610523345      -11.1429363246       -0.7247379298  CLST         177          1.0000000000
       532       178  TIP3  OH2          10.8069865010       -8.9603136900      -11.5641999192  CLST         178          1.0000000000
       533       178  TIP3  H1           11.1849337058       -8.8038615268      -10.6892127093  CLST         178          1.0000000000
       534       178  TIP3  H2           10.6101812004       -8.0282411925      -11.7864578452  CLST         178          1.0000000000
       535       179  TIP3  OH2           6.4489032065       -0.9504271128        8.4031871696  CLST         179          1.0000000000
       536       179  TIP3  H1            6.1718037179       -0.3438379005        9.1676939521  CLST         179          1.0000000000
       537       179  TIP3  H2            7.1111765464       -0.3510773462        8.0004384856  CLST         179          1.0000000000
       538       180  TIP3  OH2          -7.6430078067        8.0174545110        6.0229387135  CLST         180          1.0000000000
       539       180  TIP3  H1           -7.5759076279        7.6596361313        6.9684777858  CLST         180          1.0000000000
       540       180  TIP3  H2           -8.6238502247        8.0171802892        5.9525929041  CLST         180          1.0000000000
       541       181  TIP3  OH2           5.8855264400      -13.1484175294       -0.3009452001  CLST         181          1.0000000000
       542       181  TIP3  H1            6.6028085540      -13.0587922859       -0.9339622007  CLST         181          1.0000000000
       543       181  TIP3  H2            6.3511269716      -12.9700950802        0.5611608979  CLST         181          1.0000000000
       544       182  TIP3  OH2          -1.6643422395       10.4944147699      -10.5362299794  CLST         182          1.0000000000
       545       182  TIP3  H1           -0.9394119714       10.8340360753      -10.0322045610  CLST         182          1.0000000000
       546       182  TIP3  H2           -2.3658146748       10.3080200603       -9.9358829027  CLST         182          1.0000000000
       547       183  TIP3  OH2          -5.3240868045        3.5241256039      -12.3386280621  CLST         183          1.0000000000
       548       183  TIP3  H1           -5.2387464556        3.5265452285      -11.3397612082  CLST         183          1.0000000000
       549       183  TIP3  H2           -6.2652733519        3.1364419693      -12.3738898968  CLST         183          1.0000000000
       550       184  TIP3  OH2           3.0897254388        8.3999717940       -2.4931597450  CLST         184          1.0000000000
       551       184  TIP3  H1            3.2928553075        7.7592214939       -1.7769152062  CLST         184          1.0000000000
       552       184  TIP3  H2            2.1205565622        8.1785191369       -2.6060996213  CLST         184          1.0000000000
       553       185  TIP3  OH2           7.3768366030        4.5510143632       12.0398962131  CLST         185          1.0000000000
       554       185  TIP3  H1            7.5871788914        3.5441007196       12.1044479851  CLST         185          1.0000000000
       555       185  TIP3  H2            7.0515927735        4.7132035103       12.9356076028  CLST         185          1.0000000000
       556       186  TIP3  OH2           3.7211060785        5.8563425866       -5.0199677750  CLST         186          1.0000000000
       557       186  TIP3  H1            4.1310043208        6.7592241810       -5.1725570548  CLST         186          1.0000000000
       558       186  TIP3  H2            3.8962017564        5.4603803727       -5.9083064508  CLST         186          1.0000000000
       559       187  TIP3  OH2           4.0621169864        1.6844857502       -5.4570877749  CLST         187          1.0000000000
       560       187  TIP3  H1            4.4503267052        1.4449272054       -4.5798211293  CLST         187          1.0000000000
       561       187  TIP3  H2            3.6574661704        0.7632374799       -5.5922210856  CLST         187          1.0000000000
       562       188  TIP3  OH2          -4.5067323645       -1.6681061865        4.8891164799  CLST         188          1.0000000000
       563       188  TIP3  H1           -4.7276012217       -0.8377170055        4.3800140381  CLST         188          1.0000000000
       564       188  TIP3  H2           -4.8045057282       -1.3168513232        5.7675334361  CLST         188          1.0000000000
       565       189  TIP3  OH2          -4.9533526835        3.4095112453      -15.1232408837  CLST         189          1.0000000000
       566       189  TIP3  H1           -4.9266544240        3.5115802217      -14.1462403033  CLST         189          1.0000000000
       567       189  TIP3  H2           -4.1282580724        3.9195964281      -15.2370560422  CLST         189          1.0000000000
       568       190  TIP3  OH2           7.0755849691       -5.5911779783        5.1083214490  CLST         190          1.0000000000
       569       190  TIP3  H1            7.0963681349       -5.7924541683        4.1559337613  CLST         190          1.0000000000
       570       190  TIP3  H2            8.0204330633       -5.6570571139        5.3335658438  CLST         190          1.0000000000
       571       191  TIP3  OH2         -10.9214055666       -5.0684932579       -6.4906152523  CLST         191          1.0000000000
       572       191  TIP3  H1          -10.2329942867       -4.6739048169       -7.1080947204  CLST         191          1.0000000000
       573       191  TIP3  H2          -10.3106389306       -5.7019553342       -6.0133815806  CLST         191          1.0000000000
       574       192  TIP3  OH2           8.7664737973       14.2342730572        2.0023940203  CLST         192          1.0000000000
       575       192  TIP3  H1            8.2360624801       14.2234882625        2.8065902563  CLST         192          1.0000000000
       576       192  TIP3  H2            9.2708164965       15.0288237572        2.0418838190  CLST         192          1.0000000000
       577       193  TIP3  OH2           6.2295339649      -12.0434734953       11.6783598381  CLST         193          1.0000000000
       578       193  TIP3  H1            6.8762074949      -12.7291969881       11.6327838459  CLST         193          1.0000000000
       579       193  TIP3  H2            6.5428612749      -11.4502964644       10.9555309966  CLST         193          1.0000000000
       580       194  TIP3  OH2          -6.2046168350       -4.4496735628       11.0797296465  CLST         194          1.0000000000
       581       194  TIP3  H1           -6.7098608306       -4.7126531166       11.8446017157  CLST         194          1.0000000000
       582       194  TIP3  H2           -6.9125959479       -4.1832898304       10.4275194248  CLST         194          1.0000000000
       583       195  TIP3  OH2          -7.7085491503        9.2279548790       10.4396196562  CLST         195          1.0000000000
       584       195  TIP3  H1           -8.6533350310        9.0722922548       10.7469376803  CLST         195          1.0000000000
       585       195  TIP3  H2           -7.6765704977        8.6122516716        9.6753103582  CLST         195          1.0000000000
       586       196  TIP3  OH2           6.0605720263      -12.2416389783       -5.9570665203  CLST         196          1.0000000000
       587       196  TIP3  H1            6.3712263840      -11.5382985504       -6.5426590374  CLST         196          1.0000000000
       588       196  TIP3  H2            5.2221185979      -11.7600931940       -5.6677281348  CLST         196          1.0000000000
       589       197  TIP3  OH2           2.3201502921       -9.1588659940       -2.9953998974  CLST         197          1.0000000000
       590       197  TIP3  H1            1.8972631554       -8.2648830335       -2.7869491759  CLST         197          1.0000000000
       591       197  TIP3  H2            3.1940256187       -8.7464378325       -2.8564396271  CLST         197          1.0000000000
       592       198  TIP3  OH2          10.9296834111        1.8192482889        4.8078394553  CLST         198          1.0000000000
       593       198  TIP3  H1           10.0236079269        1.7211128413        4.5367657805  CLST         198          1.0000000000
       594       198  TIP3  H2           11.0031624411        2.7268646145        4.4082647039  CLST         198          1.0000000000
       595       199  TIP3  OH2          -0.0383905970        8.4853815844       -5.9280588650  CLST         199          1.0000000000
       596       199  TIP3  H1           -0.5894681869        8.9245241804       -5.2432912719  CLST         199          1.0000000000
       597       199  TIP3  H2           -0.4756090485        7.4862863554       -5.7572611954  CLST         199          1.0000000000
       598       200  TIP3  OH2          -7.4893786250       11.8106923001       11.0135982846  CLST         200          1.0000000000
       599       200  TIP3  H1           -7.4074298810       10.7566756243       10.8294727253  CLST         200          1.0000000000
       600       200  TIP3  H2           -7.1238907622       11.9794310194       10.0466888696  CLST         200          1.0000000000
       601       201  TIP3  OH2           4.4098464920        1.1068067855       -0.1669182134  CLST         201          1.0000000000
       602       201  TIP3  H1            3.6841908009        1.3169503362        0.4600034629  CLST         201          1.0000000000
       603       201  TIP3  H2            5.1044179894        0.7763381175        0.4720375282  CLST         201          1.0000000000
       604       202  TIP3  OH2          -2.1141575389       -4.3558011372      -12.3434690235  CLST         202          1.0000000000
       605       202  TIP3  H1           -1.8478067156       -4.9459308103      -11.5989907900  CLST         202          1.0000000000
       606       202  TIP3  H2           -2.6261865674       -3.6757105547      -11.8553653202  CLST         202          1.0000000000
       607       203  TIP3  OH2          -0.8263604790       11.4551810219        7.5242209872  CLST         203          1.0000000000
       608       203  TIP3  H1           -0.0631473780       11.0896090877        8.0145901081  CLST         203          1.0000000000
       609       203  TIP3  H2           -1.4923230733       10.9605056970        8.0552146547  CLST         203          1.0000000000
       610       204  TIP3  OH2          -5.4054148645        6.4276952534      -13.1932393039  CLST         204          1.0000000000
       611       204  TIP3  H1           -4.6874152427        6.5658771283      -13.8163897550  CLST         204          1.0000000000
       612       204  TIP3  H2           -5.5846954989        5.4641840970      -13.2394558599  CLST         204          1.0000000000
       613       205  TIP3  OH2          -2.3325038575        7.2614140685       -2.5535326104  CLST         205          1.0000000000
       614       205  TIP3  H1           -2.3687647598        7.9838999434       -3.5644256452  CLST         205          1.0000000000
       615       205  TIP3  H2           -0.6273695880        7.3000622838       -2.7259205618  CLST         205          1.0000000000
       616       206  TIP3  OH2           4.9277780788      -11.0444818330       -9.7282060483  CLST         206          1.0000000000
       617       206  TIP3  H1            4.9283932890      -11.9823678914       -9.3088751230  CLST         206          1.0000000000
       618       206  TIP3  H2            5.6041808711      -10.6496531497       -9.0859153517  CLST         206          1.0000000000
       619       207  TIP3  OH2          12.9897726625       10.0641313508       12.3531319046  CLST         207          1.0000000000
       620       207  TIP3  H1           12.2877421318        9.7758227025       12.9268209458  CLST         207          1.0000000000
       621       207  TIP3  H2           13.5521646134       10.0741253014       12.9603781637  CLST         207          1.0000000000
       622       208  TIP3  OH2         -11.6146355576        2.2823180958        6.8938844470  CLST         208          1.0000000000
       623       208  TIP3  H1          -11.2490530151        2.2102557675        7.8402961439  CLST         208          1.0000000000
       624       208  TIP3  H2          -11.2988290534        3.1703678532        6.6082845689  CLST         208          1.0000000000
       625       209  TIP3  OH2           4.5110347958       -9.3517852065        7.3206312550  CLST         209          1.0000000000
       626       209  TIP3  H1            4.1016094133       -9.8111427787        6.5172607189  CLST         209          1.0000000000
       627       209  TIP3  H2            3.6881541616       -8.7215303771        7.3385012963  CLST         209          1.0000000000
       628       210  TIP3  OH2          12.1128328071      -11.2540213575        5.2898401905  CLST         210          1.0000000000
       629       210  TIP3  H1           12.3400105570      -11.0630988415        4.3164079327  CLST         210          1.0000000000
       630       210  TIP3  H2           12.2476220667      -10.3511656776        5.6707285888  CLST         210          1.0000000000
       631       211  TIP3  OH2          -0.2390213428       -9.3359666215       12.1051464474  CLST         211          1.0000000000
       632       211  TIP3  H1            0.3573376831       -9.7871498124       12.8003558236  CLST         211          1.0000000000
       633       211  TIP3  H2           -0.9803652623      -10.0406057102       12.1485799532  CLST         211          1.0000000000
       634       212  TIP3  OH2         -12.3475051322        3.3703955246       -2.3971498278  CLST         212          1.0000000000
       635       212  TIP3  H1          -11.7970215423        4.0058649751       -2.9179621837  CLST         212          1.0000000000
       636       212  TIP3  H2          -11.8827548110        2.5264501978       -2.4334721125  CLST         212          1.0000000000
       637       213  TIP3  OH2          -9.4667068137      -11.4730119671      -11.2002809133  CLST         213          1.0000000000
       638       213  TIP3  H1           -8.2518446932      -11.1482144768      -11.2109773233  CLST         213          1.0000000000
       639       213  TIP3  H2           -7.4562794738      -10.8671646140      -12.9310896066  CLST         213          1.0000000000
       640       214  TIP3  OH2          -6.5598994367        2.2320827808       -5.4397614154  CLST         214          1.0000000000
       641       214  TIP3  H1           -6.4951425692        1.4194117230       -4.8781984249  CLST         214          1.0000000000
       642       214  TIP3  H2           -7.0141862009        2.8536226593       -4.7788985549  CLST         214          1.0000000000
       643       215  TIP3  OH2         -11.9420853179      -12.5817494419        5.7001462788  CLST         215          1.0000000000
       644       215  TIP3  H1          -10.9977113764      -12.3739335294        5.7192014895  CLST         215          1.0000000000
       645       215  TIP3  H2          -11.9429355270      -12.8205676414        4.7044278695  CLST         215          1.0000000000
       646       216  TIP3  OH2         -11.7255522044       -2.2780799176        8.2327131343  CLST         216          1.0000000000
       647       216  TIP3  H1          -10.7338466131       -2.1122671156        8.1894942241  CLST         216          1.0000000000
       648       216  TIP3  H2          -11.6763503538       -3.1636915063        8.7291540197  CLST         216          1.0000000000
       649       217  TIP3  OH2           7.6808242109       -0.2770647368       -1.5636233072  CLST         217          1.0000000000
       650       217  TIP3  H1            8.1886408998       -1.0720055065       -1.8394706018  CLST         217          1.0000000000
       651       217  TIP3  H2            7.0703561252       -0.6377671326       -0.8629163844  CLST         217          1.0000000000
       652       218  TIP3  OH2          -8.1806969627       -3.9519300727        9.1569192989  CLST         218          1.0000000000
       653       218  TIP3  H1           -8.4957442518       -3.1265417917        8.6967353409  CLST         218          1.0000000000
       654       218  TIP3  H2           -7.5568758997       -4.2463050252        8.4651578975  CLST         218          1.0000000000
       655       219  TIP3  OH2         -12.5262366237       -4.5944321683       -2.8183693216  CLST         219          1.0000000000
       656       219  TIP3  H1          -12.4945189286       -3.6504594930       -2.4983504063  CLST         219          1.0000000000
       657       219  TIP3  H2          -12.8339202763       -4.3876787302       -3.7475504087  CLST         219          1.0000000000
       658       220  TIP3  OH2           6.4429382532        6.7790278661        7.5574097568  CLST         220          1.0000000000
       659       220  TIP3  H1            6.0481649591        6.3990500362        6.7039237173  CLST         220          1.0000000000
       660       220  TIP3  H2            5.5815648867        6.6623182768        8.0403353608  CLST         220          1.0000000000
       661       221  TIP3  OH2         -10.5188998272       -7.1533674202       10.1471184446  CLST         221          1.0000000000
       662       221  TIP3  H1           -9.5674914588       -7.3515247881       10.1701491839  CLST         221          1.0000000000
       663       221  TIP3  H2          -10.7730205709       -8.0353422057        9.7549534335  CLST         221          1.0000000000
       664       222  TIP3  OH2          -6.8886257027       -0.7767878083      -13.6842547235  CLST         222          1.0000000000
       665       222  TIP3  H1           -6.4169493961       -1.6684823384      -13.6157188926  CLST         222          1.0000000000
       666       222  TIP3  H2           -7.7947146498       -1.0395549053      -13.3437892578  CLST         222          1.0000000000
       667       223  TIP3  OH2           2.7276560801      -10.6907915576      -11.6417696340  CLST         223          1.0000000000
       668       223  TIP3  H1            2.0037439612      -11.9420340127      -11.4302562566  CLST         223          1.0000000000
       669       223  TIP3  H2            3.4773031892      -10.9427249265      -11.2283432443  CLST         223          1.0000000000
       670       224  TIP3  OH2           7.5161170639        4.6137391211        0.6440206501  CLST         224          1.0000000000
       671       224  TIP3  H1            8.4511846316        4.8837641029        0.5627586712  CLST         224          1.0000000000
       672       224  TIP3  H2            7.4100907097        4.2455963384       -0.2905783343  CLST         224          1.0000000000
       673       225  TIP3  OH2          -0.1128750170        4.6523087318       -1.2348854401  CLST         225          1.0000000000
       674       225  TIP3  H1           -0.7548039019        4.5658397029       -0.5195680896  CLST         225          1.0000000000
       675       225  TIP3  H2            0.0149438416        3.6388458391       -1.4318363316  CLST         225          1.0000000000
       676       226  TIP3  OH2          -5.9146939451       -4.4717178832        7.6853187309  CLST         226          1.0000000000
       677       226  TIP3  H1           -5.6874702260       -5.4601135424        7.8408606763  CLST         226          1.0000000000
       678       226  TIP3  H2           -5.9630175561       -4.3948199693        6.7023094169  CLST         226          1.0000000000
       679       227  TIP3  OH2          11.6324733734       -4.1600119906       -9.8034746651  CLST         227          1.0000000000
       680       227  TIP3  H1           12.0644866421       -3.7181741912       -9.0078719431  CLST         227          1.0000000000
       681       227  TIP3  H2           11.1587263516       -3.3184634730      -10.0867461232  CLST         227          1.0000000000
       682       228  TIP3  OH2           3.6740565745       12.5487280812        3.2274375217  CLST         228          1.0000000000
       683       228  TIP3  H1            2.0349250416       11.5098956629        3.6369167109  CLST         228          1.0000000000
       684       228  TIP3  H2            2.8726179896       12.4017991198        2.8759438664  CLST         228          1.0000000000
       685       229  TIP3  OH2         -11.5555857035      -13.1153176345        2.9883441169  CLST         229          1.0000000000
       686       229  TIP3  H1          -11.7411420574      -13.8255128770        2.5714332984  CLST         229          1.0000000000
       687       229  TIP3  H2          -11.1639335115      -12.4043810924        2.3185473061  CLST         229          1.0000000000
       688       230  TIP3  OH2          12.3722284137        6.5004265151       -3.3202640470  CLST         230          1.0000000000
       689       230  TIP3  H1           13.1122604014        6.0537983216       -3.7108166062  CLST         230          1.0000000000
       690       230  TIP3  H2           11.8955543692        5.6843630503       -3.0588314816  CLST         230          1.0000000000
       691       231  TIP3  OH2           7.2130983852        3.2390750003        4.6880327643  CLST         231          1.0000000000
       692       231  TIP3  H1            7.4431093824        4.2166755751        4.7762341936  CLST         231          1.0000000000
       693       231  TIP3  H2            6.3180134802        3.3254079195        4.2514544137  CLST         231          1.0000000000
       694       232  TIP3  OH2         -10.3559834571        8.9665247395        7.5487873297  CLST         232          1.0000000000
       695       232  TIP3  H1          -10.7912283126        9.5519191506        8.2348686827  CLST         232          1.0000000000
       696       232  TIP3  H2          -10.3360727779        8.1307899375        8.0664352040  CLST         232          1.0000000000
       697       233  TIP3  OH2           3.7536658304       -5.1970472009        7.9396840703  CLST         233          1.0000000000
       698       233  TIP3  H1            4.3401485913       -5.6345276857        8.6121165238  CLST         233          1.0000000000
       699       233  TIP3  H2            3.6123871719       -4.3690682169        8.5003366753  CLST         233          1.0000000000
       700       234  TIP3  OH2          -3.5936449196        8.4737252116       -0.6223586194  CLST         234          1.0000000000
       701       234  TIP3  H1           -2.5055041554        8.2379602011       -2.3375666175  CLST         234          1.0000000000
       702       234  TIP3  H2           -3.5278175580        9.3557166360       -1.5694797236  CLST         234          1.0000000000
       703       235  TIP3  OH2          -1.8375875391       -4.0084790963       -8.8104846411  CLST         235          1.0000000000
       704       235  TIP3  H1           -1.8221846758       -4.8915553586       -9.2514138184  CLST         235          1.0000000000
       705       235  TIP3  H2           -0.9043846895       -3.7115503711       -9.0691180519  CLST         235          1.0000000000
       706       236  TIP3  OH2          -0.1843407045      -13.4419708795       -3.1038236127  CLST         236          1.0000000000
       707       236  TIP3  H1            0.4835607022      -12.6961001674       -2.9384230046  CLST         236          1.0000000000
       708       236  TIP3  H2           -0.7267612105      -13.3257752562       -2.3030491858  CLST         236          1.0000000000
       709       237  TIP3  OH2          -3.6185279133       -5.1585813244       10.9219232660  CLST         237          1.0000000000
       710       237  TIP3  H1           -4.5928907115       -4.9939200010       10.8850202591  CLST         237          1.0000000000
       711       237  TIP3  H2           -3.5267017397       -5.9708739176       10.3837633208  CLST         237          1.0000000000
       712       238  TIP3  OH2           0.5968534456        4.6727999880        7.2853816021  CLST         238          1.0000000000
       713       238  TIP3  H1           -0.0297575020        5.3015765104        6.8195852602  CLST         238          1.0000000000
       714       238  TIP3  H2            0.6054941884        5.1463192847        8.1785750059  CLST         238          1.0000000000
       715       239  TIP3  OH2         -14.0244546294        5.9915484946        3.5334872167  CLST         239          1.0000000000
       716       239  TIP3  H1          -14.2790804435        6.3196104213        2.6694941085  CLST         239          1.0000000000
       717       239  TIP3  H2          -13.3432360755        5.3047929020        3.2584708925  CLST         239          1.0000000000
       718       240  TIP3  OH2         -14.1857455307        8.9202398777       -0.3090901641  CLST         240          1.0000000000
       719       240  TIP3  H1          -13.8176478323        8.9828081090        1.3632712230  CLST         240          1.0000000000
       720       240  TIP3  H2          -13.6538525953        7.5441772845        0.2938943757  CLST         240          1.0000000000
       721       241  TIP3  OH2          -7.4834090070       -7.7410380998       -8.6178290188  CLST         241          1.0000000000
       722       241  TIP3  H1           -7.8742091618       -8.0701722423       -7.7984482718  CLST         241          1.0000000000
       723       241  TIP3  H2           -7.3207802438       -6.7934469291       -8.3876058297  CLST         241          1.0000000000
       724       242  TIP3  OH2           6.1838719821       -5.7790009114        9.6784251003  CLST         242          1.0000000000
       725       242  TIP3  H1            6.5840638823       -4.9727666580        9.2707352379  CLST         242          1.0000000000
       726       242  TIP3  H2            6.9036285453       -6.4623021248        9.4161177499  CLST         242          1.0000000000
       727       243  TIP3  OH2          -6.6742899552       -7.2444388928       -4.1616060027  CLST         243          1.0000000000
       728       243  TIP3  H1           -6.3291020962       -8.0804764911       -4.5501641843  CLST         243          1.0000000000
       729       243  TIP3  H2           -6.6230198648       -7.6057331659       -3.2245505572  CLST         243          1.0000000000
       730       244  TIP3  OH2           4.7919036781        5.7667043489        5.5650668169  CLST         244          1.0000000000
       731       244  TIP3  H1            5.1340478495        5.2630254058        4.7829399838  CLST         244          1.0000000000
       732       244  TIP3  H2            4.0411470981        5.1434626303        5.7575727908  CLST         244          1.0000000000
       733       245  TIP3  OH2          -7.1065346087        3.7038756949       -7.7145008688  CLST         245          1.0000000000
       734       245  TIP3  H1           -7.0033611537        3.1394668752       -6.9187899418  CLST         245          1.0000000000
       735       245  TIP3  H2           -7.4401178043        4.5292368519       -7.3094644782  CLST         245          1.0000000000
       736       246  TIP3  OH2           2.2068597437       -6.5369158482       -2.0225381978  CLST         246          1.0000000000
       737       246  TIP3  H1            2.1282403008       -5.7809675504       -2.7308438855  CLST         246          1.0000000000
       738       246  TIP3  H2            3.1917307873       -6.6057445895       -1.9707110245  CLST         246          1.0000000000
       739       247  TIP3  OH2           6.0460760383        8.0066743920        0.7463426975  CLST         247          1.0000000000
       740       247  TIP3  H1            6.3105945109        7.7631893241       -0.1757978636  CLST         247          1.0000000000
       741       247  TIP3  H2            5.8323020448        8.9611125300        0.6257821913  CLST         247          1.0000000000
       742       248  TIP3  OH2          -2.3480163007        8.2703441370      -11.8230894049  CLST         248          1.0000000000
       743       248  TIP3  H1           -1.6357222009        8.1321525622      -12.4519685448  CLST         248          1.0000000000
       744       248  TIP3  H2           -2.0963009734        9.2042687368      -11.4828379824  CLST         248          1.0000000000
       745       249  TIP3  OH2           9.0646421938        4.8352487422       -7.6929720388  CLST         249          1.0000000000
       746       249  TIP3  H1            8.7554910447        5.7185204142       -7.3617791581  CLST         249          1.0000000000
       747       249  TIP3  H2            8.5658022413        4.2290017969       -7.1034921814  CLST         249          1.0000000000
       748       250  TIP3  OH2          -7.4086989572        9.6092173999       -5.4957946144  CLST         250          1.0000000000
       749       250  TIP3  H1           -8.0194548277        8.9864623188       -5.3563784547  CLST         250          1.0000000000
       750       250  TIP3  H2           -7.9352796182       10.3108378979       -5.9071420555  CLST         250          1.0000000000
       751       251  TIP3  OH2          -3.5639441973       12.4638390071        3.1023895713  CLST         251          1.0000000000
       752       251  TIP3  H1           -3.2301418312       13.0985706381        2.6718988329  CLST         251          1.0000000000
       753       251  TIP3  H2           -3.0091517776       12.2368850229        3.8923159499  CLST         251          1.0000000000
       754       252  TIP3  OH2           5.9711751116        5.4065733359       14.5163531778  CLST         252          1.0000000000
       755       252  TIP3  H1            5.9274486509        6.3461080071       14.4260247564  CLST         252          1.0000000000
       756       252  TIP3  H2            5.5865351213        5.2943636573       15.3314140612  CLST         252          1.0000000000
       757       253  TIP3  OH2           6.2374808901       13.8733912493        3.1973538659  CLST         253          1.0000000000
       758       253  TIP3  H1            5.2717257210       13.5776365393        3.4230891494  CLST         253          1.0000000000
       759       253  TIP3  H2            6.0588562106       13.6183945541        2.2699894267  CLST         253          1.0000000000
       760       254  TIP3  OH2          -4.1703687644        8.1289283508        3.0427283655  CLST         254          1.0000000000
       761       254  TIP3  H1           -4.5179648442        9.0063754432        2.6786378822  CLST         254          1.0000000000
       762       254  TIP3  H2           -5.0535637015        7.7394493380        3.1516561481  CLST         254          1.0000000000
       763       255  TIP3  OH2          -6.9906117847       10.2860463337        4.2555761828  CLST         255          1.0000000000
       764       255  TIP3  H1           -7.8780840443       10.6766652182        4.3181875966  CLST         255          1.0000000000
       765       255  TIP3  H2           -7.0494156071        9.5229083023        4.8776265806  CLST         255          1.0000000000
       766       256  TIP3  OH2          11.4669519132        3.6887472863       -1.2987212559  CLST         256          1.0000000000
       767       256  TIP3  H1           11.8275004207        2.9350849328       -1.8250275012  CLST         256          1.0000000000
       768       256  TIP3  H2           11.2063332852        3.2330433233       -0.4394382964  CLST         256          1.0000000000
       769       257  TIP3  OH2          -8.5813699139       -1.4660380789       -4.9680395494  CLST         257          1.0000000000
       770       257  TIP3  H1           -7.8397684257       -1.0892966136       -4.4348211619  CLST         257          1.0000000000
       771       257  TIP3  H2           -8.2981402564       -1.1723335977       -5.8671301695  CLST         257          1.0000000000
       772       258  TIP3  OH2          -5.1920518432       10.1611834538        7.8501216819  CLST         258          1.0000000000
       773       258  TIP3  H1           -5.2090331286       10.8777480278        7.1453559818  CLST         258          1.0000000000
       774       258  TIP3  H2           -5.9842410164       10.4667182155        8.3381006359  CLST         258          1.0000000000
       775       259  TIP3  OH2          10.1809351471        6.0023640153        0.7583834732  CLST         259          1.0000000000
       776       259  TIP3  H1           11.0144540317        6.5147894575        0.8715068460  CLST         259          1.0000000000
       777       259  TIP3  H2            9.9746200365        5.9720283856        1.7324118134  CLST         259          1.0000000000
       778       260  TIP3  OH2          -4.9994311894        7.6783504897        8.8716819423  CLST         260          1.0000000000
       779       260  TIP3  H1           -5.1380911393        8.4675740254        8.2964071551  CLST         260          1.0000000000
       780       260  TIP3  H2           -5.8670629095        7.2389450017        8.8130597135  CLST         260          1.0000000000
       781       261  TIP3  OH2           0.9415746631       -4.4302548906       12.5573159653  CLST         261          1.0000000000
       782       261  TIP3  H1            0.4870699259       -5.3424132048       12.5850238566  CLST         261          1.0000000000
       783       261  TIP3  H2            1.7503572009       -4.5729673254       13.0695482587  CLST         261          1.0000000000
       784       262  TIP3  OH2         -10.8981832100        4.7187942550        5.9957655410  CLST         262          1.0000000000
       785       262  TIP3  H1          -10.1790632725        4.5942331526        5.3187549557  CLST         262          1.0000000000
       786       262  TIP3  H2          -11.6032134825        4.8711642288        5.3612243357  CLST         262          1.0000000000
       787       263  TIP3  OH2           1.7681187793        0.8815474168        6.6154307606  CLST         263          1.0000000000
       788       263  TIP3  H1            2.2645100624        1.7233864814        6.4380673421  CLST         263          1.0000000000
       789       263  TIP3  H2            2.5039729066        0.2999070457        6.9428354264  CLST         263          1.0000000000
       790       264  TIP3  OH2           5.2025568007       -4.4101055466       -9.5788932293  CLST         264          1.0000000000
       791       264  TIP3  H1            4.9717797178       -5.3273383990       -9.9076041756  CLST         264          1.0000000000
       792       264  TIP3  H2            4.5164772894       -3.9054056670      -10.0772584952  CLST         264          1.0000000000
       793       265  TIP3  OH2           7.6912699526        4.9775069050      -10.2122219944  CLST         265          1.0000000000
       794       265  TIP3  H1            7.7464899918        5.9204062558      -10.5018743299  CLST         265          1.0000000000
       795       265  TIP3  H2            8.2320538580        5.0146142044       -9.3968431712  CLST         265          1.0000000000
       796       266  TIP3  OH2          -7.9129027069       -8.8095567813       -0.0111389603  CLST         266          1.0000000000
       797       266  TIP3  H1           -8.0041524217       -9.2827282742        0.8184913225  CLST         266          1.0000000000
       798       266  TIP3  H2           -8.2747536782       -7.8858353012        0.1321423611  CLST         266          1.0000000000
       799       267  TIP3  OH2           1.1947784388        2.6805285141       -5.0604170686  CLST         267          1.0000000000
       800       267  TIP3  H1            1.4096538335        3.4969210202       -4.5322092692  CLST         267          1.0000000000
       801       267  TIP3  H2            1.8446423014        2.0521587358       -4.6453919672  CLST         267          1.0000000000
       802       268  TIP3  OH2           5.1931605426       -4.6295050394       -6.8998418807  CLST         268          1.0000000000
       803       268  TIP3  H1            5.2000636857       -4.4083482844       -7.8733364299  CLST         268          1.0000000000
       804       268  TIP3  H2            4.8613182144       -5.5540579712       -6.9349459336  CLST         268          1.0000000000
       805       269  TIP3  OH2           5.5111196316       10.7156539909       -0.1810942390  CLST         269          1.0000000000
       806       269  TIP3  H1            6.4753451335       10.6297585636       -0.5053583219  CLST         269          1.0000000000
       807       269  TIP3  H2            5.5976913679       11.6255121969        0.2168476404  CLST         269          1.0000000000
       808       270  TIP3  OH2           1.2193099188        9.4560795518       -8.0445188095  CLST         270          1.0000000000
       809       270  TIP3  H1            1.2148734432        8.5594674608       -8.4315436602  CLST         270          1.0000000000
       810       270  TIP3  H2            0.3500508266        8.6131052391       -6.6097784283  CLST         270          1.0000000000
       811       271  TIP3  OH2          -6.4395911790       -8.9757072107       -2.1753934952  CLST         271          1.0000000000
       812       271  TIP3  H1           -5.7188014008       -9.0674766664       -1.5136687701  CLST         271          1.0000000000
       813       271  TIP3  H2           -7.1586347414       -8.9176768854       -1.4222565116  CLST         271          1.0000000000
       814       272  TIP3  OH2           9.5067593966       -8.2211668553        5.7765471976  CLST         272          1.0000000000
       815       272  TIP3  H1            8.4916057132       -8.1854538801        5.7815662862  CLST         272          1.0000000000
       816       272  TIP3  H2            9.6073934180       -7.6962746970        4.9465553732  CLST         272          1.0000000000
       817       273  TIP3  OH2         -13.8598963637        9.4211465376        3.1683410146  CLST         273          1.0000000000
       818       273  TIP3  H1          -14.4732519956        9.7780272934        3.9977771681  CLST         273          1.0000000000
       819       273  TIP3  H2          -13.5973349903        8.6263544115        3.7410789218  CLST         273          1.0000000000
       820       274  TIP3  OH2           4.1462364429       12.9811898049       -4.3810154561  CLST         274          1.0000000000
       821       274  TIP3  H1            3.5887254960       11.6889294396       -2.4893069452  CLST         274          1.0000000000
       822       274  TIP3  H2            3.8262887343       13.5047812758       -3.6443165357  CLST         274          1.0000000000
       823       275  TIP3  OH2           8.6695696032      -11.4018383617        5.9673180114  CLST         275          1.0000000000
       824       275  TIP3  H1            9.2346636711      -10.6138179528        6.0003293946  CLST         275          1.0000000000
       825       275  TIP3  H2            9.3306970657      -12.0635352854        5.5796225103  CLST         275          1.0000000000
       826       276  TIP3  OH2          -0.4018629335       -5.8398756835        1.4092212900  CLST         276          1.0000000000
       827       276  TIP3  H1           -1.0598717506       -6.1421987920        0.5717905076  CLST         276          1.0000000000
       828       276  TIP3  H2           -1.0183932026       -5.1710804320        1.7816732920  CLST         276          1.0000000000
       829       277  TIP3  OH2           6.5243860015        6.5932220393       -6.9678698075  CLST         277          1.0000000000
       830       277  TIP3  H1            6.0091405052        5.8108047158       -7.2368486180  CLST         277          1.0000000000
       831       277  TIP3  H2            6.4091160883        7.3102939198       -7.6183656578  CLST         277          1.0000000000
       832       278  TIP3  OH2          -0.6977455646       -7.5712759477        3.4364982734  CLST         278          1.0000000000
       833       278  TIP3  H1           -0.5508910725       -6.9450985221        2.6616279528  CLST         278          1.0000000000
       834       278  TIP3  H2           -0.7474078881       -6.8345239733        4.1122314657  CLST         278          1.0000000000
       835       279  TIP3  OH2         -13.5203263466        6.5298255826        0.3849348213  CLST         279          1.0000000000
       836       279  TIP3  H1          -13.9030738574        5.5635526997        0.0126631361  CLST         279          1.0000000000
       837       279  TIP3  H2          -12.5605904912        6.3833093907        0.6273428602  CLST         279          1.0000000000
       838       280  TIP3  OH2          -3.2390965499      -10.0847905953        5.6016037080  CLST         280          1.0000000000
       839       280  TIP3  H1           -2.6240045508       -9.4375540154        6.0547903494  CLST         280          1.0000000000
       840       280  TIP3  H2           -3.7754139715       -9.4117592375        5.1289404409  CLST         280          1.0000000000
       841       281  TIP3  OH2           8.0984296761        7.9043401911      -10.6588331788  CLST         281          1.0000000000
       842       281  TIP3  H1            8.5330021191        8.7585076703      -10.5214997355  CLST         281          1.0000000000
       843       281  TIP3  H2            7.1292239840        8.1523127001      -10.7061299751  CLST         281          1.0000000000
       844       282  TIP3  OH2          -7.7463773217      -11.8317990523       10.1230811324  CLST         282          1.0000000000
       845       282  TIP3  H1           -8.6110024936      -11.4997260382        9.8353246349  CLST         282          1.0000000000
       846       282  TIP3  H2           -7.3363611752      -12.2088341247        9.3006171388  CLST         282          1.0000000000
       847       283  TIP3  OH2           4.5867826027        8.5239002258       -4.7097533359  CLST         283          1.0000000000
       848       283  TIP3  H1            4.7521510069        9.4917100319       -4.9587084606  CLST         283          1.0000000000
       849       283  TIP3  H2            4.0030920564        8.6352846375       -3.9322258623  CLST         283          1.0000000000
       850       284  TIP3  OH2          12.0939091501        8.2138461943       -1.4115343294  CLST         284          1.0000000000
       851       284  TIP3  H1           12.3130181245        7.6717720747       -2.1778202437  CLST         284          1.0000000000
       852       284  TIP3  H2           11.2657964819        8.6677987944       -1.6072886678  CLST         284          1.0000000000
       853       285  TIP3  OH2          -5.4002190216        2.0501583945        8.7836072928  CLST         285          1.0000000000
       854       285  TIP3  H1           -4.6212688404        1.8911169214        8.1921553482  CLST         285          1.0000000000
       855       285  TIP3  H2           -4.9596097965        2.7080532636        9.3645347488  CLST         285          1.0000000000
       856       286  TIP3  OH2           3.1082482724        5.8432659379       -0.4726789289  CLST         286          1.0000000000
       857       286  TIP3  H1            2.4070798513        5.8427016498        0.2162247581  CLST         286          1.0000000000
       858       286  TIP3  H2            3.8951047237        5.8570800934        0.1589218839  CLST         286          1.0000000000
       859       287  TIP3  OH2          -4.4348270211        9.3377522725       11.2574847180  CLST         287          1.0000000000
       860       287  TIP3  H1           -5.0056232556       10.4996436106       11.8359322706  CLST         287          1.0000000000
       861       287  TIP3  H2           -5.1910195243        8.9849091229       10.8283081398  CLST         287          1.0000000000
       862       288  TIP3  OH2           5.6996558379        3.4811670480       -9.4492564966  CLST         288          1.0000000000
       863       288  TIP3  H1            5.4068783980        2.9286222308      -10.1567174576  CLST         288          1.0000000000
       864       288  TIP3  H2            6.4946503534        4.0162631264       -9.8399642607  CLST         288          1.0000000000
       865       289  TIP3  OH2          -7.1910690584       -5.0624450883       -8.2853822718  CLST         289          1.0000000000
       866       289  TIP3  H1           -7.9626745898       -4.4406051858       -8.1936121188  CLST         289          1.0000000000
       867       289  TIP3  H2           -6.5592299988       -4.7530091818       -7.6721587274  CLST         289          1.0000000000
       868       290  TIP3  OH2           2.2377705657      -11.8572093704       11.0758656441  CLST         290          1.0000000000
       869       290  TIP3  H1            2.7225598840      -12.4994817974       10.6039673832  CLST         290          1.0000000000
       870       290  TIP3  H2            2.9466469356      -11.4580958777       11.6338764848  CLST         290          1.0000000000
       871       291  TIP3  OH2         -10.2892608947       -3.4640907371        2.9377624924  CLST         291          1.0000000000
       872       291  TIP3  H1          -10.9693256840       -4.0998138083        3.3187930058  CLST         291          1.0000000000
       873       291  TIP3  H2          -10.3760148717       -3.6237586337        2.0064418778  CLST         291          1.0000000000
       874       292  TIP3  OH2          12.0617274533        3.5127271810       -4.6819633210  CLST         292          1.0000000000
       875       292  TIP3  H1           11.1151242881        3.2535104433       -4.5194208775  CLST         292          1.0000000000
       876       292  TIP3  H2           11.8758151970        4.1354001356       -5.4182584603  CLST         292          1.0000000000
       877       293  TIP3  OH2           8.9227012953       10.7856288691       11.1421528670  CLST         293          1.0000000000
       878       293  TIP3  H1            8.6611859948       11.5391501924       11.6417356282  CLST         293          1.0000000000
       879       293  TIP3  H2            9.1285252494       11.2440241112       10.2787635160  CLST         293          1.0000000000
       880       294  TIP3  OH2           4.1770156467        4.5320035727       -2.4204715776  CLST         294          1.0000000000
       881       294  TIP3  H1            3.6900007562        5.0561116354       -1.7117754295  CLST         294          1.0000000000
       882       294  TIP3  H2            4.2091917287        5.0437897066       -3.2311437006  CLST         294          1.0000000000
       883       295  TIP3  OH2          -2.4271170453      -13.4090560897       -8.7613252778  CLST         295          1.0000000000
       884       295  TIP3  H1           -2.9134611048      -13.0894338457       -7.9844879313  CLST         295          1.0000000000
       885       295  TIP3  H2           -1.5813044609      -13.6416697285       -8.3042956650  CLST         295          1.0000000000
       886       296  TIP3  OH2          -1.0635417244       11.1088552031      -13.3486674274  CLST         296          1.0000000000
       887       296  TIP3  H1           -0.1368298607       11.0692901023      -13.5051910954  CLST         296          1.0000000000
       888       296  TIP3  H2           -1.1456660691       10.8272145399      -12.3992028814  CLST         296          1.0000000000
       889       297  TIP3  OH2           8.1145168400       -0.6018681512       11.4281700266  CLST         297          1.0000000000
       890       297  TIP3  H1            8.5855495093       -1.4248901378       11.0528780700  CLST         297          1.0000000000
       891       297  TIP3  H2            7.2605901686       -1.0197888123       11.6655599362  CLST         297          1.0000000000
       892       298  TIP3  OH2           1.0819601282       -1.2235447133       -7.5680514687  CLST         298          1.0000000000
       893       298  TIP3  H1            1.4971838496       -0.6715698073       -8.2967798886  CLST         298          1.0000000000
       894       298  TIP3  H2            0.7359732578       -1.9759254393       -8.1580548383  CLST         298          1.0000000000
       895       299  TIP3  OH2           2.9233362117       10.3866675316       12.7145959062  CLST         299          1.0000000000
       896       299  TIP3  H1            2.1241634105       10.9107601865       12.3958608874  CLST         299          1.0000000000
       897       299  TIP3  H2            2.4108500321        9.5990352171       12.6317705316  CLST         299          1.0000000000
       898       300  TIP3  OH2         -10.7804341700        5.2502907436       -3.6510382215  CLST         300          1.0000000000
       899       300  TIP3  H1          -10.5886829987        5.7011784737       -4.5091434898  CLST         300          1.0000000000
       900       300  TIP3  H2          -10.8731359145        6.1040229696       -3.1197308652  CLST         300          1.0000000000
       901       301  TIP3  OH2           9.6569309664       -8.3592555380       11.1413027661  CLST         301          1.0000000000
       902       301  TIP3  H1            9.4591170609       -8.0610005645       12.0370777161  CLST         301          1.0000000000
       903       301  TIP3  H2            9.5119117659       -9.3554505519       11.2737949761  CLST         301          1.0000000000
       904       302  TIP3  OH2           7.8475419546       12.8822983132        5.6907320194  CLST         302          1.0000000000
       905       302  TIP3  H1            7.4883153122       13.3121944886        4.8794134764  CLST         302          1.0000000000
       906       302  TIP3  H2            7.0291412078       12.3242298509        5.8021610569  CLST         302          1.0000000000
       907       303  TIP3  OH2         -11.0805145531        1.1896990747       -1.9839120372  CLST         303          1.0000000000
       908       303  TIP3  H1          -10.1129168790        1.2491513273       -1.8607532423  CLST         303          1.0000000000
       909       303  TIP3  H2          -11.0462080326        0.4956038660       -2.7327581436  CLST         303          1.0000000000
       910       304  TIP3  OH2          -7.9473605448        1.2083259474      -14.9935592140  CLST         304          1.0000000000
       911       304  TIP3  H1           -7.4195378865        0.4105901670      -14.6408583310  CLST         304          1.0000000000
       912       304  TIP3  H2           -7.2684090656        1.7531467218      -15.4011562390  CLST         304          1.0000000000
       913       305  TIP3  OH2           3.3481626435       -4.0261754173       14.0262168813  CLST         305          1.0000000000
       914       305  TIP3  H1            4.2575488384       -4.0840127960       13.6771813779  CLST         305          1.0000000000
       915       305  TIP3  H2            3.2218620952       -3.0875121891       13.7451266477  CLST         305          1.0000000000
       916       306  TIP3  OH2           8.8351691256      -11.9188573499      -11.4620555783  CLST         306          1.0000000000
       917       306  TIP3  H1            9.7073585328      -11.6658808170      -12.0131878189  CLST         306          1.0000000000
       918       306  TIP3  H2            9.0065424408      -12.6846159667      -11.0918880742  CLST         306          1.0000000000
       919       307  TIP3  OH2           9.3230773848        7.7534827206       -7.4923671037  CLST         307          1.0000000000
       920       307  TIP3  H1            8.5999492343        8.4013859660       -7.6599639495  CLST         307          1.0000000000
       921       307  TIP3  H2            9.5593098807        7.9194926209       -6.5672787461  CLST         307          1.0000000000
       922       308  TIP3  OH2         -10.8320310384       -4.8540391251        8.7513093866  CLST         308          1.0000000000
       923       308  TIP3  H1          -10.8639804713       -5.7016991796        9.3047080996  CLST         308          1.0000000000
       924       308  TIP3  H2           -9.8627381515       -4.6320689188        8.8676220078  CLST         308          1.0000000000
       925       309  TIP3  OH2          -1.9933052542       -0.5493841783        5.6159723767  CLST         309          1.0000000000
       926       309  TIP3  H1           -2.7640166941       -0.8882157397        5.0542614670  CLST         309          1.0000000000
       927       309  TIP3  H2           -2.0393643605       -1.2874324286        6.2893375857  CLST         309          1.0000000000
       928       310  TIP3  OH2          -5.0783408384       -0.6832328885        7.1575175212  CLST         310          1.0000000000
       929       310  TIP3  H1           -4.4512994007        0.0242115034        7.3666211298  CLST         310          1.0000000000
       930       310  TIP3  H2           -5.0899360125       -1.2565440560        7.9599545967  CLST         310          1.0000000000
       931       311  TIP3  OH2          -7.5042237084        8.4006777304      -12.3394368062  CLST         311          1.0000000000
       932       311  TIP3  H1           -7.0570626569        8.0662099009      -13.2769449133  CLST         311          1.0000000000
       933       311  TIP3  H2           -7.0423783720        7.8579122369      -11.6611102600  CLST         311          1.0000000000
       934       312  TIP3  OH2           6.5043981018       -0.9174734059       -6.2796336402  CLST         312          1.0000000000
       935       312  TIP3  H1            6.2290272695       -0.2555451779       -5.6122312606  CLST         312          1.0000000000
       936       312  TIP3  H2            6.5550459585       -1.6953352429       -5.6872538405  CLST         312          1.0000000000
       937       313  TIP3  OH2          -8.9433258260      -10.4530920699        7.2060057246  CLST         313          1.0000000000
       938       313  TIP3  H1           -8.2209994604       -9.7899939544        6.9959275595  CLST         313          1.0000000000
       939       313  TIP3  H2           -9.3223493137      -10.4327681133        6.2533377205  CLST         313          1.0000000000
       940       314  TIP3  OH2          -1.2245097370      -12.1346312493      -10.8326935996  CLST         314          1.0000000000
       941       314  TIP3  H1           -1.2783179070      -11.2379991454      -10.3350111525  CLST         314          1.0000000000
       942       314  TIP3  H2           -1.9100616782      -12.6329153546      -10.2544027498  CLST         314          1.0000000000
       943       315  TIP3  OH2          -1.3177654566       -0.5584736843       -6.5528859942  CLST         315          1.0000000000
       944       315  TIP3  H1           -0.4313633790       -0.7757548428       -6.9022418893  CLST         315          1.0000000000
       945       315  TIP3  H2           -1.1393108561       -0.2528635933       -5.6235006988  CLST         315          1.0000000000
       946       316  TIP3  OH2         -13.0458829459       -3.9666319286       -5.5390141451  CLST         316          1.0000000000
       947       316  TIP3  H1          -12.2559728923       -4.4514238252       -5.9687436644  CLST         316          1.0000000000
       948       316  TIP3  H2          -12.6169710409       -3.0498782875       -5.6695181794  CLST         316          1.0000000000
       949       317  TIP3  OH2          -6.3683338040        0.0952313913       -3.6600028737  CLST         317          1.0000000000
       950       317  TIP3  H1           -5.5195920663        0.2009978298       -3.0740490289  CLST         317          1.0000000000
       951       317  TIP3  H2           -6.9905628743        0.3416989158       -2.8896925120  CLST         317          1.0000000000
       952       318  TIP3  OH2          -3.9200997051       -9.6878572761       -9.4303667876  CLST         318          1.0000000000
       953       318  TIP3  H1           -4.0036127204       -9.8934167584       -8.4533073026  CLST         318          1.0000000000
       954       318  TIP3  H2           -2.8990719637       -9.5752990225       -9.3978197251  CLST         318          1.0000000000
       955       319  TIP3  OH2           5.5461729252       10.7680685802        8.4886261714  CLST         319          1.0000000000
       956       319  TIP3  H1            6.3043762768       10.4008871675        7.9837327101  CLST         319          1.0000000000
       957       319  TIP3  H2            6.0946176308       11.3560490316        9.0236053764  CLST         319          1.0000000000
       958       320  TIP3  OH2         -10.6631043686        1.0112846102      -14.4449528066  CLST         320          1.0000000000
       959       320  TIP3  H1           -9.7675940017        0.9964499824      -14.8613351004  CLST         320          1.0000000000
       960       320  TIP3  H2          -10.5608279417        0.1740933706      -13.9611508327  CLST         320          1.0000000000
       961       321  TIP3  OH2          -9.6749572389       10.3854316742       -9.6196959158  CLST         321          1.0000000000
       962       321  TIP3  H1          -10.4845742219       10.4339633802      -10.1683435999  CLST         321          1.0000000000
       963       321  TIP3  H2          -10.6511555317       10.6573679790      -11.5757040691  CLST         321          1.0000000000
       964       322  TIP3  OH2         -12.3946890300       -1.9121263540       -2.2494669517  CLST         322          1.0000000000
       965       322  TIP3  H1          -12.1513398709       -1.4193439850       -3.0664386756  CLST         322          1.0000000000
       966       322  TIP3  H2          -11.4400239927       -1.9293661286       -1.8764361711  CLST         322          1.0000000000
       967       323  TIP3  OH2          -1.1535749748        4.0067712807        4.3848968374  CLST         323          1.0000000000
       968       323  TIP3  H1           -0.7366695911        3.1054712058        4.4008736132  CLST         323          1.0000000000
       969       323  TIP3  H2           -1.1818077740        4.1808216036        3.4031500428  CLST         323          1.0000000000
       970       324  TIP3  OH2         -10.8329910866        6.2357723130        1.4363859474  CLST         324          1.0000000000
       971       324  TIP3  H1          -11.0817409845        5.6319479705        2.1479895068  CLST         324          1.0000000000
       972       324  TIP3  H2          -10.1564255718        6.7796853994        1.9547331961  CLST         324          1.0000000000
       973       325  TIP3  OH2          -4.7567657160        0.7122296380        3.6128494685  CLST         325          1.0000000000
       974       325  TIP3  H1           -5.7941866467        0.6375351409        3.5885807628  CLST         325          1.0000000000
       975       325  TIP3  H2           -4.7054149102        1.6406172987        3.7982290155  CLST         325          1.0000000000
       976       326  TIP3  OH2           9.0189422272        8.7786080218       -2.8590979162  CLST         326          1.0000000000
       977       326  TIP3  H1            8.8236629786        8.2021429496       -2.0834723731  CLST         326          1.0000000000
       978       326  TIP3  H2            8.1905499506        8.5925116812       -3.3749800554  CLST         326          1.0000000000
       979       327  TIP3  OH2          10.4584163301       -3.8151145045      -13.0574210321  CLST         327          1.0000000000
       980       327  TIP3  H1           10.4212516827       -3.7839012371      -13.9062606401  CLST         327          1.0000000000
       981       327  TIP3  H2           10.1142625376       -3.0376112425      -12.4766923286  CLST         327          1.0000000000
       982       328  TIP3  OH2           2.1569992319        7.1999407461       -9.8190689421  CLST         328          1.0000000000
       983       328  TIP3  H1            2.2259382142        6.2430927450       -9.7935890712  CLST         328          1.0000000000
       984       328  TIP3  H2            3.0701519296        7.5013744993       -9.5909887585  CLST         328          1.0000000000
       985       329  TIP3  OH2           1.4856987699      -11.6025481942       -2.3304329436  CLST         329          1.0000000000
       986       329  TIP3  H1            1.7548266346      -10.6442751868       -2.5970788335  CLST         329          1.0000000000
       987       329  TIP3  H2            2.2563635085      -11.6957761977       -1.6839153983  CLST         329          1.0000000000
       988       330  TIP3  OH2          -9.4763846209       -0.9377862450        3.4985549335  CLST         330          1.0000000000
       989       330  TIP3  H1           -9.7778337428       -1.8977360905        3.4326270159  CLST         330          1.0000000000
       990       330  TIP3  H2          -10.3076875025       -0.5640422156        3.8899579415  CLST         330          1.0000000000
       991       331  TIP3  OH2          12.1637441353        9.8677797609       -9.1288887578  CLST         331          1.0000000000
       992       331  TIP3  H1           12.7094970184        9.0772407979      -10.8507174457  CLST         331          1.0000000000
       993       331  TIP3  H2           11.8152163334        8.3372881812       -9.4847285979  CLST         331          1.0000000000
       994       332  TIP3  OH2          11.1125324523       -1.1769891370       -4.4996999942  CLST         332          1.0000000000
       995       332  TIP3  H1           13.7022525588       -2.2750905072       -4.4893675978  CLST         332          1.0000000000
       996       332  TIP3  H2           12.3947514746       -1.0506570649       -4.3875988559  CLST         332          1.0000000000
       997       333  TIP3  OH2          10.5891832257      -14.2029213659        8.0023475343  CLST         333          1.0000000000
       998       333  TIP3  H1            9.6486562026      -13.9779084410        8.0731231421  CLST         333          1.0000000000
       999       333  TIP3  H2           10.6859484832      -14.0651488166        7.0188945141  CLST         333          1.0000000000
      1000       334  TIP3  OH2         -10.6289811442       -9.7414962570        9.0580067469  CLST         334          1.0000000000
      1001       334  TIP3  H1          -11.3803452294      -10.2262788864        8.6321902627  CLST         334          1.0000000000
      1002       334  TIP3  H2           -9.9787456820       -9.9503420129        8.3050901065  CLST         334          1.0000000000
      1003       335  TIP3  OH2           6.9594937268       -9.9466621942        1.4634945437  CLST         335          1.0000000000
      1004       335  TIP3  H1            6.9280998461      -10.0509690329        2.4399919603  CLST         335          1.0000000000
      1005       335  TIP3  H2            6.0435185183      -10.2005818833        1.2618154282  CLST         335          1.0000000000
      1006       336  TIP3  OH2          -9.2705111534       -3.6578460911       -3.5610001103  CLST         336          1.0000000000
      1007       336  TIP3  H1           -9.4742944562       -4.5392473975       -3.9060064728  CLST         336          1.0000000000
      1008       336  TIP3  H2           -9.0377884707       -3.1517674974       -4.3735653484  CLST         336          1.0000000000
      1009       337  TIP3  OH2          -1.5165167240       -4.8706913769        8.0905067549  CLST         337          1.0000000000
      1010       337  TIP3  H1           -1.3852866428       -4.5005145996        9.0358232205  CLST         337          1.0000000000
      1011       337  TIP3  H2           -1.9286604914       -4.0301301271        7.8036797534  CLST         337          1.0000000000
      1012       338  TIP3  OH2          -0.6865143484        2.7527249013       10.7037003761  CLST         338          1.0000000000
      1013       338  TIP3  H1           -0.7184092609        2.5373934558        9.7243971851  CLST         338          1.0000000000
      1014       338  TIP3  H2           -0.1286190912        2.0089107951       10.9618255455  CLST         338          1.0000000000
      1015       339  TIP3  OH2           7.7846685891        8.0242220218        2.7516431748  CLST         339          1.0000000000
      1016       339  TIP3  H1            7.4946994066        8.7405424174        3.4061917448  CLST         339          1.0000000000
      1017       339  TIP3  H2            7.1041829315        7.9242427596        2.0465866044  CLST         339          1.0000000000
      1018       340  TIP3  OH2          -4.5989826926      -11.6271360338      -11.3244249067  CLST         340          1.0000000000
      1019       340  TIP3  H1           -4.3577112161      -10.9589415088      -10.6395953301  CLST         340          1.0000000000
      1020       340  TIP3  H2           -4.1988467910      -12.4340763507      -10.9442634580  CLST         340          1.0000000000
      1021       341  TIP3  OH2          -6.7370110737        4.6884317880        9.4747638037  CLST         341          1.0000000000
      1022       341  TIP3  H1           -5.8329205719        4.4843624420        9.7996980658  CLST         341          1.0000000000
      1023       341  TIP3  H2           -7.1509741148        3.8204282499        9.6151872102  CLST         341          1.0000000000
      1024       342  TIP3  OH2          -4.4013352407      -11.0915903459       13.7949015185  CLST         342          1.0000000000
      1025       342  TIP3  H1           -5.1973779886      -11.1984455939       13.2423732484  CLST         342          1.0000000000
      1026       342  TIP3  H2           -4.4483898738      -10.9858592413       14.6304191239  CLST         342          1.0000000000
      1027       343  TIP3  OH2           1.4121216473       -9.0707802993       -9.9615245778  CLST         343          1.0000000000
      1028       343  TIP3  H1            1.4694475031       -8.2012307453      -10.4054045697  CLST         343          1.0000000000
      1029       343  TIP3  H2            1.6742682183       -9.7132160316      -10.6652275876  CLST         343          1.0000000000
      1030       344  TIP3  OH2           5.5087284718       -3.9050500904        6.4615468383  CLST         344          1.0000000000
      1031       344  TIP3  H1            4.8312772688       -4.4544352984        6.9666650389  CLST         344          1.0000000000
      1032       344  TIP3  H2            5.9758235116       -4.5556630529        5.8751488730  CLST         344          1.0000000000
      1033       345  TIP3  OH2          13.0505404846        7.3457669689        8.7987751562  CLST         345          1.0000000000
      1034       345  TIP3  H1           12.5474323745        6.5778224811        8.4431528558  CLST         345          1.0000000000
      1035       345  TIP3  H2           12.5074337392        7.3738756460        9.6401248951  CLST         345          1.0000000000
      1036       346  TIP3  OH2           9.4550604602        9.3803001431        0.9450302438  CLST         346          1.0000000000
      1037       346  TIP3  H1            9.6916006339       10.1136181490        1.5726736479  CLST         346          1.0000000000
      1038       346  TIP3  H2            8.9357086042        8.8103294690        1.5941629925  CLST         346          1.0000000000
      1039       347  TIP3  OH2          -5.2203544432        2.9865606970       -9.7466436904  CLST         347          1.0000000000
      1040       347  TIP3  H1           -5.9373874702        3.1321101047       -9.0767922408  CLST         347          1.0000000000
      1041       347  TIP3  H2           -4.4332623813        2.9488100349       -9.1944676253  CLST         347          1.0000000000
      1042       348  TIP3  OH2          -1.1786280574        6.1303094213        5.8169963982  CLST         348          1.0000000000
      1043       348  TIP3  H1           -1.3301758236        5.2447715787        5.3480148199  CLST         348          1.0000000000
      1044       348  TIP3  H2           -0.5594353555        6.4805191129        5.1226766339  CLST         348          1.0000000000
      1045       349  TIP3  OH2          -4.2044709240        5.2141503506       -2.5028325065  CLST         349          1.0000000000
      1046       349  TIP3  H1           -3.8433936523        4.6295587937       -3.2204958603  CLST         349          1.0000000000
      1047       349  TIP3  H2           -3.5207842952        5.9567990064       -2.6743044722  CLST         349          1.0000000000
      1048       350  TIP3  OH2          -2.7401573941        9.1069466742        5.1528912112  CLST         350          1.0000000000
      1049       350  TIP3  H1           -3.2431457876        8.8380110470        4.3257880186  CLST         350          1.0000000000
      1050       350  TIP3  H2           -2.3803675512        8.2346166346        5.3509605449  CLST         350          1.0000000000
      1051       351  TIP3  OH2           4.8031714758       -7.5924847840       -7.6795418758  CLST         351          1.0000000000
      1052       351  TIP3  H1            4.1324493422       -8.3344372593       -7.6435742465  CLST         351          1.0000000000
      1053       351  TIP3  H2            4.6767405283       -7.3325617971       -8.6187050721  CLST         351          1.0000000000
      1054       352  TIP3  OH2         -10.4394846354      -11.1388727320        1.7934826336  CLST         352          1.0000000000
      1055       352  TIP3  H1           -9.4885731056      -10.9037722049        1.6043281424  CLST         352          1.0000000000
      1056       352  TIP3  H2          -10.9034457966      -10.4458267084        1.2738604551  CLST         352          1.0000000000
      1057       353  TIP3  OH2          10.6411249876       -8.0561531285       -8.5834010960  CLST         353          1.0000000000
      1058       353  TIP3  H1            9.7291378072       -8.4311550426       -8.7478520273  CLST         353          1.0000000000
      1059       353  TIP3  H2           10.7417186990       -8.2605757146       -7.6390189673  CLST         353          1.0000000000
      1060       354  TIP3  OH2           7.0079266073      -10.4883596066        4.0481187339  CLST         354          1.0000000000
      1061       354  TIP3  H1            7.6298986498      -10.9635767424        4.6847845293  CLST         354          1.0000000000
      1062       354  TIP3  H2            6.7566430175       -9.8243109152        4.7107024538  CLST         354          1.0000000000
      1063       355  TIP3  OH2          -7.2315104334        9.0367997004       -9.0299870207  CLST         355          1.0000000000
      1064       355  TIP3  H1           -6.7853119123        9.8697897839       -9.2530487573  CLST         355          1.0000000000
      1065       355  TIP3  H2           -8.1833630839        9.3564482296       -9.2638396742  CLST         355          1.0000000000
      1066       356  TIP3  OH2          12.5553726635        1.1043521430       -2.0976082689  CLST         356          1.0000000000
      1067       356  TIP3  H1           11.6034503899        0.7707148898       -2.2230947889  CLST         356          1.0000000000
      1068       356  TIP3  H2           12.7676111518        0.8857714701       -1.1633638501  CLST         356          1.0000000000
      1069       357  TIP3  OH2          -0.5684701303       -0.4809871980       -2.0910326598  CLST         357          1.0000000000
      1070       357  TIP3  H1            0.3008539276       -0.9363633965       -2.1872319875  CLST         357          1.0000000000
      1071       357  TIP3  H2           -0.7164585721       -0.2828462105       -3.0733271917  CLST         357          1.0000000000
      1072       358  TIP3  OH2          -5.5692797035        7.1305173077       -7.6295045345  CLST         358          1.0000000000
      1073       358  TIP3  H1           -6.0827591099        7.8092649171       -8.1055979509  CLST         358          1.0000000000
      1074       358  TIP3  H2           -6.3102742383        6.7174666525       -7.0949504342  CLST         358          1.0000000000
      1075       359  TIP3  OH2          -5.1483784795       12.0054638348        6.0262438286  CLST         359          1.0000000000
      1076       359  TIP3  H1           -5.5659312408       11.8147728144        5.1667059149  CLST         359          1.0000000000
      1077       359  TIP3  H2           -4.2104056549       12.0696916325        5.7530321188  CLST         359          1.0000000000
      1078       360  TIP3  OH2          -6.9211197718        5.7561716552       -3.3042478164  CLST         360          1.0000000000
      1079       360  TIP3  H1           -7.1506227672        6.3816386942       -2.5468733826  CLST         360          1.0000000000
      1080       360  TIP3  H2           -5.9587666111        5.6657851354       -3.0260794060  CLST         360          1.0000000000
      1081       361  TIP3  OH2          -1.6492800015       -1.1451341077       10.0882415235  CLST         361          1.0000000000
      1082       361  TIP3  H1           -1.5716148371       -0.5706599725       10.8882219056  CLST         361          1.0000000000
      1083       361  TIP3  H2           -1.7578099496       -2.0251607048       10.5834987213  CLST         361          1.0000000000
      1084       362  TIP3  OH2         -10.5986067286        2.9705192031        0.6851346760  CLST         362          1.0000000000
      1085       362  TIP3  H1          -10.3216095891        3.6757757526        0.0701029568  CLST         362          1.0000000000
      1086       362  TIP3  H2          -11.1716895472        2.3945154391        0.1394565918  CLST         362          1.0000000000
      1087       363  TIP3  OH2          10.3840293984        2.1387778599       10.1637056534  CLST         363          1.0000000000
      1088       363  TIP3  H1           10.3443603263        1.2869448347        9.7486184495  CLST         363          1.0000000000
      1089       363  TIP3  H2           11.1702240924        2.1814340400       10.7410127477  CLST         363          1.0000000000
      1090       364  TIP3  OH2           7.6164973515       -5.6819428509       -6.1503207179  CLST         364          1.0000000000
      1091       364  TIP3  H1            6.8614244882       -5.1738288387       -6.5520068015  CLST         364          1.0000000000
      1092       364  TIP3  H2            8.2592948100       -5.5619678620       -6.9559894412  CLST         364          1.0000000000
      1093       365  TIP3  OH2          -6.1179919276       -6.8952213539        2.6572254721  CLST         365          1.0000000000
      1094       365  TIP3  H1           -6.5190111630       -6.0383301905        2.8815963166  CLST         365          1.0000000000
      1095       365  TIP3  H2           -6.9285964308       -7.4176775232        2.8554827246  CLST         365          1.0000000000
      1096       366  TIP3  OH2           1.8503393864       -1.4430239414       -3.0013232838  CLST         366          1.0000000000
      1097       366  TIP3  H1            2.7843837494       -1.4083189791       -2.6623209386  CLST         366          1.0000000000
      1098       366  TIP3  H2            2.0236582587       -1.1029645160       -3.8862599812  CLST         366          1.0000000000
      1099       367  TIP3  OH2          -4.9844690601       11.5029544515       12.2948101534  CLST         367          1.0000000000
      1100       367  TIP3  H1           -7.4355003738       12.2316166329       11.6514006256  CLST         367          1.0000000000
      1101       367  TIP3  H2           -5.9412623653       11.8341320536       12.2849186626  CLST         367          1.0000000000
      1102       368  TIP3  OH2          -2.7698908749        6.4616862023        1.1917517284  CLST         368          1.0000000000
      1103       368  TIP3  H1           -2.8575110279        7.1465622513        0.4137440305  CLST         368          1.0000000000
      1104       368  TIP3  H2           -3.2341336135        7.0665704450        1.8776613912  CLST         368          1.0000000000
      1105       369  TIP3  OH2         -11.5794796581       -1.7477277707       -6.4376283262  CLST         369          1.0000000000
      1106       369  TIP3  H1          -10.7793077591       -2.3159815785       -6.5262085090  CLST         369          1.0000000000
      1107       369  TIP3  H2          -11.9530696628       -1.9830181545       -7.3466193003  CLST         369          1.0000000000
      1108       370  TIP3  OH2         -11.9241634419        5.5492999564      -11.7321785776  CLST         370          1.0000000000
      1109       370  TIP3  H1          -12.2933727248        4.8871710884      -12.4190175514  CLST         370          1.0000000000
      1110       370  TIP3  H2          -12.4968358365        6.0958658475      -11.4370223430  CLST         370          1.0000000000
      1111       371  TIP3  OH2           2.1373411154        7.7565156440        5.7280854616  CLST         371          1.0000000000
      1112       371  TIP3  H1            2.0328991227        7.7853881494        6.7012534871  CLST         371          1.0000000000
      1113       371  TIP3  H2            3.0815235697        7.5999164194        5.5466605595  CLST         371          1.0000000000
      1114       372  TIP3  OH2           8.1881221483       -7.4850741975        9.1692670349  CLST         372          1.0000000000
      1115       372  TIP3  H1            8.9235683081       -7.6289007220        8.5736250206  CLST         372          1.0000000000
      1116       372  TIP3  H2            8.7458533354       -7.6930461188        9.9945990741  CLST         372          1.0000000000
      1117       373  TIP3  OH2          11.0615451388       -0.2990529081        6.5538669971  CLST         373          1.0000000000
      1118       373  TIP3  H1           11.2918897118        0.5327922278        6.0190078218  CLST         373          1.0000000000
      1119       373  TIP3  H2           10.2800762969       -0.3663859153        5.9750964964  CLST         373          1.0000000000
      1120       374  TIP3  OH2          -9.4065823891        4.8265466590      -12.3274691504  CLST         374          1.0000000000
      1121       374  TIP3  H1           -9.0538732880        5.6566520985      -12.5998451298  CLST         374          1.0000000000
      1122       374  TIP3  H2          -10.3140244189        5.1370439117      -11.9918039094  CLST         374          1.0000000000
      1123       375  TIP3  OH2           9.8641090664       -5.5415203778       -2.7085918629  CLST         375          1.0000000000
      1124       375  TIP3  H1           10.2797230262       -5.2673588372       -3.5408426043  CLST         375          1.0000000000
      1125       375  TIP3  H2           10.1734470763       -6.5248795201       -2.6645110789  CLST         375          1.0000000000
      1126       376  TIP3  OH2          -2.3367136171      -11.1567265969       12.1300514021  CLST         376          1.0000000000
      1127       376  TIP3  H1           -3.0143142678      -11.0101183570       12.8722884204  CLST         376          1.0000000000
      1128       376  TIP3  H2           -2.9487894004      -11.5357404865       11.4743442955  CLST         376          1.0000000000
      1129       377  TIP3  OH2         -10.0486690984       12.7924086475       10.5129199493  CLST         377          1.0000000000
      1130       377  TIP3  H1           -9.1495750481       12.4766818606       10.6978874745  CLST         377          1.0000000000
      1131       377  TIP3  H2           -9.8250298916       13.1234673815        9.5753494831  CLST         377          1.0000000000
      1132       378  TIP3  OH2           2.1935830061       -8.0198996401        7.2795555796  CLST         378          1.0000000000
      1133       378  TIP3  H1            2.0969879425       -7.1424855339        6.8888934167  CLST         378          1.0000000000
      1134       378  TIP3  H2            1.5538271051       -8.1214190152        7.9799820634  CLST         378          1.0000000000
      1135       379  TIP3  OH2          -9.5049842870        9.4586103576       -1.1425158686  CLST         379          1.0000000000
      1136       379  TIP3  H1           -8.7889020131        9.7066107890       -0.5202805061  CLST         379          1.0000000000
      1137       379  TIP3  H2           -9.7408353163       10.3392314082       -1.5698842732  CLST         379          1.0000000000
      1138       380  TIP3  OH2           2.8792821462       -4.2016468161      -11.2323114676  CLST         380          1.0000000000
      1139       380  TIP3  H1            2.4215195863       -3.4762447456      -11.7703511924  CLST         380          1.0000000000
      1140       380  TIP3  H2            3.3374344790       -4.6295220764      -11.9983147264  CLST         380          1.0000000000
      1141       381  TIP3  OH2          10.2823237232        4.2895708111        3.4033975023  CLST         381          1.0000000000
      1142       381  TIP3  H1            9.4413371784        4.6235794836        3.7513138248  CLST         381          1.0000000000
      1143       381  TIP3  H2           10.8398968476        5.1040824038        3.5386953807  CLST         381          1.0000000000
      1144       382  TIP3  OH2           1.9508106516       -5.4875253051        5.8255058710  CLST         382          1.0000000000
      1145       382  TIP3  H1            2.3606325221       -5.0949231525        6.6123151092  CLST         382          1.0000000000
      1146       382  TIP3  H2            2.7415689128       -5.9340167954        5.4289512063  CLST         382          1.0000000000
      1147       383  TIP3  OH2          10.2724201304        8.9839019866        4.8325157963  CLST         383          1.0000000000
      1148       383  TIP3  H1            9.4905444948        9.3189768863        4.3157243317  CLST         383          1.0000000000
      1149       383  TIP3  H2           10.5573103382        9.8948055058        5.0618880541  CLST         383          1.0000000000
      1150       384  TIP3  OH2          -3.3544244804       -1.8660114104       -8.2411178841  CLST         384          1.0000000000
      1151       384  TIP3  H1           -2.8540728485       -2.7577036702       -8.2815414486  CLST         384          1.0000000000
      1152       384  TIP3  H2           -2.6571744814       -1.4633538230       -7.6436252395  CLST         384          1.0000000000
      1153       385  TIP3  OH2           3.6037120022      -11.8533355882       -0.6773815265  CLST         385          1.0000000000
      1154       385  TIP3  H1            4.5237658558      -12.3330618894       -0.5914201929  CLST         385          1.0000000000
      1155       385  TIP3  H2            3.8244570380      -11.1944557867        0.0314805081  CLST         385          1.0000000000
      1156       386  TIP3  OH2          -4.3511353034        9.4565048585       -6.1180181603  CLST         386          1.0000000000
      1157       386  TIP3  H1           -4.1147671400        8.4995548176       -6.3086106393  CLST         386          1.0000000000
      1158       386  TIP3  H2           -3.8633954661        9.9409274424       -6.8148155258  CLST         386          1.0000000000
      1159       387  TIP3  OH2          -9.9552240074       10.7745770434        2.7076960049  CLST         387          1.0000000000
      1160       387  TIP3  H1          -10.8151005922       10.5264502023        2.2599930411  CLST         387          1.0000000000
      1161       387  TIP3  H2           -9.3495122769       10.3577391041        2.0425616615  CLST         387          1.0000000000
      1162       388  TIP3  OH2          -1.7689597068      -12.3440906148        6.0192267274  CLST         388          1.0000000000
      1163       388  TIP3  H1           -2.1322865744      -11.5183313842        5.5981569743  CLST         388          1.0000000000
      1164       388  TIP3  H2           -1.8130249916      -12.0615709184        6.9588793790  CLST         388          1.0000000000
      1165       389  TIP3  OH2          -8.1486919559        3.4335335876       -3.5968191787  CLST         389          1.0000000000
      1166       389  TIP3  H1           -7.6667420250        4.2709812421       -3.3554068993  CLST         389          1.0000000000
      1167       389  TIP3  H2           -8.9850541439        3.8532633469       -3.8452524250  CLST         389          1.0000000000
      1168       390  TIP3  OH2          -5.7823198573       -4.0294486573        4.7187115511  CLST         390          1.0000000000
      1169       390  TIP3  H1           -5.2840766418       -3.1113264095        4.7099878708  CLST         390          1.0000000000
      1170       390  TIP3  H2           -5.1430790468       -4.5053011514        4.1613952306  CLST         390          1.0000000000
      1171       391  TIP3  OH2          -8.7420971930       -8.8697412880       -6.2482244416  CLST         391          1.0000000000
      1172       391  TIP3  H1           -9.3560033777       -9.4145994983       -6.7664640155  CLST         391          1.0000000000
      1173       391  TIP3  H2           -8.0829752628       -9.5442667407       -5.9377422392  CLST         391          1.0000000000
      1174       392  TIP3  OH2           1.0322745719       -1.9428682033       10.0286433210  CLST         392          1.0000000000
      1175       392  TIP3  H1            0.4449814761       -2.7262360484       10.1980100102  CLST         392          1.0000000000
      1176       392  TIP3  H2            0.2510635759       -1.3229035876        9.8521101892  CLST         392          1.0000000000
      1177       393  TIP3  OH2          11.0168797355      -11.4932879472       -0.8503058661  CLST         393          1.0000000000
      1178       393  TIP3  H1           11.3175744286      -10.5663377109       -0.6607028058  CLST         393          1.0000000000
      1179       393  TIP3  H2           11.8770136808      -11.8160750916       -1.1972538181  CLST         393          1.0000000000
      1180       394  TIP3  OH2           0.4589511134       11.7490378124       -8.6835401701  CLST         394          1.0000000000
      1181       394  TIP3  H1            1.0696687927       12.2155647218       -8.0512425705  CLST         394          1.0000000000
      1182       394  TIP3  H2            0.6697211759       10.7489853597       -8.3284131473  CLST         394          1.0000000000
      1183       395  TIP3  OH2           7.0263718424        7.6299999017       -4.6277724707  CLST         395          1.0000000000
      1184       395  TIP3  H1            6.0954131949        8.0301801362       -4.7342204478  CLST         395          1.0000000000
      1185       395  TIP3  H2            6.9962972907        7.2490412811       -5.5908293491  CLST         395          1.0000000000
      1186       396  TIP3  OH2          -1.1742984486       -9.9787171066       -9.1923672475  CLST         396          1.0000000000
      1187       396  TIP3  H1           -1.1094716440       -9.9669326064       -8.1661710067  CLST         396          1.0000000000
      1188       396  TIP3  H2           -0.2551574770       -9.5912402260       -9.3183015843  CLST         396          1.0000000000
      1189       397  TIP3  OH2          11.3817226372        7.3001821604       -9.0749038728  CLST         397          1.0000000000
      1190       397  TIP3  H1           11.9952079149        6.7174805279       -8.5396901189  CLST         397          1.0000000000
      1191       397  TIP3  H2           10.5155743598        7.3700696310       -8.5137254564  CLST         397          1.0000000000
      1192       398  TIP3  OH2          10.6881044646        7.7840005019       -4.8896916423  CLST         398          1.0000000000
      1193       398  TIP3  H1           10.0815693531        8.0793948384       -4.1501512135  CLST         398          1.0000000000
      1194       398  TIP3  H2           11.4068736703        7.4372201398       -4.3122403154  CLST         398          1.0000000000
      1195       399  TIP3  OH2           2.0359498338       11.2106252319        4.9731974645  CLST         399          1.0000000000
      1196       399  TIP3  H1            1.1705355028       11.1947247375        5.4274406411  CLST         399          1.0000000000
      1197       399  TIP3  H2            2.5695952323       11.0706575794        5.7861028183  CLST         399          1.0000000000
      1198       400  TIP3  OH2           4.0627605069       -3.0852078816       -5.0864644570  CLST         400          1.0000000000
      1199       400  TIP3  H1            4.8966590204       -2.9802117999       -4.5609931223  CLST         400          1.0000000000
      1200       400  TIP3  H2            4.4254628655       -3.7026938379       -5.7860301495  CLST         400          1.0000000000
      1201       401  TIP3  OH2         -15.0998799576        9.9621898435        5.4427274513  CLST         401          1.0000000000
      1202       401  TIP3  H1          -14.5139678351       10.2899928875        6.1786817039  CLST         401          1.0000000000
      1203       401  TIP3  H2          -15.8350090738        9.6196070929        5.9986358674  CLST         401          1.0000000000
      1204       402  TIP3  OH2           1.6307492531       -1.7257223042       12.7198942870  CLST         402          1.0000000000
      1205       402  TIP3  H1            1.2176635171       -2.6224390578       12.6690431567  CLST         402          1.0000000000
      1206       402  TIP3  H2            1.6491637379       -1.6081212766       11.7433613811  CLST         402          1.0000000000
      1207       403  TIP3  OH2          -2.0744085142       -6.8840622152       -0.3331335116  CLST         403          1.0000000000
      1208       403  TIP3  H1           -1.6813523219       -7.2626072521       -1.1915356635  CLST         403          1.0000000000
      1209       403  TIP3  H2           -1.3256680388       -8.6455395955       -1.9351948783  CLST         403          1.0000000000
      1210       404  TIP3  OH2          -4.9058886130       -2.5192490716        8.9643314985  CLST         404          1.0000000000
      1211       404  TIP3  H1           -5.0105433510       -2.7308706738        9.8857790429  CLST         404          1.0000000000
      1212       404  TIP3  H2           -5.2650934162       -3.3284436123        8.5286444861  CLST         404          1.0000000000
      1213       405  TIP3  OH2         -11.9520460283        7.2883467499       11.5536751822  CLST         405          1.0000000000
      1214       405  TIP3  H1          -11.9450850193        6.4634506497       11.0243026923  CLST         405          1.0000000000
      1215       405  TIP3  H2          -12.7900954786        7.1887963979       11.9886736087  CLST         405          1.0000000000
      1216       406  TIP3  OH2           1.1186324535        7.7669560691      -12.2444188998  CLST         406          1.0000000000
      1217       406  TIP3  H1            1.0822077831        9.1155864828      -12.4078290197  CLST         406          1.0000000000
      1218       406  TIP3  H2            1.6437838815        7.9494853261      -11.1837391133  CLST         406          1.0000000000
      1219       407  TIP3  OH2          10.4281048852      -13.0857878038        5.1123702748  CLST         407          1.0000000000
      1220       407  TIP3  H1           10.5590045938      -13.1761114805        4.1479659545  CLST         407          1.0000000000
      1221       407  TIP3  H2           11.2407864089      -12.4857001609        5.2703139919  CLST         407          1.0000000000
      1222       408  TIP3  OH2          -2.9052880761      -11.7581681179        1.9148725321  CLST         408          1.0000000000
      1223       408  TIP3  H1           -2.1085582121      -11.1195036245        1.8704798226  CLST         408          1.0000000000
      1224       408  TIP3  H2           -2.3756071230      -12.5539048160        2.1371320369  CLST         408          1.0000000000
      1225       409  TIP3  OH2           1.0334082478       -9.5161417306        9.7190301854  CLST         409          1.0000000000
      1226       409  TIP3  H1            0.5895422309       -9.5063586359       10.6316146026  CLST         409          1.0000000000
      1227       409  TIP3  H2            1.6150753641      -10.3084049165        9.8846662842  CLST         409          1.0000000000
      1228       410  TIP3  OH2           9.9331011404       -7.3083896812       -5.3032190496  CLST         410          1.0000000000
      1229       410  TIP3  H1            9.0799750460       -6.8921383168       -5.5701102832  CLST         410          1.0000000000
      1230       410  TIP3  H2           10.5101112611       -6.5339725511       -5.5336507456  CLST         410          1.0000000000
      1231       411  TIP3  OH2          -9.9540798044       -2.3067111675       -1.5143158784  CLST         411          1.0000000000
      1232       411  TIP3  H1           -9.1239133534       -2.0474768231       -1.2029803423  CLST         411          1.0000000000
      1233       411  TIP3  H2           -9.6847268464       -2.7852852464       -2.3432429747  CLST         411          1.0000000000
      1234       412  TIP3  OH2           6.6774613945      -10.3740894346      -11.8550797991  CLST         412          1.0000000000
      1235       412  TIP3  H1            6.0807268668      -10.7329894609      -11.1806937255  CLST         412          1.0000000000
      1236       412  TIP3  H2            7.4009054249      -11.0408247886      -11.8758530776  CLST         412          1.0000000000
      1237       413  TIP3  OH2           7.0644743183       13.0830067138        0.3368322685  CLST         413          1.0000000000
      1238       413  TIP3  H1            7.6824269625       12.6471589774       -0.2400451849  CLST         413          1.0000000000
      1239       413  TIP3  H2            7.7338144819       13.5254404006        0.9072080903  CLST         413          1.0000000000
      1240       414  TIP3  OH2           1.4859453645       -2.5035193145      -12.5646273828  CLST         414          1.0000000000
      1241       414  TIP3  H1            0.5863409607       -2.1265113316      -12.3595704252  CLST         414          1.0000000000
      1242       414  TIP3  H2            1.4688394307       -2.7303709750      -13.4986434494  CLST         414          1.0000000000
      1243       415  TIP3  OH2           4.2026519764        5.1958309169       -8.1646301942  CLST         415          1.0000000000
      1244       415  TIP3  H1            3.5702249930        4.4012638264       -7.9969354553  CLST         415          1.0000000000
      1245       415  TIP3  H2            4.7795122742        4.5790766725       -8.7716242512  CLST         415          1.0000000000
      1246       416  TIP3  OH2           5.6361356475       12.2588868981       -7.8259348364  CLST         416          1.0000000000
      1247       416  TIP3  H1            5.4881297988       13.1000848591       -8.0083676149  CLST         416          1.0000000000
      1248       416  TIP3  H2            6.6064011761       12.1378707450       -8.2147036093  CLST         416          1.0000000000
      1249       417  TIP3  OH2          12.4916378599      -11.0423303215        2.7738202929  CLST         417          1.0000000000
      1250       417  TIP3  H1           11.9353259441      -11.6624240397        2.2565635458  CLST         417          1.0000000000
      1251       417  TIP3  H2           12.4484475212      -10.1955067910        2.3141403038  CLST         417          1.0000000000
      1252       418  TIP3  OH2          -9.1986656334       -1.5831588874        8.2411069441  CLST         418          1.0000000000
      1253       418  TIP3  H1           -8.7710916542       -1.0540500141        7.5091389452  CLST         418          1.0000000000
      1254       418  TIP3  H2           -9.3174560667       -0.8704179727        8.8943916025  CLST         418          1.0000000000
      1255       419  TIP3  OH2          14.8175468669        0.1253811820       -6.3873275492  CLST         419          1.0000000000
      1256       419  TIP3  H1           14.0817966744        1.0831124108       -4.7111681074  CLST         419          1.0000000000
      1257       419  TIP3  H2           15.4349333628        0.6892155246       -5.3875843291  CLST         419          1.0000000000
      1258       420  TIP3  OH2          -8.2705552227       -8.2044145329        3.7548222005  CLST         420          1.0000000000
      1259       420  TIP3  H1           -8.9542945091       -7.8951134292        3.0889237105  CLST         420          1.0000000000
      1260       420  TIP3  H2           -8.6106808445       -9.1161717449        3.9594793190  CLST         420          1.0000000000
      1261       421  TIP3  OH2           3.5655468177       -6.2623626679      -13.2711142992  CLST         421          1.0000000000
      1262       421  TIP3  H1            4.4734209844       -6.6113354972      -13.2199386054  CLST         421          1.0000000000
      1263       421  TIP3  H2            3.1641731325       -7.2082718984      -13.3242678400  CLST         421          1.0000000000
      1264       422  TIP3  OH2          -1.7861402935       -9.5855894277       -1.8864993069  CLST         422          1.0000000000
      1265       422  TIP3  H1           -1.3884528944      -10.5035789465       -1.7927502925  CLST         422          1.0000000000
      1266       422  TIP3  H2           -2.7034045867       -9.9771937354       -1.7722507893  CLST         422          1.0000000000
      1267       423  TIP3  OH2           1.6291382612        4.9261305559       -4.0091659709  CLST         423          1.0000000000
      1268       423  TIP3  H1            2.4517618596        5.3490136946       -4.4283936930  CLST         423          1.0000000000
      1269       423  TIP3  H2            1.9350446963        4.7334866361       -3.0834551482  CLST         423          1.0000000000
      1270       424  TIP3  OH2          -8.8477520398        4.4152127104        4.3476765599  CLST         424          1.0000000000
      1271       424  TIP3  H1           -8.6822396761        3.8394265947        3.5719653745  CLST         424          1.0000000000
      1272       424  TIP3  H2           -8.1725460802        5.1370255892        4.2976997550  CLST         424          1.0000000000
      1273       425  TIP3  OH2           7.9669048609      -12.7593998322        8.3811548795  CLST         425          1.0000000000
      1274       425  TIP3  H1            8.1769470304      -12.2221574797        7.5215982185  CLST         425          1.0000000000
      1275       425  TIP3  H2            7.2672458996      -12.1669370919        8.7316250390  CLST         425          1.0000000000
      1276       426  TIP3  OH2           8.3712848630        2.4415612354        8.1932454051  CLST         426          1.0000000000
      1277       426  TIP3  H1            9.0301329943        2.4199860867        8.9301385046  CLST         426          1.0000000000
      1278       426  TIP3  H2            8.4266142708        3.4175860992        7.9960346077  CLST         426          1.0000000000
      1279       427  TIP3  OH2          11.4234194616        7.4645008452       10.8680213268  CLST         427          1.0000000000
      1280       427  TIP3  H1           11.3548005454        8.0272909257       11.6601248668  CLST         427          1.0000000000
      1281       427  TIP3  H2           10.6277570724        6.8553263477       10.8884111618  CLST         427          1.0000000000
      1282       428  TIP3  OH2          12.5617912547        7.6007970862        1.0586876994  CLST         428          1.0000000000
      1283       428  TIP3  H1           12.4084055023        7.9361823619        0.0773045241  CLST         428          1.0000000000
      1284       428  TIP3  H2           13.4589460285        7.8278225914        1.0605553179  CLST         428          1.0000000000
      1285       429  TIP3  OH2          11.8912950523       -9.8633349157       -0.8497414185  CLST         429          1.0000000000
      1286       429  TIP3  H1           12.1172687290       -9.2600349800        0.0215517780  CLST         429          1.0000000000
      1287       429  TIP3  H2           11.3562236073       -9.1966978116       -1.4151628745  CLST         429          1.0000000000
      1288       430  TIP3  OH2           9.9574649355       -6.6893258446        3.6999087091  CLST         430          1.0000000000
      1289       430  TIP3  H1            9.7691016376       -7.0812885148        2.7976051680  CLST         430          1.0000000000
      1290       430  TIP3  H2           10.9568959573       -6.8107631742        3.6519864837  CLST         430          1.0000000000
      1291       431  TIP3  OH2         -12.9612468685        9.6273324735       -2.6769610331  CLST         431          1.0000000000
      1292       431  TIP3  H1          -13.7652744368        9.9992036929       -2.9314757581  CLST         431          1.0000000000
      1293       431  TIP3  H2          -13.1799531435        9.1795465363       -1.8743538203  CLST         431          1.0000000000
      1294       432  TIP3  OH2           5.4558623694        8.6052055671      -10.0442573538  CLST         432          1.0000000000
      1295       432  TIP3  H1            5.8863746599        8.8307940699       -9.1938926745  CLST         432          1.0000000000
      1296       432  TIP3  H2            4.8527751557        9.4148019600       -9.9953482748  CLST         432          1.0000000000
      1297       433  TIP3  OH2          -0.7193174847        8.1000127166        7.8648596136  CLST         433          1.0000000000
      1298       433  TIP3  H1           -1.6201468592        8.5079498355        7.9621894223  CLST         433          1.0000000000
      1299       433  TIP3  H2           -0.9475322315        7.2822515050        7.3695737335  CLST         433          1.0000000000
      1300       434  TIP3  OH2          -7.3648726338        0.6238452611        3.7306051845  CLST         434          1.0000000000
      1301       434  TIP3  H1           -7.7242135965        1.3577900302        3.1499606192  CLST         434          1.0000000000
      1302       434  TIP3  H2           -8.1238804723       -0.0541988328        3.6052413512  CLST         434          1.0000000000
      1303       435  TIP3  OH2           9.9489057050       -0.7131181711       -6.9349392592  CLST         435          1.0000000000
      1304       435  TIP3  H1            9.5162367193       -0.5240908408       -6.0663342214  CLST         435          1.0000000000
      1305       435  TIP3  H2           10.7236412822       -0.1909836374       -6.9072285957  CLST         435          1.0000000000
      1306       436  TIP3  OH2           3.7378504678       10.5873736825       -9.1502424866  CLST         436          1.0000000000
      1307       436  TIP3  H1            4.1277295343       11.2387333253       -8.5314133920  CLST         436          1.0000000000
      1308       436  TIP3  H2            2.8773483471       10.3433513967       -8.6652476807  CLST         436          1.0000000000
      1309       437  TIP3  OH2          -8.2761044526       -0.9775296546       -8.0769397411  CLST         437          1.0000000000
      1310       437  TIP3  H1           -8.5148246274       -0.4870378864       -8.8914373488  CLST         437          1.0000000000
      1311       437  TIP3  H2           -7.3189410027       -0.6686902862       -8.0597691783  CLST         437          1.0000000000
      1312       438  TIP3  OH2          -3.4795278743        5.5376070034       -8.1394307864  CLST         438          1.0000000000
      1313       438  TIP3  H1           -4.1994554726        6.1838528672       -7.8784446351  CLST         438          1.0000000000
      1314       438  TIP3  H2           -3.7566457231        5.6428067398       -9.0955155247  CLST         438          1.0000000000
      1315       439  TIP3  OH2          14.1143334956        1.7493274861       -4.0592397211  CLST         439          1.0000000000
      1316       439  TIP3  H1           13.4324061117        2.7051332518       -4.2448828260  CLST         439          1.0000000000
      1317       439  TIP3  H2           13.3152420907        1.4419703557       -2.7622373496  CLST         439          1.0000000000
      1318       440  TIP3  OH2           1.2963583675      -12.7577195108      -11.2184270159  CLST         440          1.0000000000
      1319       440  TIP3  H1            0.1149657230      -12.7755952492      -11.4706504076  CLST         440          1.0000000000
      1320       440  TIP3  H2            0.5015535373      -13.7823210415      -11.7227086849  CLST         440          1.0000000000
      1321       441  TIP3  OH2          -1.5812436443       -4.2874203796        3.0992386039  CLST         441          1.0000000000
      1322       441  TIP3  H1           -2.0269113353       -3.4887134411        3.2717315625  CLST         441          1.0000000000
      1323       441  TIP3  H2           -1.2297239058       -4.6583782800        3.9235855611  CLST         441          1.0000000000
      1324       442  TIP3  OH2           3.1770429313       -9.7777895033       -8.0021185573  CLST         442          1.0000000000
      1325       442  TIP3  H1            3.6633110749      -10.3080248249       -8.6963570457  CLST         442          1.0000000000
      1326       442  TIP3  H2            2.3930390210       -9.4820028342       -8.5558036678  CLST         442          1.0000000000
      1327       443  TIP3  OH2           1.0914404937       10.2759312803      -12.8301740272  CLST         443          1.0000000000
      1328       443  TIP3  H1            1.4187214382       11.8376851373      -11.7067177615  CLST         443          1.0000000000
      1329       443  TIP3  H2            2.3818744127       10.7305788365      -12.2295417281  CLST         443          1.0000000000
      1330       444  TIP3  OH2          -8.0274204012        1.3215211330       -1.9195595964  CLST         444          1.0000000000
      1331       444  TIP3  H1           -8.0051716283        2.0275854375       -2.6423314127  CLST         444          1.0000000000
      1332       444  TIP3  H2           -7.5712937538        1.9314574882       -1.2577247164  CLST         444          1.0000000000
      1333       445  TIP3  OH2         -11.5270325116       -5.3270323410        6.0609116616  CLST         445          1.0000000000
      1334       445  TIP3  H1          -11.4014562854       -4.3244913895        5.8878282367  CLST         445          1.0000000000
      1335       445  TIP3  H2          -11.5351772219       -5.2063487354        7.0469236424  CLST         445          1.0000000000
      1336       446  TIP3  OH2          -2.9075641651        4.5991250028       -5.1646844249  CLST         446          1.0000000000
      1337       446  TIP3  H1           -3.3264489197        4.7957248527       -6.0098567994  CLST         446          1.0000000000
      1338       446  TIP3  H2           -2.0526155575        5.1140354855       -5.2765639360  CLST         446          1.0000000000
      1339       447  TIP3  OH2          -5.1082109558      -12.6756027200       -3.7950033465  CLST         447          1.0000000000
      1340       447  TIP3  H1           -5.6529680638      -13.3984509107       -3.5379151400  CLST         447          1.0000000000
      1341       447  TIP3  H2           -4.7834883356      -12.2241023238       -2.9893361813  CLST         447          1.0000000000
      1342       448  TIP3  OH2           7.2956435216        9.5479451278        4.7007083369  CLST         448          1.0000000000
      1343       448  TIP3  H1            7.5158940563        9.5290794114        5.6670354592  CLST         448          1.0000000000
      1344       448  TIP3  H2            6.5274886301       10.2053924261        4.8095122475  CLST         448          1.0000000000
      1345       449  TIP3  OH2           4.2556968292        5.1800598576        8.5622698797  CLST         449          1.0000000000
      1346       449  TIP3  H1            4.8910420296        4.5612924683        9.0486255667  CLST         449          1.0000000000
      1347       449  TIP3  H2            3.8332112620        4.5851008505        7.9403990101  CLST         449          1.0000000000
      1348       450  TIP3  OH2          -4.2280683397        0.5282500822       -2.3063519990  CLST         450          1.0000000000
      1349       450  TIP3  H1           -3.6962749385        1.0483977132       -2.9020849727  CLST         450          1.0000000000
      1350       450  TIP3  H2           -3.5794234189        0.0355817426       -1.7973057497  CLST         450          1.0000000000
      1351       451  TIP3  OH2          13.8096461293       -1.2244743468       -6.5257310862  CLST         451          1.0000000000
      1352       451  TIP3  H1           14.3652801291       -1.8789857905       -6.0584308931  CLST         451          1.0000000000
      1353       451  TIP3  H2           14.4427582337       -0.5189135433       -6.5987816672  CLST         451          1.0000000000
      1354       452  TIP3  OH2           8.4623032537        5.0806441735        8.0933724382  CLST         452          1.0000000000
      1355       452  TIP3  H1            7.6377613364        5.6122490202        7.9142940469  CLST         452          1.0000000000
      1356       452  TIP3  H2            9.0854213196        5.6894980648        7.6125768577  CLST         452          1.0000000000
      1357       453  TIP3  OH2           7.0437226108        2.7050344814       -6.1465235419  CLST         453          1.0000000000
      1358       453  TIP3  H1            6.1113506487        2.5574307485       -5.9106132749  CLST         453          1.0000000000
      1359       453  TIP3  H2            7.0359689600        2.1748822277       -6.9541192589  CLST         453          1.0000000000
      1360       454  TIP3  OH2           1.1654397381        5.4270098117        1.9461934237  CLST         454          1.0000000000
      1361       454  TIP3  H1            0.2711531525        5.0804692611        1.6974326319  CLST         454          1.0000000000
      1362       454  TIP3  H2            0.8784324958        6.0400022641        2.6880638770  CLST         454          1.0000000000
      1363       455  TIP3  OH2          -1.1702295481        0.9340955714      -10.3040157791  CLST         455          1.0000000000
      1364       455  TIP3  H1           -1.1315452156        1.2601009570       -9.3667346481  CLST         455          1.0000000000
      1365       455  TIP3  H2           -0.9745543376        1.8662340915      -10.6490981184  CLST         455          1.0000000000
      1366       456  TIP3  OH2           5.3634130322       11.3007452450        5.2006266074  CLST         456          1.0000000000
      1367       456  TIP3  H1            4.7306513660       11.7582822506        4.5894951542  CLST         456          1.0000000000
      1368       456  TIP3  H2            4.7001006868       11.0434711201        5.8690185351  CLST         456          1.0000000000
      1369       457  TIP3  OH2          -4.9014521165       -7.7462350104        4.9020060152  CLST         457          1.0000000000
      1370       457  TIP3  H1           -5.6093803201       -7.5819384895        5.5101407343  CLST         457          1.0000000000
      1371       457  TIP3  H2           -5.2950639763       -7.5047753669        4.0251836711  CLST         457          1.0000000000
      1372       458  TIP3  OH2           7.9322058142       -6.4799850257      -11.2408994994  CLST         458          1.0000000000
      1373       458  TIP3  H1            8.9060645297       -6.3383063206      -11.4204838702  CLST         458          1.0000000000
      1374       458  TIP3  H2            7.7888639098       -5.6325766811      -10.7698630928  CLST         458          1.0000000000
      1375       459  TIP3  OH2           6.5405701311      -10.0584840574       -7.9887173978  CLST         459          1.0000000000
      1376       459  TIP3  H1            6.1036599807       -9.2051981581       -7.7255330377  CLST         459          1.0000000000
      1377       459  TIP3  H2            7.3399642837       -9.6752666031       -8.4492267405  CLST         459          1.0000000000
      1378       460  TIP3  OH2           9.0774237768       -2.1083463981       -2.8154624925  CLST         460          1.0000000000
      1379       460  TIP3  H1            9.7073141473       -2.6613002210       -2.3380206191  CLST         460          1.0000000000
      1380       460  TIP3  H2            9.7837798662       -1.6430390966       -3.4286173546  CLST         460          1.0000000000
      1381       461  TIP3  OH2          -1.4131664530      -12.8595484097       -5.4199233942  CLST         461          1.0000000000
      1382       461  TIP3  H1           -0.6904714577      -13.1630291660       -6.0035008784  CLST         461          1.0000000000
      1383       461  TIP3  H2           -1.0013216239      -13.1440878955       -4.5365663225  CLST         461          1.0000000000
      1384       462  TIP3  OH2          -0.0702424457        5.5041054968      -12.8075641456  CLST         462          1.0000000000
      1385       462  TIP3  H1            0.5730881360        6.8448664777      -12.4982712525  CLST         462          1.0000000000
      1386       462  TIP3  H2            0.6688185923        5.3054836007      -13.1497216062  CLST         462          1.0000000000
      1387       463  TIP3  OH2          -1.7544837606        1.8980558809       -7.6523793979  CLST         463          1.0000000000
      1388       463  TIP3  H1           -1.4642560698        1.0284432999       -7.2328213530  CLST         463          1.0000000000
      1389       463  TIP3  H2           -2.7438741346        1.8014880145       -7.4438424461  CLST         463          1.0000000000
      1390       464  TIP3  OH2          -6.7125927130        6.3104275737        4.4032534942  CLST         464          1.0000000000
      1391       464  TIP3  H1           -6.0129205419        5.9082610498        4.9020089367  CLST         464          1.0000000000
      1392       464  TIP3  H2           -7.0168143011        7.0629499693        5.0890302571  CLST         464          1.0000000000
      1393       465  TIP3  OH2          -4.5380962669      -12.5182772050        6.2945095327  CLST         465          1.0000000000
      1394       465  TIP3  H1           -3.6521739090      -12.9546124076        6.3237859962  CLST         465          1.0000000000
      1395       465  TIP3  H2           -4.1897967101      -11.6316343800        6.0354423987  CLST         465          1.0000000000
      1396       466  TIP3  OH2          -2.4372927815        9.3093183452       -4.2571690680  CLST         466          1.0000000000
      1397       466  TIP3  H1           -1.8478120248        9.6387999000       -3.2557736509  CLST         466          1.0000000000
      1398       466  TIP3  H2           -2.4420176153       10.2689990993       -3.3838647399  CLST         466          1.0000000000
      1399       467  TIP3  OH2           8.2405122092        5.8935290584        4.5591444536  CLST         467          1.0000000000
      1400       467  TIP3  H1            8.7027346880        6.2783826787        5.3423256989  CLST         467          1.0000000000
      1401       467  TIP3  H2            8.1910046416        6.6785145275        3.9361056645  CLST         467          1.0000000000
      1402       468  TIP3  OH2          -0.4904335256      -12.3983712532       10.4037119644  CLST         468          1.0000000000
      1403       468  TIP3  H1           -0.9672986512      -12.3119764460       11.2455392991  CLST         468          1.0000000000
      1404       468  TIP3  H2            0.4493270328      -12.3037481146       10.6829023633  CLST         468          1.0000000000
      1405       469  TIP3  OH2           5.5484254516        8.2154184016       14.2324915692  CLST         469          1.0000000000
      1406       469  TIP3  H1            6.1956032255        8.4910521838       13.5549104099  CLST         469          1.0000000000
      1407       469  TIP3  H2            4.8504071708        8.8082963879       13.9941438524  CLST         469          1.0000000000
      1408       470  TIP3  OH2         -11.3042646121       12.9218210904        0.6426787462  CLST         470          1.0000000000
      1409       470  TIP3  H1          -11.2142756497       12.6955555735       -0.2874531174  CLST         470          1.0000000000
      1410       470  TIP3  H2          -11.8889259938       12.1677249000        0.9924050196  CLST         470          1.0000000000
      1411       471  TIP3  OH2          -4.2250957510        9.8603135417       -9.0684745080  CLST         471          1.0000000000
      1412       471  TIP3  H1           -4.0660514990        8.9174912452       -9.1879751068  CLST         471          1.0000000000
      1413       471  TIP3  H2           -4.5353056406       10.0679642100       -9.9978190036  CLST         471          1.0000000000
      1414       472  TIP3  OH2         -12.0618880686        3.9551265473        2.7829500132  CLST         472          1.0000000000
      1415       472  TIP3  H1          -12.6016238420        3.0805468887        2.8528919986  CLST         472          1.0000000000
      1416       472  TIP3  H2          -11.4155307257        3.5639165827        2.1111879813  CLST         472          1.0000000000
      1417       473  TIP3  OH2           5.3232188451        0.8141135205       10.2470697474  CLST         473          1.0000000000
      1418       473  TIP3  H1            6.0226105582        1.5020381244       10.3407951711  CLST         473          1.0000000000
      1419       473  TIP3  H2            4.5866905572        1.4251744657       10.3188638693  CLST         473          1.0000000000
      1420       474  TIP3  OH2           1.5177587882        1.7717167646        1.3945265520  CLST         474          1.0000000000
      1421       474  TIP3  H1            0.7631824753        2.1985335578        0.9745210058  CLST         474          1.0000000000
      1422       474  TIP3  H2            1.0890734761        0.8765907664        1.3257263335  CLST         474          1.0000000000
      1423       475  TIP3  OH2           5.9687954752       -8.6661446791       11.9709273976  CLST         475          1.0000000000
      1424       475  TIP3  H1            6.8113031905       -8.7284351551       12.4284247042  CLST         475          1.0000000000
      1425       475  TIP3  H2            6.0191361164       -9.0596996497       11.0673828701  CLST         475          1.0000000000
      1426       476  TIP3  OH2         -11.5130461089       -8.9610932674       -0.0581220059  CLST         476          1.0000000000
      1427       476  TIP3  H1          -11.7507785995       -8.0678511841       -0.5231569479  CLST         476          1.0000000000
      1428       476  TIP3  H2          -11.4424150282       -9.4161178492       -0.8901699681  CLST         476          1.0000000000
      1429       477  TIP3  OH2         -12.5580422430        3.6887912016      -13.3926277531  CLST         477          1.0000000000
      1430       477  TIP3  H1          -13.0070433953        2.8389198605      -13.3659911809  CLST         477          1.0000000000
      1431       477  TIP3  H2          -11.8020574229        3.3837368512      -13.9204154848  CLST         477          1.0000000000
      1432       478  TIP3  OH2          -3.9824878260        6.5345049784      -10.7492750162  CLST         478          1.0000000000
      1433       478  TIP3  H1           -4.4541628931        6.1781756188      -11.5168683311  CLST         478          1.0000000000
      1434       478  TIP3  H2           -3.4173739744        7.2191051307      -11.2214617932  CLST         478          1.0000000000
      1435       479  TIP3  OH2           7.9624394780       -1.7440491409       -8.4087860506  CLST         479          1.0000000000
      1436       479  TIP3  H1            8.9029762466       -1.3294080912       -7.9895831545  CLST         479          1.0000000000
      1437       479  TIP3  H2            7.4409460413       -1.4606703354       -7.6234462915  CLST         479          1.0000000000
      1438       480  TIP3  OH2          -6.0094466798        7.6089364908       -0.0206641715  CLST         480          1.0000000000
      1439       480  TIP3  H1           -5.1677840968        8.0769238900       -0.2429521831  CLST         480          1.0000000000
      1440       480  TIP3  H2           -5.6354443674        6.6837800821       -0.1347240772  CLST         480          1.0000000000
      1441       481  TIP3  OH2          -3.0470798293        2.4950888582       12.0219387791  CLST         481          1.0000000000
      1442       481  TIP3  H1           -2.1061162794        2.5900601740       11.6834436760  CLST         481          1.0000000000
      1443       481  TIP3  H2           -3.0807553827        1.5884641186       12.3011855834  CLST         481          1.0000000000
      1444       482  TIP3  OH2          -8.0592028798       11.6079395432       -7.4953646843  CLST         482          1.0000000000
      1445       482  TIP3  H1           -8.7096245030       11.3584384206       -8.2273528475  CLST         482          1.0000000000
      1446       482  TIP3  H2           -7.3605858010       12.0498737163       -8.0867568170  CLST         482          1.0000000000
      1447       483  TIP3  OH2           6.3634730047       -5.9282167805       12.4820351796  CLST         483          1.0000000000
      1448       483  TIP3  H1            5.7889005199       -6.7219966045       12.3097260356  CLST         483          1.0000000000
      1449       483  TIP3  H2            6.3677107532       -5.7068725314       11.4907619727  CLST         483          1.0000000000
      1450       484  TIP3  OH2           6.7812889120       -3.0521521697        3.0797657989  CLST         484          1.0000000000
      1451       484  TIP3  H1            5.7958041549       -3.1263363437        2.9402386026  CLST         484          1.0000000000
      1452       484  TIP3  H2            6.7719399162       -2.2654421994        3.6661160908  CLST         484          1.0000000000
      1453       485  TIP3  OH2         -11.6261487773        4.6914254394        9.9411868689  CLST         485          1.0000000000
      1454       485  TIP3  H1          -11.2956148620        3.7672577966        9.9979516082  CLST         485          1.0000000000
      1455       485  TIP3  H2          -12.4106141751        4.4834494456        9.3076367924  CLST         485          1.0000000000
      1456       486  TIP3  OH2           8.4322736914       -7.1293885641       13.6622957306  CLST         486          1.0000000000
      1457       486  TIP3  H1            8.5916904327       -7.0403059728       14.4776729745  CLST         486          1.0000000000
      1458       486  TIP3  H2            7.6665698418       -6.5846693355       13.3580171889  CLST         486          1.0000000000
      1459       487  TIP3  OH2          12.1199995589       -8.5435445119        5.9956000404  CLST         487          1.0000000000
      1460       487  TIP3  H1           11.1328881361       -8.4558296511        6.0792552093  CLST         487          1.0000000000
      1461       487  TIP3  H2           12.2869830616       -8.4568136153        6.9364955818  CLST         487          1.0000000000
      1462       488  TIP3  OH2          15.1777250143        8.3722123545        7.6341563492  CLST         488          1.0000000000
      1463       488  TIP3  H1           15.8180403335        7.7174582285        7.9031408589  CLST         488          1.0000000000
      1464       488  TIP3  H2           14.3472456009        7.9103998569        7.9602940659  CLST         488          1.0000000000
      1465       489  TIP3  OH2          -6.1333732169      -10.9982797269       11.9242170148  CLST         489          1.0000000000
      1466       489  TIP3  H1           -6.3119917807      -10.1212997477       11.6232750709  CLST         489          1.0000000000
      1467       489  TIP3  H2           -6.9026554506      -11.4226693253       11.3004113034  CLST         489          1.0000000000
      1468       490  TIP3  OH2           6.8863278093      -13.0054445771        2.2734268294  CLST         490          1.0000000000
      1469       490  TIP3  H1            6.8425605195      -12.1577039018        2.7516227578  CLST         490          1.0000000000
      1470       490  TIP3  H2            6.8015792817      -13.6761540070        2.8816668804  CLST         490          1.0000000000
      1471       491  TIP3  OH2           3.1839686502       -9.4211815506        5.1188142846  CLST         491          1.0000000000
      1472       491  TIP3  H1            2.2519018191       -9.2835839875        5.3644420419  CLST         491          1.0000000000
      1473       491  TIP3  H2            3.1410035187       -9.8517811010        4.2515061691  CLST         491          1.0000000000
      1474       492  TIP3  OH2          -0.5950872600       -6.5904522298       12.2817482296  CLST         492          1.0000000000
      1475       492  TIP3  H1           -0.4850536287       -7.5888029133       12.1525484720  CLST         492          1.0000000000
      1476       492  TIP3  H2           -1.4901847991       -6.4694002473       12.0317394721  CLST         492          1.0000000000
      1477       493  TIP3  OH2           3.3325085324       10.8056873764        7.1449020393  CLST         493          1.0000000000
      1478       493  TIP3  H1            4.1259588737       10.8332863325        7.7905454665  CLST         493          1.0000000000
      1479       493  TIP3  H2            2.6836557013       10.3350261993        7.6772468790  CLST         493          1.0000000000
      1480       494  TIP3  OH2          -9.1998630776        5.4913441903       -0.7728641575  CLST         494          1.0000000000
      1481       494  TIP3  H1           -9.6831886999        5.8799066931       -1.5218943931  CLST         494          1.0000000000
      1482       494  TIP3  H2           -9.7339787262        5.8070109047        0.0119240949  CLST         494          1.0000000000
      1483       495  TIP3  OH2           4.9336266530       -6.8150095795       -2.1942422353  CLST         495          1.0000000000
      1484       495  TIP3  H1            5.4312423716       -6.3049497895       -2.8742691924  CLST         495          1.0000000000
      1485       495  TIP3  H2            5.7489565037       -7.3377615797       -1.8758730523  CLST         495          1.0000000000
      1486       496  TIP3  OH2         -12.6390902863      -10.8499912266        7.5274633444  CLST         496          1.0000000000
      1487       496  TIP3  H1          -13.4703205427      -10.7303784297        7.6938344723  CLST         496          1.0000000000
      1488       496  TIP3  H2          -12.5730437002      -11.5858999851        6.7288276430  CLST         496          1.0000000000
      1489       497  TIP3  OH2          -9.7963913453      -13.4130663941       -7.3454968009  CLST         497          1.0000000000
      1490       497  TIP3  H1          -10.5690843673      -13.9024721719       -7.3406560218  CLST         497          1.0000000000
      1491       497  TIP3  H2           -9.9842376415      -12.9684879321       -8.1835963723  CLST         497          1.0000000000
      1492       498  TIP3  OH2          -5.6247055118        0.5655732379      -11.0363468507  CLST         498          1.0000000000
      1493       498  TIP3  H1           -6.0501308354        0.4875520714      -11.9018108396  CLST         498          1.0000000000
      1494       498  TIP3  H2           -5.3959773931        1.5194169120      -10.9572146977  CLST         498          1.0000000000
      1495       499  TIP3  OH2          11.5829267565        6.6014088230        3.5086242589  CLST         499          1.0000000000
      1496       499  TIP3  H1           12.1647421742        6.9449144124        2.8289891822  CLST         499          1.0000000000
      1497       499  TIP3  H2           11.1992077055        7.4018111992        3.8888116979  CLST         499          1.0000000000
      1498       500  TIP3  OH2           2.4948315204       -8.6329286322      -13.2733873607  CLST         500          1.0000000000
      1499       500  TIP3  H1            2.1905559150       -8.9662145628      -14.0732131514  CLST         500          1.0000000000
      1500       500  TIP3  H2            2.6316339970       -9.4648636443      -12.7233850703  CLST         500          1.0000000000
      1501       501  TIP3  OH2           1.3570970561      -10.8389034536       13.7906483505  CLST         501          1.0000000000
      1502       501  TIP3  H1            1.5055157159      -11.7635534512       13.5506092926  CLST         501          1.0000000000
      1503       501  TIP3  H2            2.2857858517      -10.6214000312       13.7788468859  CLST         501          1.0000000000
      1504       502  TIP3  OH2           5.9947456861        3.6975881015        9.8043285390  CLST         502          1.0000000000
      1505       502  TIP3  H1            6.3749276089        4.1565031483       10.6112250046  CLST         502          1.0000000000
      1506       502  TIP3  H2            6.8240057859        3.5127475680        9.3296953537  CLST         502          1.0000000000
      1507       503  TIP3  OH2          10.4336593517       -0.9005744784        0.2204911868  CLST         503          1.0000000000
      1508       503  TIP3  H1           11.3660655206       -0.6340064067        0.3827611782  CLST         503          1.0000000000
      1509       503  TIP3  H2           10.1833127181       -0.1633550672       -0.3830170725  CLST         503          1.0000000000
      1510       504  TIP3  OH2           8.2705563028      -13.6335753625       10.8144504140  CLST         504          1.0000000000
      1511       504  TIP3  H1            8.2319906295      -13.5507160323        9.8187049604  CLST         504          1.0000000000
      1512       504  TIP3  H2            8.6218212710      -14.5171448651       10.9088119044  CLST         504          1.0000000000
      1513       505  TIP3  OH2           3.5817774194      -10.9751721800       -5.7034124989  CLST         505          1.0000000000
      1514       505  TIP3  H1            3.3926438026      -10.3839705217       -6.4923579203  CLST         505          1.0000000000
      1515       505  TIP3  H2            3.1467559160      -10.5221453057       -4.9683863564  CLST         505          1.0000000000
      1516       506  TIP3  OH2          -9.2808819404       -3.3533697634       -8.0023158325  CLST         506          1.0000000000
      1517       506  TIP3  H1           -8.8740198935       -2.4264976380       -7.9873436087  CLST         506          1.0000000000
      1518       506  TIP3  H2           -9.9687227845       -3.2362944545       -8.6802563525  CLST         506          1.0000000000
      1519       507  TIP3  OH2          11.0715777289        9.8985123963      -12.8180172783  CLST         507          1.0000000000
      1520       507  TIP3  H1           11.0280563537        8.9485769352      -12.2500154370  CLST         507          1.0000000000
      1521       507  TIP3  H2           10.9413158424        7.3327153916      -12.6383256915  CLST         507          1.0000000000
      1522       508  TIP3  OH2           9.2835390813       12.3159651032        8.9026057126  CLST         508          1.0000000000
      1523       508  TIP3  H1            8.8180811441       12.0981441899        8.0850448061  CLST         508          1.0000000000
      1524       508  TIP3  H2           10.1460185673       12.5520736939        8.5058572658  CLST         508          1.0000000000
      1525       509  TIP3  OH2          -0.7364026893       -1.5565487479      -11.3753232270  CLST         509          1.0000000000
      1526       509  TIP3  H1           -1.6736371822       -1.7522941457      -11.4769536778  CLST         509          1.0000000000
      1527       509  TIP3  H2           -0.8362661803       -0.6132102493      -10.9476894198  CLST         509          1.0000000000
      1528       510  TIP3  OH2           8.1146605142        2.0990738925       11.5427547506  CLST         510          1.0000000000
      1529       510  TIP3  H1            8.1811803829        1.0684071314       11.4688288683  CLST         510          1.0000000000
      1530       510  TIP3  H2            8.9790477572        2.3034713478       11.2108982030  CLST         510          1.0000000000
      1531       511  TIP3  OH2          -8.8546965581       -6.0442195319       -0.7343826028  CLST         511          1.0000000000
      1532       511  TIP3  H1           -9.7943592533       -6.3005322387       -0.8766469360  CLST         511          1.0000000000
      1533       511  TIP3  H2           -8.8196736083       -5.4377130486       -1.4736585459  CLST         511          1.0000000000
      1534       512  TIP3  OH2           9.9705375493        7.1269381345        6.8058218376  CLST         512          1.0000000000
      1535       512  TIP3  H1           10.3406744710        7.7650890357        7.4779980934  CLST         512          1.0000000000
      1536       512  TIP3  H2           10.0227134586        7.7973457434        6.0577689025  CLST         512          1.0000000000
      1537       513  TIP3  OH2         -11.6876570094       10.5522959463        9.2161155101  CLST         513          1.0000000000
      1538       513  TIP3  H1          -11.3356523087       11.4156613207        9.5637450294  CLST         513          1.0000000000
      1539       513  TIP3  H2          -11.4825218847        9.9874903675        9.9848448268  CLST         513          1.0000000000
      1540       514  TIP3  OH2          -4.7482325543        5.0628636105        0.0714909076  CLST         514          1.0000000000
      1541       514  TIP3  H1           -3.9916234160        5.5605438987        0.4799709029  CLST         514          1.0000000000
      1542       514  TIP3  H2           -4.4343709153        5.0719551594       -0.9025447212  CLST         514          1.0000000000
      1543       515  TIP3  OH2          -0.9403697198        0.7335071068       -4.3707069264  CLST         515          1.0000000000
      1544       515  TIP3  H1           -1.7537293273        1.3077154707       -4.1695771833  CLST         515          1.0000000000
      1545       515  TIP3  H2           -0.3251104174        1.4767492791       -4.5255611615  CLST         515          1.0000000000
      1546       516  TIP3  OH2          -7.3281679242       -8.5053750720        6.4107181126  CLST         516          1.0000000000
      1547       516  TIP3  H1           -7.6326753289       -8.3254448727        5.4856330273  CLST         516          1.0000000000
      1548       516  TIP3  H2           -7.7696317193       -7.6980841081        6.8244163496  CLST         516          1.0000000000
      1549       517  TIP3  OH2           0.7129781248       11.0330210729       11.4772143210  CLST         517          1.0000000000
      1550       517  TIP3  H1            0.8098351296       10.8415970588       10.5455413445  CLST         517          1.0000000000
      1551       517  TIP3  H2           -0.2736019030       11.0418083174       11.5232184133  CLST         517          1.0000000000
      1552       518  TIP3  OH2         -11.8701900264       -3.4874550781      -11.4545417972  CLST         518          1.0000000000
      1553       518  TIP3  H1          -11.9314061715       -2.8386660704      -12.1762465776  CLST         518          1.0000000000
      1554       518  TIP3  H2          -11.1142061477       -3.9445901794      -11.8816202036  CLST         518          1.0000000000
      1555       519  TIP3  OH2           2.2683040068        3.3597476954        3.4017175833  CLST         519          1.0000000000
      1556       519  TIP3  H1            1.8112121154        4.0875125345        2.8646882856  CLST         519          1.0000000000
      1557       519  TIP3  H2            2.1703344786        2.6636234608        2.6854545703  CLST         519          1.0000000000
      1558       520  TIP3  OH2         -10.2468311837        6.3201797074        8.3109127842  CLST         520          1.0000000000
      1559       520  TIP3  H1          -10.5781862724        5.8082023190        7.5397155732  CLST         520          1.0000000000
      1560       520  TIP3  H2          -10.6419787562        5.6679078713        9.0043619206  CLST         520          1.0000000000
      1561       521  TIP3  OH2           8.3117716456       -8.7982059715       -9.5474807398  CLST         521          1.0000000000
      1562       521  TIP3  H1            8.5041587086       -9.4348424029      -10.2876800778  CLST         521          1.0000000000
      1563       521  TIP3  H2            8.0997235324       -7.9719542098      -10.0515788290  CLST         521          1.0000000000
      1564       522  TIP3  OH2          -5.4968639838       -7.0863775818        8.1974387041  CLST         522          1.0000000000
      1565       522  TIP3  H1           -5.8922285434       -7.8824680052        7.8290637206  CLST         522          1.0000000000
      1566       522  TIP3  H2           -4.5568184075       -7.3463872877        8.4191815223  CLST         522          1.0000000000
      1567       523  TIP3  OH2          -4.1636164212       12.0395816180      -13.4932557947  CLST         523          1.0000000000
      1568       523  TIP3  H1           -1.8679738769       11.9606365206      -13.5705126928  CLST         523          1.0000000000
      1569       523  TIP3  H2           -3.5612587640       12.5211018391      -14.1873062262  CLST         523          1.0000000000
      1570       524  TIP3  OH2           6.8262927886        3.7781911053       -1.7262696547  CLST         524          1.0000000000
      1571       524  TIP3  H1            6.9871888373        3.0066298412       -2.2812457482  CLST         524          1.0000000000
      1572       524  TIP3  H2            5.8800849686        3.9312919730       -1.9854716435  CLST         524          1.0000000000
      1573       525  TIP3  OH2           0.4570232332        6.7812757178       -2.5596890272  CLST         525          1.0000000000
      1574       525  TIP3  H1            0.6454144997        6.1436951224       -3.2747766543  CLST         525          1.0000000000
      1575       525  TIP3  H2            0.2549531130        6.0656436021       -1.8166457749  CLST         525          1.0000000000
      1576       526  TIP3  OH2           6.9224466051       -5.4575880695       -3.6300228174  CLST         526          1.0000000000
      1577       526  TIP3  H1            7.2129085368       -5.4825362795       -4.6045182601  CLST         526          1.0000000000
      1578       526  TIP3  H2            7.7563335850       -5.7887603965       -3.2387199994  CLST         526          1.0000000000
      1579       527  TIP3  OH2           0.4724774141        7.2096873532        3.9314833885  CLST         527          1.0000000000
      1580       527  TIP3  H1            1.1699848244        7.5147279599        4.6114047957  CLST         527          1.0000000000
      1581       527  TIP3  H2            0.0490316556        8.0236092523        3.6317209442  CLST         527          1.0000000000
      1582       528  TIP3  OH2          -2.7033738129        9.9009211511        8.7775916177  CLST         528          1.0000000000
      1583       528  TIP3  H1           -2.9030736812        9.8019015209        9.7270881113  CLST         528          1.0000000000
      1584       528  TIP3  H2           -3.6067809392       10.0001243671        8.3974535462  CLST         528          1.0000000000
      1585       529  TIP3  OH2          -6.1001692853       12.2754161584       -9.2723666857  CLST         529          1.0000000000
      1586       529  TIP3  H1           -5.1902706081       12.2120240253       -8.9031448980  CLST         529          1.0000000000
      1587       529  TIP3  H2           -5.9356969065       11.8059547667      -10.1118066694  CLST         529          1.0000000000
      1588       530  TIP3  OH2          -4.4058977424       -5.4645420996      -13.1657388717  CLST         530          1.0000000000
      1589       530  TIP3  H1           -4.3055292516       -6.4567330540      -13.1692167498  CLST         530          1.0000000000
      1590       530  TIP3  H2           -3.4811294426       -5.1846964344      -12.8854397606  CLST         530          1.0000000000
      1591       531  TIP3  OH2         -11.7602994109       -0.2479454763       10.3050361701  CLST         531          1.0000000000
      1592       531  TIP3  H1          -12.3684390504       -0.3709701025       10.9696677402  CLST         531          1.0000000000
      1593       531  TIP3  H2          -11.9100661685       -0.9112331018        9.5709550869  CLST         531          1.0000000000
      1594       532  TIP3  OH2         -12.1528805924       -3.0837260843       -8.8298098354  CLST         532          1.0000000000
      1595       532  TIP3  H1          -12.8792324263       -3.6767458995       -8.7085607977  CLST         532          1.0000000000
      1596       532  TIP3  H2          -12.0945031209       -3.2178891533       -9.8578463954  CLST         532          1.0000000000
      1597       533  TIP3  OH2          -2.8366708977       -7.3042950828        8.7222599233  CLST         533          1.0000000000
      1598       533  TIP3  H1           -2.0907181313       -7.9094963644        8.4618915764  CLST         533          1.0000000000
      1599       533  TIP3  H2           -2.4303699682       -6.5187838454        8.2968454298  CLST         533          1.0000000000
      1600       534  TIP3  OH2           0.4892905912      -13.2991041125       -7.6248805662  CLST         534          1.0000000000
      1601       534  TIP3  H1            0.7421830851      -12.9617327008       -8.5322650843  CLST         534          1.0000000000
      1602       534  TIP3  H2            1.4319566359      -13.3423782928       -7.2874006358  CLST         534          1.0000000000
      1603       535  TIP3  OH2           2.7558320622        3.0952971618       -7.5282988613  CLST         535          1.0000000000
      1604       535  TIP3  H1            3.3447016063        2.5016576188       -6.9851751450  CLST         535          1.0000000000
      1605       535  TIP3  H2            2.0484265983        3.1194558438       -6.8264000063  CLST         535          1.0000000000
      1606       536  TIP3  OH2           8.0318849033      -12.6570579423       -3.4983114020  CLST         536          1.0000000000
      1607       536  TIP3  H1            7.4929309753      -12.5792887585       -4.2625884350  CLST         536          1.0000000000
      1608       536  TIP3  H2            8.4824867648      -13.4367526221       -3.6454880207  CLST         536          1.0000000000
      1609       537  TIP3  OH2          11.9081702547       -2.7442740977       -7.5173098023  CLST         537          1.0000000000
      1610       537  TIP3  H1           12.0211995740       -0.8742014877       -6.4644381179  CLST         537          1.0000000000
      1611       537  TIP3  H2           12.7471059453       -2.3091375203       -6.7236908550  CLST         537          1.0000000000
      1612       538  TIP3  OH2          -5.0705041403      -10.7890869081        0.8288105368  CLST         538          1.0000000000
      1613       538  TIP3  H1           -4.2862972410      -11.1705188882        1.3465567265  CLST         538          1.0000000000
      1614       538  TIP3  H2           -4.7831926753       -9.8248802723        0.8732247888  CLST         538          1.0000000000
      1615       539  TIP3  OH2           2.4346623705       -5.1100342468        0.8319332832  CLST         539          1.0000000000
      1616       539  TIP3  H1            1.4497621185       -5.2449511603        1.1256907724  CLST         539          1.0000000000
      1617       539  TIP3  H2            2.3253013586       -5.4327053794       -0.0654391845  CLST         539          1.0000000000
      1618       540  TIP3  OH2           3.9005125767       -6.8762796508        4.7633450705  CLST         540          1.0000000000
      1619       540  TIP3  H1            3.7889646181       -7.8500351097        4.9536463223  CLST         540          1.0000000000
      1620       540  TIP3  H2            4.2009902310       -6.8917711812        3.8205164014  CLST         540          1.0000000000
      1621       541  TIP3  OH2          -5.5073085338       10.4300287552        2.2767393728  CLST         541          1.0000000000
      1622       541  TIP3  H1           -6.0587862451       10.4774906685        3.0976619438  CLST         541          1.0000000000
      1623       541  TIP3  H2           -4.9544248542       11.2221084938        2.3548110652  CLST         541          1.0000000000
      1624       542  TIP3  OH2         -10.9698946636       14.5119355692        5.5629479529  CLST         542          1.0000000000
      1625       542  TIP3  H1          -11.4421303073       15.1836663258        5.4194798087  CLST         542          1.0000000000
      1626       542  TIP3  H2          -10.6623828953       14.0516046150        4.2215887693  CLST         542          1.0000000000
      1627       543  TIP3  OH2         -10.7880843907       11.2281645963       -2.5543691846  CLST         543          1.0000000000
      1628       543  TIP3  H1          -11.5127630633       10.4916909705       -2.7101962909  CLST         543          1.0000000000
      1629       543  TIP3  H2          -10.7433804547       11.6672124013       -3.2756270136  CLST         543          1.0000000000
      1630       544  TIP3  OH2          -0.5168979902        5.7839810604       -5.7158074952  CLST         544          1.0000000000
      1631       544  TIP3  H1           -0.4334855608        5.2306873584       -6.5435913645  CLST         544          1.0000000000
      1632       544  TIP3  H2            0.1927059847        5.4235127635       -5.1529350465  CLST         544          1.0000000000
      1633       545  TIP3  OH2          -7.8166047653        2.5084909318      -12.5493978131  CLST         545          1.0000000000
      1634       545  TIP3  H1           -7.9689165425        2.1495573373      -13.4845498849  CLST         545          1.0000000000
      1635       545  TIP3  H2           -8.4872406559        3.2582978289      -12.5170166960  CLST         545          1.0000000000
      1636       546  TIP3  OH2           3.7916668102       11.0245980532       -2.1166173181  CLST         546          1.0000000000
      1637       546  TIP3  H1            3.4658841055       10.0383039254       -2.0534682920  CLST         546          1.0000000000
      1638       546  TIP3  H2            4.4948291617       10.9164452527       -1.3485337506  CLST         546          1.0000000000
      1639       547  TIP3  OH2          -3.5911451301       -2.1164297150      -11.1885382453  CLST         547          1.0000000000
      1640       547  TIP3  H1           -3.5430453665       -2.0814422359      -10.2028311467  CLST         547          1.0000000000
      1641       547  TIP3  H2           -3.9945583399       -1.2359086305      -11.3571540502  CLST         547          1.0000000000
      1642       548  TIP3  OH2          10.6705655366        2.4560246551        1.3614442242  CLST         548          1.0000000000
      1643       548  TIP3  H1            9.7135618963        2.1575485564        1.4205299398  CLST         548          1.0000000000
      1644       548  TIP3  H2           10.5976055580        3.2258016101        1.9992878468  CLST         548          1.0000000000
