* Geometry rescue: heat segment 4/8 at step 1000
*
        1644  EXT
         1         1  TIP3  OH2           4.5346375397       -1.4641106257       -2.1876861199  CLST           1          1.0000000000
         2         1  TIP3  H1            4.7335889510       -1.6071365658       -1.2466056120  CLST           1          1.0000000000
         3         1  TIP3  H2            5.3273312797       -1.9229598584       -2.5714878518  CLST           1          1.0000000000
         4         2  TIP3  OH2          10.6479499917        7.3487591476      -11.7196966968  CLST           2          1.0000000000
         5         2  TIP3  H1           10.9726529679        7.1732340956      -10.8028006168  CLST           2          1.0000000000
         6         2  TIP3  H2            9.6898282864        7.3704549678      -11.4852736038  CLST           2          1.0000000000
         7         3  TIP3  OH2           8.8618195488        5.2469133610       -4.2306517319  CLST           3          1.0000000000
         8         3  TIP3  H1            9.0855676299        5.4933682346       -3.2728471355  CLST           3          1.0000000000
         9         3  TIP3  H2            9.0036414940        6.1681262493       -4.5894627785  CLST           3          1.0000000000
        10         4  TIP3  OH2          -2.8380324281        6.7939930924       10.2499360214  CLST           4          1.0000000000
        11         4  TIP3  H1           -3.6090591973        7.0626600252        9.6450889531  CLST           4          1.0000000000
        12         4  TIP3  H2           -3.0050607078        7.4806870616       10.9223858682  CLST           4          1.0000000000
        13         5  TIP3  OH2           9.2093707325        6.2270712379       10.5794291713  CLST           5          1.0000000000
        14         5  TIP3  H1            8.7645336750        5.5036797712       11.1226138438  CLST           5          1.0000000000
        15         5  TIP3  H2            8.8175471004        5.9906262616        9.6913975383  CLST           5          1.0000000000
        16         6  TIP3  OH2          10.5656100399       -5.9578758653      -11.5750855430  CLST           6          1.0000000000
        17         6  TIP3  H1           11.0813789756       -5.4998419589      -10.8393357867  CLST           6          1.0000000000
        18         6  TIP3  H2           10.5645813652       -5.1219503483      -12.1660522262  CLST           6          1.0000000000
        19         7  TIP3  OH2         -12.4070926513        8.2970377510        5.7675636195  CLST           7          1.0000000000
        20         7  TIP3  H1          -12.7517313394        9.1670595494        6.0967683950  CLST           7          1.0000000000
        21         7  TIP3  H2          -11.6181719770        8.3201776753        6.3603610709  CLST           7          1.0000000000
        22         8  TIP3  OH2          -4.4651477695       -8.3238514306        0.6458478800  CLST           8          1.0000000000
        23         8  TIP3  H1           -5.0821604105       -7.6629498982        0.9671515340  CLST           8          1.0000000000
        24         8  TIP3  H2           -3.7364685195       -7.8578946555        0.1620647922  CLST           8          1.0000000000
        25         9  TIP3  OH2           2.6092054087      -14.2562447694       -4.1393374651  CLST           9          1.0000000000
        26         9  TIP3  H1            1.7396755598      -14.3906883148       -3.7872348989  CLST           9          1.0000000000
        27         9  TIP3  H2            3.1861922474      -14.1690324826       -3.3745620272  CLST           9          1.0000000000
        28        10  TIP3  OH2         -14.2164207225       -1.1918410060       -0.3994731004  CLST          10          1.0000000000
        29        10  TIP3  H1          -13.8710826275       -1.4734962870       -1.2826356820  CLST          10          1.0000000000
        30        10  TIP3  H2          -14.0707085457       -1.9900102458        0.0877517084  CLST          10          1.0000000000
        31        11  TIP3  OH2           7.0095363785        6.7226291058       -1.7804025587  CLST          11          1.0000000000
        32        11  TIP3  H1            7.0288331842        5.7571696297       -2.0172755865  CLST          11          1.0000000000
        33        11  TIP3  H2            6.8934685050        7.0774469522       -2.7053529508  CLST          11          1.0000000000
        34        12  TIP3  OH2          -8.2798800019        2.6758241981        1.9146450565  CLST          12          1.0000000000
        35        12  TIP3  H1           -7.7242006945        2.9468302822        1.1098331852  CLST          12          1.0000000000
        36        12  TIP3  H2           -9.1253632133        2.6192344108        1.3772239938  CLST          12          1.0000000000
        37        13  TIP3  OH2           7.8933243530        2.4698145903        2.1364235605  CLST          13          1.0000000000
        38        13  TIP3  H1            7.4234560961        3.1556316709        1.6174887985  CLST          13          1.0000000000
        39        13  TIP3  H2            7.7949718732        2.8158165596        3.0626519769  CLST          13          1.0000000000
        40        14  TIP3  OH2          -0.4290803328        2.1602354782        7.9197274183  CLST          14          1.0000000000
        41        14  TIP3  H1           -0.0735060632        2.9747814077        7.5091167214  CLST          14          1.0000000000
        42        14  TIP3  H2            0.2936090734        1.4932196935        7.5886276892  CLST          14          1.0000000000
        43        15  TIP3  OH2          -8.9369097827       -3.9101843486      -12.7512172899  CLST          15          1.0000000000
        44        15  TIP3  H1           -8.3425807236       -3.9433008007      -13.5199164378  CLST          15          1.0000000000
        45        15  TIP3  H2           -8.3621409051       -4.5955443995      -12.2288282774  CLST          15          1.0000000000
        46        16  TIP3  OH2          -3.8519014547      -12.7561321808       -6.2045999353  CLST          16          1.0000000000
        47        16  TIP3  H1           -4.3183614800      -12.7665921917       -5.2895319792  CLST          16          1.0000000000
        48        16  TIP3  H2           -2.8989690457      -12.8792427656       -5.8406806200  CLST          16          1.0000000000
        49        17  TIP3  OH2           4.8790225201      -13.3466366249       -8.5090342258  CLST          17          1.0000000000
        50        17  TIP3  H1            5.4336793167      -13.4390943085       -7.6734477206  CLST          17          1.0000000000
        51        17  TIP3  H2            4.0183532702      -13.4723264766       -8.0840814883  CLST          17          1.0000000000
        52        18  TIP3  OH2         -11.7297538284       -6.7462168740       -1.5410226485  CLST          18          1.0000000000
        53        18  TIP3  H1          -12.0077838938       -5.8716484094       -1.9648394945  CLST          18          1.0000000000
        54        18  TIP3  H2          -11.7837141383       -7.2348824326       -2.4000254603  CLST          18          1.0000000000
        55        19  TIP3  OH2          10.9783167440       -0.1233251710        9.5160702306  CLST          19          1.0000000000
        56        19  TIP3  H1           10.3853366706       -0.8693634998        9.7481692954  CLST          19          1.0000000000
        57        19  TIP3  H2           10.9796283590       -0.2500936078        8.5388223629  CLST          19          1.0000000000
        58        20  TIP3  OH2         -13.2361209157        1.4988156884        2.7815535691  CLST          20          1.0000000000
        59        20  TIP3  H1          -12.8756141866        1.2735797451        1.8799758297  CLST          20          1.0000000000
        60        20  TIP3  H2          -14.1602547490        1.5951942753        2.5026639254  CLST          20          1.0000000000
        61        21  TIP3  OH2         -10.1460298718       12.5676538552       -5.3586523890  CLST          21          1.0000000000
        62        21  TIP3  H1          -10.2356412705       13.4301349974       -5.7165021443  CLST          21          1.0000000000
        63        21  TIP3  H2           -9.3870373011       12.3356450950       -5.8377967250  CLST          21          1.0000000000
        64        22  TIP3  OH2           2.9478687954       12.1191660814       -6.5291137101  CLST          22          1.0000000000
        65        22  TIP3  H1            3.3390231296       11.4211061191       -5.9559270595  CLST          22          1.0000000000
        66        22  TIP3  H2            3.2706517632       12.8583154260       -5.8577611297  CLST          22          1.0000000000
        67        23  TIP3  OH2           5.5500699173       -1.7866150104       11.5624966274  CLST          23          1.0000000000
        68        23  TIP3  H1            5.2001120530       -2.3539611390       10.8647289978  CLST          23          1.0000000000
        69        23  TIP3  H2            5.1016621070       -0.9673604362       11.3169290725  CLST          23          1.0000000000
        70        24  TIP3  OH2          -0.1160347238        1.2165380134        4.4873166204  CLST          24          1.0000000000
        71        24  TIP3  H1            0.5061251952        1.0507963261        5.2303551735  CLST          24          1.0000000000
        72        24  TIP3  H2           -0.8742318026        0.6668893038        4.8532426342  CLST          24          1.0000000000
        73        25  TIP3  OH2           3.2319548602        1.9754415807       -2.6024683853  CLST          25          1.0000000000
        74        25  TIP3  H1            3.6788408650        1.5425749694       -1.8315425674  CLST          25          1.0000000000
        75        25  TIP3  H2            3.5325805217        2.8955143450       -2.5493164643  CLST          25          1.0000000000
        76        26  TIP3  OH2          11.4308817767        5.5286155921       -6.5226846157  CLST          26          1.0000000000
        77        26  TIP3  H1           10.5778862372        5.2061703098       -6.9026021763  CLST          26          1.0000000000
        78        26  TIP3  H2           11.1429862979        6.3534047002       -6.0346760767  CLST          26          1.0000000000
        79        27  TIP3  OH2         -10.4126352681        7.4207600371       -5.5435572143  CLST          27          1.0000000000
        80        27  TIP3  H1          -10.4630946284        7.8136152816       -4.6332859105  CLST          27          1.0000000000
        81        27  TIP3  H2          -11.0156562918        8.0560283064       -5.9364780415  CLST          27          1.0000000000
        82        28  TIP3  OH2          -4.3008535186      -10.2834693633       -6.8670935260  CLST          28          1.0000000000
        83        28  TIP3  H1           -4.3223550738      -11.2351816296       -6.5751653091  CLST          28          1.0000000000
        84        28  TIP3  H2           -5.1791949761      -10.0587504809       -6.5737996376  CLST          28          1.0000000000
        85        29  TIP3  OH2         -10.8197028430        7.6214646302       -2.6187147740  CLST          29          1.0000000000
        86        29  TIP3  H1          -10.1573278862        8.2228259747       -2.0854915357  CLST          29          1.0000000000
        87        29  TIP3  H2          -11.5860701912        8.1950941241       -2.3403777967  CLST          29          1.0000000000
        88        30  TIP3  OH2           8.8600850596      -10.4708777547       -2.1599372021  CLST          30          1.0000000000
        89        30  TIP3  H1            9.5265433685      -11.1092778260       -1.8149126388  CLST          30          1.0000000000
        90        30  TIP3  H2            8.3916162304      -11.1727456809       -2.7328991391  CLST          30          1.0000000000
        91        31  TIP3  OH2          -9.6880274750       -1.2760226447      -13.1576687278  CLST          31          1.0000000000
        92        31  TIP3  H1           -9.5963672622       -2.2264494765      -12.8849564825  CLST          31          1.0000000000
        93        31  TIP3  H2           -9.5208673906       -0.8630230189      -12.2806801611  CLST          31          1.0000000000
        94        32  TIP3  OH2          -8.6853926465       -6.4962989868        6.9538007036  CLST          32          1.0000000000
        95        32  TIP3  H1           -9.6404969595       -6.3713216189        7.0855596256  CLST          32          1.0000000000
        96        32  TIP3  H2           -8.6186747190       -5.8854223023        6.1536664965  CLST          32          1.0000000000
        97        33  TIP3  OH2          11.8519672433       -8.9156927554        8.8674055583  CLST          33          1.0000000000
        98        33  TIP3  H1           11.9365989180       -9.8087289997        9.2556640772  CLST          33          1.0000000000
        99        33  TIP3  H2           11.3771042386       -8.4747320052        9.6029672924  CLST          33          1.0000000000
       100        34  TIP3  OH2           4.2163167689       -4.0853241556        2.9305245557  CLST          34          1.0000000000
       101        34  TIP3  H1            3.6162042324       -4.1557339095        2.1611068768  CLST          34          1.0000000000
       102        34  TIP3  H2            4.1690187728       -4.9577056531        3.3325372078  CLST          34          1.0000000000
       103        35  TIP3  OH2           6.1492281985       -0.8011325136        4.3825654371  CLST          35          1.0000000000
       104        35  TIP3  H1            5.3138656625       -1.0341810970        4.8591359876  CLST          35          1.0000000000
       105        35  TIP3  H2            6.7460647629       -0.3634463478        5.0119185055  CLST          35          1.0000000000
       106        36  TIP3  OH2          -1.5342012883        1.3168783930        2.1547201781  CLST          36          1.0000000000
       107        36  TIP3  H1           -2.1011753241        0.6427577992        2.5462171857  CLST          36          1.0000000000
       108        36  TIP3  H2           -1.0177733241        1.4571746091        2.9962248932  CLST          36          1.0000000000
       109        37  TIP3  OH2          -4.4804034867       -8.2825302702      -13.0188309998  CLST          37          1.0000000000
       110        37  TIP3  H1           -5.1313035467       -8.4516726273      -12.3228164666  CLST          37          1.0000000000
       111        37  TIP3  H2           -4.1445395866       -9.1273817019      -13.3633921814  CLST          37          1.0000000000
       112        38  TIP3  OH2          -3.2286837088        2.2087196057       -4.4901531360  CLST          38          1.0000000000
       113        38  TIP3  H1           -3.0416926537        3.0743188000       -4.9557508718  CLST          38          1.0000000000
       114        38  TIP3  H2           -3.4764454300        1.6880337156       -5.2813644862  CLST          38          1.0000000000
       115        39  TIP3  OH2           1.7531053254      -10.9034416488        2.0668103905  CLST          39          1.0000000000
       116        39  TIP3  H1            1.6097068421      -11.4026640189        2.8671260093  CLST          39          1.0000000000
       117        39  TIP3  H2            0.8431652518      -10.5798051177        1.8935973275  CLST          39          1.0000000000
       118        40  TIP3  OH2          -6.9725736037       12.4891536547        8.1408355601  CLST          40          1.0000000000
       119        40  TIP3  H1           -7.8670680381       12.8732978217        7.8397797263  CLST          40          1.0000000000
       120        40  TIP3  H2           -6.4181203994       12.6737740083        7.4302868394  CLST          40          1.0000000000
       121        41  TIP3  OH2           9.6907118155       -2.2500929459      -11.0773882609  CLST          41          1.0000000000
       122        41  TIP3  H1            8.9428719856       -2.8803133081      -10.8595695219  CLST          41          1.0000000000
       123        41  TIP3  H2            9.3213385843       -1.4925443946      -10.6013258602  CLST          41          1.0000000000
       124        42  TIP3  OH2           9.6386701834       10.2706972513      -10.7222805938  CLST          42          1.0000000000
       125        42  TIP3  H1           10.4103092317       10.0770087555      -10.1747525481  CLST          42          1.0000000000
       126        42  TIP3  H2           10.0421327427       10.3328522045      -11.6241247186  CLST          42          1.0000000000
       127        43  TIP3  OH2          11.9350194278       12.6463560962        7.7335965725  CLST          43          1.0000000000
       128        43  TIP3  H1           12.5284285780       13.3076987221        7.6470710725  CLST          43          1.0000000000
       129        43  TIP3  H2           12.5217061228       11.9676095520        8.1084282924  CLST          43          1.0000000000
       130        44  TIP3  OH2           7.6481331640        0.8706635028        6.0244565156  CLST          44          1.0000000000
       131        44  TIP3  H1            7.9250764039        1.4055395665        6.8561463862  CLST          44          1.0000000000
       132        44  TIP3  H2            7.4549137287        1.7332718820        5.5509592546  CLST          44          1.0000000000
       133        45  TIP3  OH2           7.7763672057        9.3262551728        7.4420232288  CLST          45          1.0000000000
       134        45  TIP3  H1            7.3530622197        8.4506729455        7.6101266511  CLST          45          1.0000000000
       135        45  TIP3  H2            8.6529863758        9.2396207637        7.8819237376  CLST          45          1.0000000000
       136        46  TIP3  OH2          -5.6597161787       -3.1616117411      -12.9556882590  CLST          46          1.0000000000
       137        46  TIP3  H1           -5.4235173528       -4.1324735924      -13.1116566057  CLST          46          1.0000000000
       138        46  TIP3  H2           -4.8351051868       -3.0005710032      -12.4395055583  CLST          46          1.0000000000
       139        47  TIP3  OH2           1.3552052034       -6.6266884540      -10.9936502582  CLST          47          1.0000000000
       140        47  TIP3  H1            1.7122881659       -5.7092651444      -10.8562449183  CLST          47          1.0000000000
       141        47  TIP3  H2            1.0726437951       -6.4895994232      -11.9065711163  CLST          47          1.0000000000
       142        48  TIP3  OH2           5.0539733015        5.6280801228        1.0725329564  CLST          48          1.0000000000
       143        48  TIP3  H1            5.9253613411        5.2469456369        0.7845471461  CLST          48          1.0000000000
       144        48  TIP3  H2            5.3549446390        6.5772619312        1.1354007153  CLST          48          1.0000000000
       145        49  TIP3  OH2          -3.3264872460      -10.6184335464      -13.7453019210  CLST          49          1.0000000000
       146        49  TIP3  H1           -2.3945644595      -10.7410830941      -13.6307283146  CLST          49          1.0000000000
       147        49  TIP3  H2           -3.7634607667      -11.1060077382      -13.0283033620  CLST          49          1.0000000000
       148        50  TIP3  OH2           2.7572599184        3.8528071061        6.0028367266  CLST          50          1.0000000000
       149        50  TIP3  H1            1.9236796219        4.2498405648        6.4138290669  CLST          50          1.0000000000
       150        50  TIP3  H2            2.4490954128        3.8304997397        5.0672860807  CLST          50          1.0000000000
       151        51  TIP3  OH2          -6.4786492932      -10.0907687861       -4.7978956084  CLST          51          1.0000000000
       152        51  TIP3  H1           -6.4137761346       -9.9382453124       -3.8454561080  CLST          51          1.0000000000
       153        51  TIP3  H2           -6.6388142792      -11.0179165235       -4.9093981773  CLST          51          1.0000000000
       154        52  TIP3  OH2           9.1570913913       -5.7144046613       -0.1173505603  CLST          52          1.0000000000
       155        52  TIP3  H1            9.3972930554       -5.3820541803       -1.0092500410  CLST          52          1.0000000000
       156        52  TIP3  H2            8.9660507630       -4.8115902226        0.2374093469  CLST          52          1.0000000000
       157        53  TIP3  OH2          -9.6638344830        9.9959373373      -12.4562655745  CLST          53          1.0000000000
       158        53  TIP3  H1          -10.0527715945       10.1166260643      -13.2316951821  CLST          53          1.0000000000
       159        53  TIP3  H2           -8.7917864628        9.5380078399      -12.5993063991  CLST          53          1.0000000000
       160        54  TIP3  OH2           0.4628011390       -2.9292329646       -9.4505768313  CLST          54          1.0000000000
       161        54  TIP3  H1            1.3221973297       -3.2718324014       -9.7281119843  CLST          54          1.0000000000
       162        54  TIP3  H2            0.2172633909       -2.3565727099      -10.2722702670  CLST          54          1.0000000000
       163        55  TIP3  OH2           2.8459803165       -4.1332573667      -14.6915875221  CLST          55          1.0000000000
       164        55  TIP3  H1            3.1430408528       -5.0246663329      -14.3452996988  CLST          55          1.0000000000
       165        55  TIP3  H2            2.9427138177       -4.0526982227      -15.5985858661  CLST          55          1.0000000000
       166        56  TIP3  OH2         -10.1271851116       11.0691154586        5.5618554175  CLST          56          1.0000000000
       167        56  TIP3  H1          -10.1529786845       10.2843408405        6.1633655487  CLST          56          1.0000000000
       168        56  TIP3  H2          -10.3223231218       10.6396406205        4.7034690382  CLST          56          1.0000000000
       169        57  TIP3  OH2           1.6665693574      -13.4062850855        0.3904132137  CLST          57          1.0000000000
       170        57  TIP3  H1            1.9698129378      -12.5016340762        0.6124875858  CLST          57          1.0000000000
       171        57  TIP3  H2            2.4653391548      -13.5780449440       -0.1361357559  CLST          57          1.0000000000
       172        58  TIP3  OH2         -13.1617210595       10.6427052141        7.0868021796  CLST          58          1.0000000000
       173        58  TIP3  H1          -12.4984727247       11.2441695352        6.6709606229  CLST          58          1.0000000000
       174        58  TIP3  H2          -12.8071406677       10.6122862071        7.9773566313  CLST          58          1.0000000000
       175        59  TIP3  OH2         -11.5928517222       -2.7064549573        5.4609735281  CLST          59          1.0000000000
       176        59  TIP3  H1          -11.8979678792       -2.5338836526        6.4033064271  CLST          59          1.0000000000
       177        59  TIP3  H2          -11.6166312390       -1.7163826156        5.2243748215  CLST          59          1.0000000000
       178        60  TIP3  OH2           1.4197596013        9.5638909461        8.5939688271  CLST          60          1.0000000000
       179        60  TIP3  H1            0.5430290018        9.1036768948        8.3180788995  CLST          60          1.0000000000
       180        60  TIP3  H2            1.8291467765        8.7064657764        8.8927678091  CLST          60          1.0000000000
       181        61  TIP3  OH2           2.7748716709       -0.6392969392       -5.4498836574  CLST          61          1.0000000000
       182        61  TIP3  H1            3.1684789869       -1.5872782678       -5.4283836619  CLST          61          1.0000000000
       183        61  TIP3  H2            2.1007858169       -0.8435604666       -6.1793880977  CLST          61          1.0000000000
       184        62  TIP3  OH2           7.9774873546        8.5159401232       12.4643721311  CLST          62          1.0000000000
       185        62  TIP3  H1            8.0367708522        7.6658630987       12.0071550028  CLST          62          1.0000000000
       186        62  TIP3  H2            8.0279166738        9.1833579254       11.7823990364  CLST          62          1.0000000000
       187        63  TIP3  OH2           4.6260797189       -7.0121030980      -10.2615198647  CLST          63          1.0000000000
       188        63  TIP3  H1            3.7480992528       -7.0141859807      -10.7065410353  CLST          63          1.0000000000
       189        63  TIP3  H2            5.0622230830       -7.5616974216      -11.0146588447  CLST          63          1.0000000000
       190        64  TIP3  OH2          -2.3769237335       11.8508705706        5.3798326035  CLST          64          1.0000000000
       191        64  TIP3  H1           -2.5856432884       10.8906320699        5.5088320503  CLST          64          1.0000000000
       192        64  TIP3  H2           -1.7048194161       11.8837094932        6.1392283197  CLST          64          1.0000000000
       193        65  TIP3  OH2          11.0542592587       -4.3747460135       -5.3836387428  CLST          65          1.0000000000
       194        65  TIP3  H1           11.2923248070       -4.1143648761       -6.3139677983  CLST          65          1.0000000000
       195        65  TIP3  H2           10.7794201195       -3.4645015444       -5.1052235339  CLST          65          1.0000000000
       196        66  TIP3  OH2           6.4048902996       -9.8145665931        9.3277821580  CLST          66          1.0000000000
       197        66  TIP3  H1            5.6642849575       -9.5295384732        8.7296045562  CLST          66          1.0000000000
       198        66  TIP3  H2            7.0992100883       -9.1737022684        9.0873599513  CLST          66          1.0000000000
       199        67  TIP3  OH2         -11.6203108103       -7.6481436591       -3.8937537092  CLST          67          1.0000000000
       200        67  TIP3  H1          -10.9239235336       -7.0250378056       -4.2120308806  CLST          67          1.0000000000
       201        67  TIP3  H2          -11.7896479080       -8.2381313730       -4.6342526429  CLST          67          1.0000000000
       202        68  TIP3  OH2          -0.7253359456       -5.3881442566        5.4832375603  CLST          68          1.0000000000
       203        68  TIP3  H1            0.3166687263       -5.3821670926        5.6097847501  CLST          68          1.0000000000
       204        68  TIP3  H2           -0.8923103105       -5.2731507638        6.4500236467  CLST          68          1.0000000000
       205        69  TIP3  OH2           7.9851808100       11.6290789302       -8.7143727239  CLST          69          1.0000000000
       206        69  TIP3  H1            8.5193029356       11.3046349708       -9.4941439925  CLST          69          1.0000000000
       207        69  TIP3  H2            8.8105292656       11.8421273093       -8.1619426508  CLST          69          1.0000000000
       208        70  TIP3  OH2          -1.0631757203      -12.3832121116       -0.5735535938  CLST          70          1.0000000000
       209        70  TIP3  H1           -0.0859815708      -12.5137077385       -0.5157288786  CLST          70          1.0000000000
       210        70  TIP3  H2           -1.2082007991      -12.6642180548        0.3745324248  CLST          70          1.0000000000
       211        71  TIP3  OH2         -10.2184410782       -7.5092470969        2.0173811235  CLST          71          1.0000000000
       212        71  TIP3  H1          -10.6791012316       -6.7457822656        2.3393607974  CLST          71          1.0000000000
       213        71  TIP3  H2          -10.7616761977       -7.9199953965        1.2923226566  CLST          71          1.0000000000
       214        72  TIP3  OH2           0.2313660849        1.9889560130       -1.4806518738  CLST          72          1.0000000000
       215        72  TIP3  H1           -0.2402060652        1.0762984243       -1.5059647678  CLST          72          1.0000000000
       216        72  TIP3  H2            1.1559245480        1.7360012639       -1.7277938951  CLST          72          1.0000000000
       217        73  TIP3  OH2          -9.5766252828       13.0527722059        7.4496179606  CLST          73          1.0000000000
       218        73  TIP3  H1           -9.7909845558       12.3316124846        6.7934168953  CLST          73          1.0000000000
       219        73  TIP3  H2          -10.0711012675       13.7407831998        6.8615098976  CLST          73          1.0000000000
       220        74  TIP3  OH2           6.5730768730       -2.7822194845       -3.6634599872  CLST          74          1.0000000000
       221        74  TIP3  H1            6.5517451480       -3.6630019862       -3.2146568481  CLST          74          1.0000000000
       222        74  TIP3  H2            7.4958925259       -2.5151374254       -3.4315461937  CLST          74          1.0000000000
       223        75  TIP3  OH2           2.9251915411      -13.3319187296       -6.6657178613  CLST          75          1.0000000000
       224        75  TIP3  H1            3.0252747405      -12.4797557963       -6.1093418573  CLST          75          1.0000000000
       225        75  TIP3  H2            2.7809275470      -13.9100397772       -5.8796993142  CLST          75          1.0000000000
       226        76  TIP3  OH2           3.9280775420       -9.7870164529        1.2634547423  CLST          76          1.0000000000
       227        76  TIP3  H1            4.0993357419       -8.8736734325        1.5300758180  CLST          76          1.0000000000
       228        76  TIP3  H2            3.0216648733      -10.0585940789        1.5654468536  CLST          76          1.0000000000
       229        77  TIP3  OH2          10.3640086776       -8.3327044265       -2.6174366823  CLST          77          1.0000000000
       230        77  TIP3  H1            9.7409023881       -9.0872279121       -2.4885778684  CLST          77          1.0000000000
       231        77  TIP3  H2           10.3375337074       -8.2830606097       -3.5790981271  CLST          77          1.0000000000
       232        78  TIP3  OH2          10.6812361464       11.6979558808       -7.8222693329  CLST          78          1.0000000000
       233        78  TIP3  H1           11.3202021725       11.0149208530       -8.1073443272  CLST          78          1.0000000000
       234        78  TIP3  H2           11.2295980789       12.3211734417       -7.4523948402  CLST          78          1.0000000000
       235        79  TIP3  OH2          12.7970294247        0.6918793900        1.1573106814  CLST          79          1.0000000000
       236        79  TIP3  H1           13.5244054826        0.5956243556        1.6680769950  CLST          79          1.0000000000
       237        79  TIP3  H2           12.2722779018        1.4497922671        1.4088732178  CLST          79          1.0000000000
       238        80  TIP3  OH2          -7.6069076348        0.0314799381        6.6744208611  CLST          80          1.0000000000
       239        80  TIP3  H1           -7.6295659995        0.5858928612        5.8551521769  CLST          80          1.0000000000
       240        80  TIP3  H2           -6.7046293706       -0.3181780757        6.7036985780  CLST          80          1.0000000000
       241        81  TIP3  OH2          -7.6527148110      -10.9285495104        2.2697318302  CLST          81          1.0000000000
       242        81  TIP3  H1           -6.8783623013      -11.0434549064        1.6647026957  CLST          81          1.0000000000
       243        81  TIP3  H2           -7.2091499738      -11.1907400114        3.1115672311  CLST          81          1.0000000000
       244        82  TIP3  OH2          -1.6793572655       -9.9378580635       -6.5125353162  CLST          82          1.0000000000
       245        82  TIP3  H1           -2.6570615183       -9.8274655977       -6.4632248887  CLST          82          1.0000000000
       246        82  TIP3  H2           -1.6255297591      -10.8757631947       -6.2324791685  CLST          82          1.0000000000
       247        83  TIP3  OH2          12.2716551976       -8.6225498798        1.5070524947  CLST          83          1.0000000000
       248        83  TIP3  H1           12.6349422950       -8.2021467064        2.3028400268  CLST          83          1.0000000000
       249        83  TIP3  H2           11.3411134934       -8.3619861143        1.6010841958  CLST          83          1.0000000000
       250        84  TIP3  OH2          -3.6789329995       11.0995492992       -2.1406788037  CLST          84          1.0000000000
       251        84  TIP3  H1           -4.5768083056       10.9525010734       -2.6055946846  CLST          84          1.0000000000
       252        84  TIP3  H2           -3.5460463614       11.9337870313       -2.2092023767  CLST          84          1.0000000000
       253        85  TIP3  OH2           5.8074911644       -2.1495674389        0.1253914230  CLST          85          1.0000000000
       254        85  TIP3  H1            5.8543741470       -1.5154038036        0.8623335201  CLST          85          1.0000000000
       255        85  TIP3  H2            6.6002740564       -2.6993151415        0.3153292051  CLST          85          1.0000000000
       256        86  TIP3  OH2           6.6063032929       -8.3463147124        5.7231837206  CLST          86          1.0000000000
       257        86  TIP3  H1            6.0423242472       -8.7202789016        6.4424762730  CLST          86          1.0000000000
       258        86  TIP3  H2            6.2064326725       -7.4528829279        5.6587057239  CLST          86          1.0000000000
       259        87  TIP3  OH2          -1.3763555507       -3.6048934568       10.6519771018  CLST          87          1.0000000000
       260        87  TIP3  H1           -0.8907193959       -3.9385761844       11.4341597012  CLST          87          1.0000000000
       261        87  TIP3  H2           -2.2661553576       -4.0467521253       10.8193890499  CLST          87          1.0000000000
       262        88  TIP3  OH2          -0.7439934396        4.4486778049       -7.9991585925  CLST          88          1.0000000000
       263        88  TIP3  H1           -1.1270872163        3.5301690657       -7.8762133305  CLST          88          1.0000000000
       264        88  TIP3  H2           -1.6023780010        4.9186750637       -8.1656062239  CLST          88          1.0000000000
       265        89  TIP3  OH2           3.4924667679        0.8092757534      -11.7117535144  CLST          89          1.0000000000
       266        89  TIP3  H1            3.6290930403        1.5340684359      -12.2331099531  CLST          89          1.0000000000
       267        89  TIP3  H2            3.7297682032        0.0048398370      -12.1454310284  CLST          89          1.0000000000
       268        90  TIP3  OH2           5.5270445865       11.1856593558       -5.4373315064  CLST          90          1.0000000000
       269        90  TIP3  H1            5.0802273811       11.8697378229       -4.6860776102  CLST          90          1.0000000000
       270        90  TIP3  H2            5.5974728284       11.7782057614       -6.2230491974  CLST          90          1.0000000000
       271        91  TIP3  OH2           5.9664290238       -8.0121825700      -12.3800735958  CLST          91          1.0000000000
       272        91  TIP3  H1            6.2887280978       -8.9513871821      -12.3667660761  CLST          91          1.0000000000
       273        91  TIP3  H2            6.8048135705       -7.4915116673      -12.3040852229  CLST          91          1.0000000000
       274        92  TIP3  OH2           9.7227704946       11.5029766653        2.4214541207  CLST          92          1.0000000000
       275        92  TIP3  H1           10.0095011346       11.8186002276        3.2972156915  CLST          92          1.0000000000
       276        92  TIP3  H2            9.2650855926       12.3089371732        2.0912462104  CLST          92          1.0000000000
       277        93  TIP3  OH2          -8.8314008824        7.1944855493        2.7004034829  CLST          93          1.0000000000
       278        93  TIP3  H1           -8.5149115424        8.0906574887        2.4725537594  CLST          93          1.0000000000
       279        93  TIP3  H2           -8.0456197176        6.7426385876        3.0478567038  CLST          93          1.0000000000
       280        94  TIP3  OH2         -14.2737983873        6.5834555265        6.4595210512  CLST          94          1.0000000000
       281        94  TIP3  H1          -13.6451997004        7.3643585937        6.3174468004  CLST          94          1.0000000000
       282        94  TIP3  H2          -14.3536669632        6.4208005760        5.4992948554  CLST          94          1.0000000000
       283        95  TIP3  OH2           9.7661665708        5.8234467996       -1.7407760503  CLST          95          1.0000000000
       284        95  TIP3  H1            9.7565567626        5.9780596971       -0.7555114294  CLST          95          1.0000000000
       285        95  TIP3  H2           10.6411225124        5.3412544283       -1.7787237475  CLST          95          1.0000000000
       286        96  TIP3  OH2           9.6537541039      -10.9367605905       11.2490250065  CLST          96          1.0000000000
       287        96  TIP3  H1           10.3537167145      -11.2586740971       10.6743849731  CLST          96          1.0000000000
       288        96  TIP3  H2            9.2747982780      -11.7719968064       11.5696028083  CLST          96          1.0000000000
       289        97  TIP3  OH2          -7.6334774923        6.9497729088        8.4855716433  CLST          97          1.0000000000
       290        97  TIP3  H1           -7.2779068909        6.0299655430        8.7527783159  CLST          97          1.0000000000
       291        97  TIP3  H2           -8.6014235562        6.6487587975        8.5043172637  CLST          97          1.0000000000
       292        98  TIP3  OH2           6.0645357175        0.6087049146       -3.4627041683  CLST          98          1.0000000000
       293        98  TIP3  H1            6.7730259631        0.2732070392       -2.8136225572  CLST          98          1.0000000000
       294        98  TIP3  H2            5.3186034489        0.1559793262       -3.0236661332  CLST          98          1.0000000000
       295        99  TIP3  OH2          -6.8405232401      -11.4998298582        4.9500979761  CLST          99          1.0000000000
       296        99  TIP3  H1           -7.1048023573      -11.1524908841        5.8162216011  CLST          99          1.0000000000
       297        99  TIP3  H2           -6.0399143195      -11.9726606386        5.2295955926  CLST          99          1.0000000000
       298       100  TIP3  OH2           2.2579997583        0.4154387186       -9.1279077212  CLST         100          1.0000000000
       299       100  TIP3  H1            2.6961682833        0.4570461171      -10.0295841382  CLST         100          1.0000000000
       300       100  TIP3  H2            2.4607390817        1.3566326868       -8.9322445961  CLST         100          1.0000000000
       301       101  TIP3  OH2          12.7902668562       -6.9106775583        3.8826706544  CLST         101          1.0000000000
       302       101  TIP3  H1           12.7422922051       -7.5503825515        4.6956948293  CLST         101          1.0000000000
       303       101  TIP3  H2           13.4009855796       -6.3042269306        4.1754202015  CLST         101          1.0000000000
       304       102  TIP3  OH2         -12.0837373444       10.2750173715        1.3477012435  CLST         102          1.0000000000
       305       102  TIP3  H1          -12.7330994658        9.9575216520        2.0478493050  CLST         102          1.0000000000
       306       102  TIP3  H2          -12.5860889270        9.8772702741        0.5883490560  CLST         102          1.0000000000
       307       103  TIP3  OH2          -0.6249674359       -9.3257833898        7.7532895281  CLST         103          1.0000000000
       308       103  TIP3  H1            0.0080411032       -9.4779247995        8.5153934830  CLST         103          1.0000000000
       309       103  TIP3  H2           -1.2628182969      -10.0537474528        7.9752196910  CLST         103          1.0000000000
       310       104  TIP3  OH2          -4.3824249365      -12.1159516120        9.8541991052  CLST         104          1.0000000000
       311       104  TIP3  H1           -4.8699995558      -11.8739616761       10.6655432149  CLST         104          1.0000000000
       312       104  TIP3  H2           -5.0233826672      -12.7394274863        9.4250383068  CLST         104          1.0000000000
       313       105  TIP3  OH2          -5.1892443558       10.5787556979      -11.5174794237  CLST         105          1.0000000000
       314       105  TIP3  H1           -4.8228032042       11.0449718623      -12.3242340442  CLST         105          1.0000000000
       315       105  TIP3  H2           -5.8718035909        9.9582108034      -11.9040310137  CLST         105          1.0000000000
       316       106  TIP3  OH2           7.4590404161       -8.0526244659       -1.4045286409  CLST         106          1.0000000000
       317       106  TIP3  H1            8.3110662164       -7.6112331825       -1.3810300357  CLST         106          1.0000000000
       318       106  TIP3  H2            7.6707915065       -9.0006319780       -1.4874988452  CLST         106          1.0000000000
       319       107  TIP3  OH2          -8.4439686879       -4.7453510801        5.0832675394  CLST         107          1.0000000000
       320       107  TIP3  H1           -8.9474273777       -4.1500609694        4.4853240540  CLST         107          1.0000000000
       321       107  TIP3  H2           -7.5225309413       -4.4519657059        4.8448838082  CLST         107          1.0000000000
       322       108  TIP3  OH2         -10.5123117644        2.0093911860        9.4886936403  CLST         108          1.0000000000
       323       108  TIP3  H1           -9.5466477301        1.7866674589        9.4729196278  CLST         108          1.0000000000
       324       108  TIP3  H2          -10.8814074927        1.1274701681        9.8172320064  CLST         108          1.0000000000
       325       109  TIP3  OH2           2.3558980203        7.1048395175        8.8157483356  CLST         109          1.0000000000
       326       109  TIP3  H1            1.6864816660        6.5975645823        9.2996599259  CLST         109          1.0000000000
       327       109  TIP3  H2            3.0813122802        6.4468169320        8.7469298599  CLST         109          1.0000000000
       328       110  TIP3  OH2           1.6264480553       12.5348947969      -11.2687266137  CLST         110          1.0000000000
       329       110  TIP3  H1            2.1584276646       13.3056273079      -11.0152523491  CLST         110          1.0000000000
       330       110  TIP3  H2            1.1384849651       12.4285704794      -10.4063394361  CLST         110          1.0000000000
       331       111  TIP3  OH2          11.7867055621      -11.6774104883        9.5639360655  CLST         111          1.0000000000
       332       111  TIP3  H1           12.6897321719      -11.9661890548        9.6785710666  CLST         111          1.0000000000
       333       111  TIP3  H2           11.3988863986      -12.4600558373        9.0869337067  CLST         111          1.0000000000
       334       112  TIP3  OH2           6.4486306246       -0.0462265010        1.7377626972  CLST         112          1.0000000000
       335       112  TIP3  H1            7.1424599158        0.6337156515        1.8875821541  CLST         112          1.0000000000
       336       112  TIP3  H2            6.2094061835       -0.2609258232        2.6809395018  CLST         112          1.0000000000
       337       113  TIP3  OH2         -12.8589327431        1.0536414594       -0.0090917231  CLST         113          1.0000000000
       338       113  TIP3  H1          -13.5345156364        0.3066675730       -0.1100162401  CLST         113          1.0000000000
       339       113  TIP3  H2          -12.3693116296        0.9689576272       -0.8509526268  CLST         113          1.0000000000
       340       114  TIP3  OH2         -13.8939259162        3.4930928714       -0.2637688513  CLST         114          1.0000000000
       341       114  TIP3  H1          -13.6346237963        2.5885907396       -0.0207134735  CLST         114          1.0000000000
       342       114  TIP3  H2          -13.3503558568        3.5971228932       -1.1111930752  CLST         114          1.0000000000
       343       115  TIP3  OH2          -8.8565370910        0.3127019758      -10.8315588904  CLST         115          1.0000000000
       344       115  TIP3  H1           -8.0393387219        0.7579742660      -11.1610681660  CLST         115          1.0000000000
       345       115  TIP3  H2           -9.4218544713        1.0532786875      -11.1429135747  CLST         115          1.0000000000
       346       116  TIP3  OH2           6.9362923815       -5.7062573304        2.1989553308  CLST         116          1.0000000000
       347       116  TIP3  H1            7.7917247472       -5.8573595140        1.7799368272  CLST         116          1.0000000000
       348       116  TIP3  H2            6.8700350930       -4.7536679378        2.4075995130  CLST         116          1.0000000000
       349       117  TIP3  OH2          -0.7526112378        0.0483925004       12.4501820183  CLST         117          1.0000000000
       350       117  TIP3  H1           -0.1071738104       -0.6414034853       12.6886722380  CLST         117          1.0000000000
       351       117  TIP3  H2           -0.4157617484        0.7091578328       13.0350803176  CLST         117          1.0000000000
       352       118  TIP3  OH2           0.1540750909       -9.5788378841        4.9629676582  CLST         118          1.0000000000
       353       118  TIP3  H1           -0.0306156889       -9.4000873132        5.9036020274  CLST         118          1.0000000000
       354       118  TIP3  H2           -0.2026396254       -8.7769809899        4.4618104857  CLST         118          1.0000000000
       355       119  TIP3  OH2          -9.3265332929      -10.4261444917       -8.7143880721  CLST         119          1.0000000000
       356       119  TIP3  H1           -9.4680541914      -10.8644639765       -9.5918376982  CLST         119          1.0000000000
       357       119  TIP3  H2           -8.8233722152       -9.6407660277       -9.0566465420  CLST         119          1.0000000000
       358       120  TIP3  OH2           9.5402869495       -8.0067098784        1.3227615264  CLST         120          1.0000000000
       359       120  TIP3  H1            8.8426965587       -8.5985268709        0.9730577510  CLST         120          1.0000000000
       360       120  TIP3  H2            9.4844603793       -7.3146487313        0.6014200610  CLST         120          1.0000000000
       361       121  TIP3  OH2          -5.6522835564       -0.2744964703       -8.0311056339  CLST         121          1.0000000000
       362       121  TIP3  H1           -5.5219263343       -0.0679119393       -8.9900808039  CLST         121          1.0000000000
       363       121  TIP3  H2           -4.9249465134       -0.9354236758       -7.9052327424  CLST         121          1.0000000000
       364       122  TIP3  OH2          10.3377435674       12.0342461582        5.0831796316  CLST         122          1.0000000000
       365       122  TIP3  H1            9.4719662213       12.3575972681        5.4682438783  CLST         122          1.0000000000
       366       122  TIP3  H2           10.8683999448       12.1160790917        5.9240072028  CLST         122          1.0000000000
       367       123  TIP3  OH2          -7.4392519605       -5.5379866759      -11.2373797448  CLST         123          1.0000000000
       368       123  TIP3  H1           -6.7756242535       -6.2257601100      -11.3488367702  CLST         123          1.0000000000
       369       123  TIP3  H2           -7.3997021805       -5.3852697325      -10.2716510727  CLST         123          1.0000000000
       370       124  TIP3  OH2          -6.0297209820       -8.6447200132      -10.7016390019  CLST         124          1.0000000000
       371       124  TIP3  H1           -5.2387397842       -8.9389625294      -10.1332134872  CLST         124          1.0000000000
       372       124  TIP3  H2           -6.6417479919       -8.3902682001       -9.9706585486  CLST         124          1.0000000000
       373       125  TIP3  OH2         -13.3786504804        4.1259029389        8.0663361818  CLST         125          1.0000000000
       374       125  TIP3  H1          -13.2529685139        3.3135123419        7.5038908095  CLST         125          1.0000000000
       375       125  TIP3  H2          -13.7132921133        4.8144329462        7.4650066671  CLST         125          1.0000000000
       376       126  TIP3  OH2          -7.0671000074      -10.6980590623      -12.1769761649  CLST         126          1.0000000000
       377       126  TIP3  H1           -6.2543309614      -11.2430864398      -12.0023779140  CLST         126          1.0000000000
       378       126  TIP3  H2           -6.7449484931       -9.8804836156      -11.6788920895  CLST         126          1.0000000000
       379       127  TIP3  OH2          -7.4521459500      -11.6490884692       -7.0212477897  CLST         127          1.0000000000
       380       127  TIP3  H1           -8.0071038365      -12.4531424879       -7.0378123483  CLST         127          1.0000000000
       381       127  TIP3  H2           -7.8967685462      -11.1796872726       -7.7555506045  CLST         127          1.0000000000
       382       128  TIP3  OH2           9.9272839273        0.8454344736       -2.3916377433  CLST         128          1.0000000000
       383       128  TIP3  H1            9.0221066723        0.4938530202       -2.1828007467  CLST         128          1.0000000000
       384       128  TIP3  H2            9.6642113269        1.4285095062       -3.1694580165  CLST         128          1.0000000000
       385       129  TIP3  OH2          -7.8207987326        9.4893859180        1.0482523664  CLST         129          1.0000000000
       386       129  TIP3  H1           -6.9252635914        9.9957469619        1.2291217749  CLST         129          1.0000000000
       387       129  TIP3  H2           -7.2906093688        8.7345882564        0.6152072343  CLST         129          1.0000000000
       388       130  TIP3  OH2          -3.9825581501        3.9352764253       10.0684069928  CLST         130          1.0000000000
       389       130  TIP3  H1           -3.3851725072        4.7176934346       10.0571962141  CLST         130          1.0000000000
       390       130  TIP3  H2           -3.7046825224        3.4494952820       10.8742803201  CLST         130          1.0000000000
       391       131  TIP3  OH2           7.7645827093       -3.7116122056       -9.8753579880  CLST         131          1.0000000000
       392       131  TIP3  H1            7.6654052551       -2.9246413797       -9.2397581657  CLST         131          1.0000000000
       393       131  TIP3  H2            6.7714463191       -3.9046765735       -9.9680551857  CLST         131          1.0000000000
       394       132  TIP3  OH2         -11.5680778530       11.4064958815       12.2749110013  CLST         132          1.0000000000
       395       132  TIP3  H1          -11.1408788980       12.0593745669       11.6487939750  CLST         132          1.0000000000
       396       132  TIP3  H2          -12.1049522486       11.8194740444       12.7981833097  CLST         132          1.0000000000
       397       133  TIP3  OH2          10.3587646228        9.3693838741        8.6178208181  CLST         133          1.0000000000
       398       133  TIP3  H1           10.4983906085        9.0015265116        9.5413292107  CLST         133          1.0000000000
       399       133  TIP3  H2           11.2948822400        9.7516013566        8.5831202179  CLST         133          1.0000000000
       400       134  TIP3  OH2          -7.5930410826        5.8728877900       -5.9846892323  CLST         134          1.0000000000
       401       134  TIP3  H1           -8.3141519687        6.5357087798       -5.8408954659  CLST         134          1.0000000000
       402       134  TIP3  H2           -7.3109603117        5.8502247167       -5.0382759113  CLST         134          1.0000000000
       403       135  TIP3  OH2          10.7827173672      -11.1991050095      -13.2412156896  CLST         135          1.0000000000
       404       135  TIP3  H1           10.9441492043      -10.3496825903      -12.7383144243  CLST         135          1.0000000000
       405       135  TIP3  H2           10.9724287292      -11.1739175971      -14.0857560182  CLST         135          1.0000000000
       406       136  TIP3  OH2          -4.2048329182        1.8293487787       -7.1081818812  CLST         136          1.0000000000
       407       136  TIP3  H1           -4.7829713352        1.0601092433       -7.4041892186  CLST         136          1.0000000000
       408       136  TIP3  H2           -4.8939871790        2.2605038451       -6.5341876346  CLST         136          1.0000000000
       409       137  TIP3  OH2          12.7864710600       10.2090208776        9.0468562183  CLST         137          1.0000000000
       410       137  TIP3  H1           12.7827576648       10.0317235702       10.0247257258  CLST         137          1.0000000000
       411       137  TIP3  H2           13.6397469034        9.7949846671        8.8291567489  CLST         137          1.0000000000
       412       138  TIP3  OH2          -0.7394825797       -9.9762688414        1.6216686335  CLST         138          1.0000000000
       413       138  TIP3  H1           -0.9158068053       -9.6717456002        0.7486067213  CLST         138          1.0000000000
       414       138  TIP3  H2           -0.8279073238       -9.2029983000        2.2275128893  CLST         138          1.0000000000
       415       139  TIP3  OH2          -9.5697362639      -10.7212103195        4.5004636305  CLST         139          1.0000000000
       416       139  TIP3  H1          -10.1704476649      -10.7695983274        3.7188021882  CLST         139          1.0000000000
       417       139  TIP3  H2           -8.8815811586      -11.3234123678        4.1688842090  CLST         139          1.0000000000
       418       140  TIP3  OH2          -7.0621466178        3.5182157787       -0.4054439833  CLST         140          1.0000000000
       419       140  TIP3  H1           -6.3143249843        4.1016587419       -0.1403568815  CLST         140          1.0000000000
       420       140  TIP3  H2           -7.8088979024        4.1464985970       -0.5748244835  CLST         140          1.0000000000
       421       141  TIP3  OH2           2.1095313971       -4.5157080685       -3.5858461216  CLST         141          1.0000000000
       422       141  TIP3  H1            1.6745071355       -3.7145961488       -3.2215505490  CLST         141          1.0000000000
       423       141  TIP3  H2            2.7455702018       -4.0194929758       -4.1671090092  CLST         141          1.0000000000
       424       142  TIP3  OH2         -11.6740902741       -0.0285783508        4.8046961351  CLST         142          1.0000000000
       425       142  TIP3  H1          -11.7547651181        0.6265109680        5.5385196720  CLST         142          1.0000000000
       426       142  TIP3  H2          -11.9817551456        0.5359989895        4.0745443444  CLST         142          1.0000000000
       427       143  TIP3  OH2           9.3021087165       -5.7722214657       -8.2808232822  CLST         143          1.0000000000
       428       143  TIP3  H1            9.3341399167       -5.0101976475       -8.8737400064  CLST         143          1.0000000000
       429       143  TIP3  H2            9.8556679570       -6.4875411765       -8.6310969003  CLST         143          1.0000000000
       430       144  TIP3  OH2           3.3233496302       -2.9146831155        9.0850227961  CLST         144          1.0000000000
       431       144  TIP3  H1            2.4705738195       -2.5795093516        9.5455926202  CLST         144          1.0000000000
       432       144  TIP3  H2            3.2733054420       -2.2067898407        8.3804685343  CLST         144          1.0000000000
       433       145  TIP3  OH2         -10.2513619841       13.4024203829        3.1649754982  CLST         145          1.0000000000
       434       145  TIP3  H1          -10.7108150314       13.3884614631        2.2958238476  CLST         145          1.0000000000
       435       145  TIP3  H2           -9.8658841707       12.5096332338        3.1907635424  CLST         145          1.0000000000
       436       146  TIP3  OH2           9.1564269567        2.6923376533       -4.2242537828  CLST         146          1.0000000000
       437       146  TIP3  H1            9.0417688825        3.6950799842       -4.1772339437  CLST         146          1.0000000000
       438       146  TIP3  H2            8.4514404872        2.6153495635       -4.9383300505  CLST         146          1.0000000000
       439       147  TIP3  OH2         -11.0328924008       -0.3751232591       -4.1090872637  CLST         147          1.0000000000
       440       147  TIP3  H1          -10.1064374814       -0.7033192759       -4.3044553914  CLST         147          1.0000000000
       441       147  TIP3  H2          -11.4282195023       -0.6018321128       -4.9740187525  CLST         147          1.0000000000
       442       148  TIP3  OH2          -7.9797607932        1.3126764155        8.9621266838  CLST         148          1.0000000000
       443       148  TIP3  H1           -7.9084987702        0.9883519656        8.0125557910  CLST         148          1.0000000000
       444       148  TIP3  H2           -6.9585464988        1.2779451027        9.0585379232  CLST         148          1.0000000000
       445       149  TIP3  OH2           8.7259518184       -2.9388784953        0.7700331617  CLST         149          1.0000000000
       446       149  TIP3  H1            9.3356008274       -2.1350264059        0.7062669513  CLST         149          1.0000000000
       447       149  TIP3  H2            8.2598082554       -2.6681280301        1.6042810014  CLST         149          1.0000000000
       448       150  TIP3  OH2          -2.2144447150      -11.5117905392        8.4282156191  CLST         150          1.0000000000
       449       150  TIP3  H1           -3.0463989318      -11.7680482777        8.9381481343  CLST         150          1.0000000000
       450       150  TIP3  H2           -1.5424687324      -11.8325051006        9.0960034562  CLST         150          1.0000000000
       451       151  TIP3  OH2          -9.1758305505       -6.4353616807       -4.8857279770  CLST         151          1.0000000000
       452       151  TIP3  H1           -8.2086339850       -6.4988547526       -4.5628200338  CLST         151          1.0000000000
       453       151  TIP3  H2           -9.0736183184       -7.3378547257       -5.3273269926  CLST         151          1.0000000000
       454       152  TIP3  OH2           3.9210011441       -1.9518951826        5.0321188549  CLST         152          1.0000000000
       455       152  TIP3  H1            4.3805978507       -2.7252950104        5.4833505155  CLST         152          1.0000000000
       456       152  TIP3  H2            3.6871690153       -2.4668631880        4.2329637437  CLST         152          1.0000000000
       457       153  TIP3  OH2          -2.6026654809        4.8045077641      -14.3194681871  CLST         153          1.0000000000
       458       153  TIP3  H1           -1.8848931771        5.3699045296      -13.9580310906  CLST         153          1.0000000000
       459       153  TIP3  H2           -2.5370159204        4.2621849303      -13.5053516704  CLST         153          1.0000000000
       460       154  TIP3  OH2           4.5829642612       -6.8842739965        2.1455649417  CLST         154          1.0000000000
       461       154  TIP3  H1            5.4187013560       -6.4177100370        1.8983407413  CLST         154          1.0000000000
       462       154  TIP3  H2            3.9107139810       -6.5008595914        1.5574451448  CLST         154          1.0000000000
       463       155  TIP3  OH2           9.4907424325       -2.7887927465       10.2432046110  CLST         155          1.0000000000
       464       155  TIP3  H1            8.8955724027       -3.1472640769        9.5398700767  CLST         155          1.0000000000
       465       155  TIP3  H2           10.0449117547       -3.4276558586       10.5133466153  CLST         155          1.0000000000
       466       156  TIP3  OH2          -2.1195382726       11.2757185068       11.5984553667  CLST         156          1.0000000000
       467       156  TIP3  H1           -2.9412511287       11.6961217317       11.9688517693  CLST         156          1.0000000000
       468       156  TIP3  H2           -2.5523508049       10.4035097863       11.5306640096  CLST         156          1.0000000000
       469       157  TIP3  OH2           3.9332894192       -0.7453803201        7.4422862604  CLST         157          1.0000000000
       470       157  TIP3  H1            4.8760371882       -0.8502336453        7.7262747591  CLST         157          1.0000000000
       471       157  TIP3  H2            3.9354995892       -0.9191547467        6.5049692068  CLST         157          1.0000000000
       472       158  TIP3  OH2          10.6051646155        9.1491661155       13.3598500441  CLST         158          1.0000000000
       473       158  TIP3  H1            9.7588384027        8.5933216218       13.4723585613  CLST         158          1.0000000000
       474       158  TIP3  H2           10.1232662747        9.6874602980       12.6922782863  CLST         158          1.0000000000
       475       159  TIP3  OH2           0.5114709661      -12.2041581598        4.4020828499  CLST         159          1.0000000000
       476       159  TIP3  H1           -0.1181681447      -12.5579187455        5.0965872130  CLST         159          1.0000000000
       477       159  TIP3  H2            0.2529433808      -11.2526745097        4.5184586670  CLST         159          1.0000000000
       478       160  TIP3  OH2           7.4158220381       -3.5836257286        8.6118813598  CLST         160          1.0000000000
       479       160  TIP3  H1            6.9628486240       -3.7221330701        7.7506666062  CLST         160          1.0000000000
       480       160  TIP3  H2            7.0413543495       -2.6952880284        8.7816475217  CLST         160          1.0000000000
       481       161  TIP3  OH2          -2.4839545768       -2.3398636766        7.8264324627  CLST         161          1.0000000000
       482       161  TIP3  H1           -1.9675658576       -1.8607652485        8.5470431172  CLST         161          1.0000000000
       483       161  TIP3  H2           -3.3529160374       -2.2053227935        8.2927229773  CLST         161          1.0000000000
       484       162  TIP3  OH2          -0.7240745685        3.6557855320      -10.7847912130  CLST         162          1.0000000000
       485       162  TIP3  H1           -0.4293909357        4.4101641241      -11.3270805487  CLST         162          1.0000000000
       486       162  TIP3  H2           -0.7094021294        3.8857961420       -9.8581518273  CLST         162          1.0000000000
       487       163  TIP3  OH2          -9.9933735911        9.1564917023       11.2330752207  CLST         163          1.0000000000
       488       163  TIP3  H1          -10.5968735534        8.3921959460       11.4517085348  CLST         163          1.0000000000
       489       163  TIP3  H2          -10.2470178973        9.7378830507       11.9880418804  CLST         163          1.0000000000
       490       164  TIP3  OH2           4.0423935110      -10.4640664897       13.0474735913  CLST         164          1.0000000000
       491       164  TIP3  H1            4.5441421352       -9.6211777671       12.9456701667  CLST         164          1.0000000000
       492       164  TIP3  H2            4.7840503623      -10.9634444859       12.6431350298  CLST         164          1.0000000000
       493       165  TIP3  OH2         -12.1822386210       -5.4089912067        3.6019417040  CLST         165          1.0000000000
       494       165  TIP3  H1          -11.7759143109       -5.5201894044        4.5320662280  CLST         165          1.0000000000
       495       165  TIP3  H2          -13.0804306628       -5.5183068938        3.8916896305  CLST         165          1.0000000000
       496       166  TIP3  OH2          -1.5819570229       -6.4114884582      -10.4657140399  CLST         166          1.0000000000
       497       166  TIP3  H1           -0.6583634784       -6.7016071533      -10.3139023044  CLST         166          1.0000000000
       498       166  TIP3  H2           -2.0367583743       -7.2067394412      -10.3203569013  CLST         166          1.0000000000
       499       167  TIP3  OH2           8.2256533804       10.5783542002       -0.8441689951  CLST         167          1.0000000000
       500       167  TIP3  H1            8.8404967738       10.0348978956       -0.2438762120  CLST         167          1.0000000000
       501       167  TIP3  H2            8.6676764609       10.4056572520       -1.6872437682  CLST         167          1.0000000000
       502       168  TIP3  OH2          -0.6514538809      -13.3731001408        2.1520262185  CLST         168          1.0000000000
       503       168  TIP3  H1           -0.2661395785      -13.0905974318        3.0203190037  CLST         168          1.0000000000
       504       168  TIP3  H2            0.2008414505      -13.7198030864        1.7950798684  CLST         168          1.0000000000
       505       169  TIP3  OH2           5.0605148113        4.0783994133        3.3437448101  CLST         169          1.0000000000
       506       169  TIP3  H1            4.1049652097        3.8888549486        3.3754439640  CLST         169          1.0000000000
       507       169  TIP3  H2            5.1311991561        4.6234437733        2.5101410494  CLST         169          1.0000000000
       508       170  TIP3  OH2          -1.1398558273        4.2761215254        1.4261224796  CLST         170          1.0000000000
       509       170  TIP3  H1           -1.8345051342        4.9669458178        1.2790915287  CLST         170          1.0000000000
       510       170  TIP3  H2           -1.4923179081        3.4014255091        1.2351969792  CLST         170          1.0000000000
       511       171  TIP3  OH2          -2.9878365937        1.3397479120        7.3629587217  CLST         171          1.0000000000
       512       171  TIP3  H1           -2.8073393789        0.8728569773        6.5308156965  CLST         171          1.0000000000
       513       171  TIP3  H2           -2.0635054834        1.6596048991        7.5349391149  CLST         171          1.0000000000
       514       172  TIP3  OH2          -6.4809487911      -12.9873637476        8.0900477918  CLST         172          1.0000000000
       515       172  TIP3  H1           -6.8925032347      -13.6965632075        7.6807239681  CLST         172          1.0000000000
       516       172  TIP3  H2           -5.7523475219      -12.7801401584        7.3956249468  CLST         172          1.0000000000
       517       173  TIP3  OH2          10.1426550925      -12.5254642610        1.8820463533  CLST         173          1.0000000000
       518       173  TIP3  H1           10.4139230418      -12.4027089558        0.9419298046  CLST         173          1.0000000000
       519       173  TIP3  H2            9.1755127933      -12.4375261971        1.8444793942  CLST         173          1.0000000000
       520       174  TIP3  OH2           0.0262414136        5.6624517195        9.7694070025  CLST         174          1.0000000000
       521       174  TIP3  H1            0.0426440316        4.8057018496       10.2331805213  CLST         174          1.0000000000
       522       174  TIP3  H2           -0.8969547240        5.9104451499       10.0029590882  CLST         174          1.0000000000
       523       175  TIP3  OH2          -5.6823255732       10.3690456408       -3.6129985068  CLST         175          1.0000000000
       524       175  TIP3  H1           -5.3331672441       10.1335609133       -4.4987322540  CLST         175          1.0000000000
       525       175  TIP3  H2           -6.6258301493       10.1927822539       -3.9130680623  CLST         175          1.0000000000
       526       176  TIP3  OH2           6.7442040915        9.1548351700       -7.7947792503  CLST         176          1.0000000000
       527       176  TIP3  H1            7.1249514940       10.0201893670       -8.0643218478  CLST         176          1.0000000000
       528       176  TIP3  H2            6.0591241058        9.4913061969       -7.1901190009  CLST         176          1.0000000000
       529       177  TIP3  OH2          -3.8079702725      -11.3608299415       -1.5369845372  CLST         177          1.0000000000
       530       177  TIP3  H1           -3.2461987719      -12.0105592322       -1.0808639909  CLST         177          1.0000000000
       531       177  TIP3  H2           -4.5041508315      -11.2470902217       -0.8188731124  CLST         177          1.0000000000
       532       178  TIP3  OH2          10.7759747721       -9.0180410378      -11.4016185158  CLST         178          1.0000000000
       533       178  TIP3  H1           11.0889245208       -8.8957871599      -10.4715455293  CLST         178          1.0000000000
       534       178  TIP3  H2           10.7674287852       -8.0465507106      -11.6144133224  CLST         178          1.0000000000
       535       179  TIP3  OH2           6.4597800884       -0.8770266561        8.4427735608  CLST         179          1.0000000000
       536       179  TIP3  H1            6.2472100658       -0.3225499933        9.2394529167  CLST         179          1.0000000000
       537       179  TIP3  H2            7.0016966729       -0.2472059220        7.9036278792  CLST         179          1.0000000000
       538       180  TIP3  OH2          -7.6078323531        8.2040130836        5.8808576240  CLST         180          1.0000000000
       539       180  TIP3  H1           -7.4679209430        7.8100456597        6.7939326130  CLST         180          1.0000000000
       540       180  TIP3  H2           -8.5921036025        8.1324583835        5.9342730581  CLST         180          1.0000000000
       541       181  TIP3  OH2           6.0338039855      -12.9638993074       -0.4132537203  CLST         181          1.0000000000
       542       181  TIP3  H1            6.7713211989      -12.6575669790       -0.9389975160  CLST         181          1.0000000000
       543       181  TIP3  H2            6.3279456079      -12.9118881186        0.5151577249  CLST         181          1.0000000000
       544       182  TIP3  OH2          -1.6702515777       10.5339899517      -10.3671420651  CLST         182          1.0000000000
       545       182  TIP3  H1           -0.9709728717       10.9244836804       -9.8057688225  CLST         182          1.0000000000
       546       182  TIP3  H2           -2.4345084392       10.5207345406       -9.7736349753  CLST         182          1.0000000000
       547       183  TIP3  OH2          -5.3537557113        3.5677483391      -12.3627788526  CLST         183          1.0000000000
       548       183  TIP3  H1           -5.1790570278        3.3872092370      -11.4010302845  CLST         183          1.0000000000
       549       183  TIP3  H2           -6.2970434162        3.1979836342      -12.3894582797  CLST         183          1.0000000000
       550       184  TIP3  OH2           2.9571366625        8.1882559387       -2.3990784813  CLST         184          1.0000000000
       551       184  TIP3  H1            3.0002457223        7.4352231974       -1.7482741097  CLST         184          1.0000000000
       552       184  TIP3  H2            2.0371743370        7.8741684033       -2.6786282098  CLST         184          1.0000000000
       553       185  TIP3  OH2           7.4239900298        4.6458624545       12.1633977125  CLST         185          1.0000000000
       554       185  TIP3  H1            7.5916722007        3.6357648521       12.1623479618  CLST         185          1.0000000000
       555       185  TIP3  H2            6.9646797476        4.7973935912       12.9847812527  CLST         185          1.0000000000
       556       186  TIP3  OH2           3.8471797247        6.0041872661       -5.0484773600  CLST         186          1.0000000000
       557       186  TIP3  H1            4.1021842841        6.9585581699       -5.1655830577  CLST         186          1.0000000000
       558       186  TIP3  H2            3.8398829687        5.6860985651       -5.9734670443  CLST         186          1.0000000000
       559       187  TIP3  OH2           3.9591048036        1.7210679534       -5.5245070154  CLST         187          1.0000000000
       560       187  TIP3  H1            4.2465957917        1.6687438894       -4.5859848946  CLST         187          1.0000000000
       561       187  TIP3  H2            3.7485257189        0.7505568834       -5.6708896395  CLST         187          1.0000000000
       562       188  TIP3  OH2          -4.5156977047       -1.4990682406        4.8954521610  CLST         188          1.0000000000
       563       188  TIP3  H1           -4.6681594340       -0.6603582404        4.4110525505  CLST         188          1.0000000000
       564       188  TIP3  H2           -4.7436846342       -1.2335207165        5.8293370140  CLST         188          1.0000000000
       565       189  TIP3  OH2          -5.0623140020        3.6770700768      -15.1398729290  CLST         189          1.0000000000
       566       189  TIP3  H1           -5.0421561561        3.7034178254      -14.1609763716  CLST         189          1.0000000000
       567       189  TIP3  H2           -4.1348636442        3.9770891163      -15.2645719577  CLST         189          1.0000000000
       568       190  TIP3  OH2           7.2375410780       -5.7568656605        5.1886020172  CLST         190          1.0000000000
       569       190  TIP3  H1            7.0540527808       -6.0408429763        4.2615822725  CLST         190          1.0000000000
       570       190  TIP3  H2            8.2216115784       -5.7939213343        5.0470670029  CLST         190          1.0000000000
       571       191  TIP3  OH2         -10.8494554246       -4.7997143610       -6.6125771539  CLST         191          1.0000000000
       572       191  TIP3  H1          -10.0907464794       -4.4301965315       -7.1307015677  CLST         191          1.0000000000
       573       191  TIP3  H2          -10.4463014195       -5.6162307993       -6.2478642492  CLST         191          1.0000000000
       574       192  TIP3  OH2           8.8533783438       14.2050409593        2.0055002296  CLST         192          1.0000000000
       575       192  TIP3  H1            8.2269137526       14.4973373127        2.6577235361  CLST         192          1.0000000000
       576       192  TIP3  H2            9.4995841938       14.8932755272        1.9565785687  CLST         192          1.0000000000
       577       193  TIP3  OH2           6.2011129558      -12.1913414933       11.8225608712  CLST         193          1.0000000000
       578       193  TIP3  H1            6.7959634368      -12.9398968900       11.7678720161  CLST         193          1.0000000000
       579       193  TIP3  H2            6.0973198279      -11.8001136701       10.9491812607  CLST         193          1.0000000000
       580       194  TIP3  OH2          -6.3162465408       -4.4397222844       11.1759218702  CLST         194          1.0000000000
       581       194  TIP3  H1           -6.9559597178       -4.3491463523       11.8574582019  CLST         194          1.0000000000
       582       194  TIP3  H2           -6.8369814470       -4.1052856096       10.4041385968  CLST         194          1.0000000000
       583       195  TIP3  OH2          -7.5541171803        9.0736287081       10.2795880191  CLST         195          1.0000000000
       584       195  TIP3  H1           -8.4503536508        8.9528835829       10.7242833201  CLST         195          1.0000000000
       585       195  TIP3  H2           -7.8077103721        8.5855138428        9.4555334801  CLST         195          1.0000000000
       586       196  TIP3  OH2           5.9754039569      -12.2774374347       -6.1430133873  CLST         196          1.0000000000
       587       196  TIP3  H1            6.2099639633      -11.5338702568       -6.7222789593  CLST         196          1.0000000000
       588       196  TIP3  H2            5.1002771486      -11.9098985312       -5.8252059932  CLST         196          1.0000000000
       589       197  TIP3  OH2           2.1715674756       -9.1433972982       -2.7952800186  CLST         197          1.0000000000
       590       197  TIP3  H1            1.8006911609       -8.2227985431       -2.6159084039  CLST         197          1.0000000000
       591       197  TIP3  H2            3.0747271096       -8.8703867834       -2.5543964847  CLST         197          1.0000000000
       592       198  TIP3  OH2          10.8137443887        1.9012092683        4.7596741858  CLST         198          1.0000000000
       593       198  TIP3  H1           10.2985482830        1.7759643629        3.9487946285  CLST         198          1.0000000000
       594       198  TIP3  H2           10.9347810747        2.8622302605        4.5243473690  CLST         198          1.0000000000
       595       199  TIP3  OH2          -0.0477832863        8.2916855176       -5.7416859242  CLST         199          1.0000000000
       596       199  TIP3  H1           -0.6078052164        8.7105732771       -5.0820713566  CLST         199          1.0000000000
       597       199  TIP3  H2           -0.3427707707        7.3487856684       -5.6529164123  CLST         199          1.0000000000
       598       200  TIP3  OH2          -7.6600339702       11.9037102190       10.8947052065  CLST         200          1.0000000000
       599       200  TIP3  H1           -7.6208599331       10.9194205862       10.9107517385  CLST         200          1.0000000000
       600       200  TIP3  H2           -7.3766588394       12.0522804389        9.9558156944  CLST         200          1.0000000000
       601       201  TIP3  OH2           4.5616347929        0.8981303808       -0.1461318396  CLST         201          1.0000000000
       602       201  TIP3  H1            4.4822460728        1.7958558626        0.2163933902  CLST         201          1.0000000000
       603       201  TIP3  H2            5.2043392667        0.5599148849        0.5267743699  CLST         201          1.0000000000
       604       202  TIP3  OH2          -2.0811452638       -4.3086633341      -12.4143010849  CLST         202          1.0000000000
       605       202  TIP3  H1           -1.7801979169       -4.9387872138      -11.7139555760  CLST         202          1.0000000000
       606       202  TIP3  H2           -2.6417890914       -3.7009919928      -11.8733586272  CLST         202          1.0000000000
       607       203  TIP3  OH2          -0.6836608416       11.4616304818        7.5883750635  CLST         203          1.0000000000
       608       203  TIP3  H1            0.1359455305       11.0936110637        7.9631897516  CLST         203          1.0000000000
       609       203  TIP3  H2           -1.3348059873       10.9187883277        8.1019099372  CLST         203          1.0000000000
       610       204  TIP3  OH2          -5.5284404260        6.4132328833      -13.2850921402  CLST         204          1.0000000000
       611       204  TIP3  H1           -4.8767912822        6.3471007951      -14.0103259512  CLST         204          1.0000000000
       612       204  TIP3  H2           -5.7580802407        5.4724865601      -13.2313020695  CLST         204          1.0000000000
       613       205  TIP3  OH2          -2.3811675650        7.1189278827       -2.7241109869  CLST         205          1.0000000000
       614       205  TIP3  H1           -2.3901355638        7.8240796661       -3.4835256235  CLST         205          1.0000000000
       615       205  TIP3  H2           -1.3998962412        7.0766269315       -2.6335667086  CLST         205          1.0000000000
       616       206  TIP3  OH2           4.9608355260      -11.0508117660       -9.7920932663  CLST         206          1.0000000000
       617       206  TIP3  H1            5.0382975935      -11.9485240565       -9.2939920106  CLST         206          1.0000000000
       618       206  TIP3  H2            5.5792104103      -10.5374913201       -9.1675829865  CLST         206          1.0000000000
       619       207  TIP3  OH2          12.8845631952       10.2171777536       12.1875357196  CLST         207          1.0000000000
       620       207  TIP3  H1           12.1535633638        9.9016418803       12.7880740982  CLST         207          1.0000000000
       621       207  TIP3  H2           13.5497506781       10.3284120257       12.6836992433  CLST         207          1.0000000000
       622       208  TIP3  OH2         -11.5130234838        2.2890988040        6.8800092904  CLST         208          1.0000000000
       623       208  TIP3  H1          -11.1062516915        2.1860276774        7.7884577323  CLST         208          1.0000000000
       624       208  TIP3  H2          -11.1787960726        3.1686911494        6.6180930661  CLST         208          1.0000000000
       625       209  TIP3  OH2           4.4666194829       -9.2800433254        7.3296700076  CLST         209          1.0000000000
       626       209  TIP3  H1            4.0066957567       -9.6742608037        6.5026865817  CLST         209          1.0000000000
       627       209  TIP3  H2            3.6744899291       -8.6795516855        7.4257815000  CLST         209          1.0000000000
       628       210  TIP3  OH2          12.2383417575      -11.1635735435        5.4644223971  CLST         210          1.0000000000
       629       210  TIP3  H1           12.5208521578      -11.1307641909        4.4601934759  CLST         210          1.0000000000
       630       210  TIP3  H2           12.3501670420      -10.2625205032        5.7631042878  CLST         210          1.0000000000
       631       211  TIP3  OH2          -0.3459764910       -9.2251439925       12.2119557264  CLST         211          1.0000000000
       632       211  TIP3  H1            0.2265606146       -9.6074213089       12.9265138843  CLST         211          1.0000000000
       633       211  TIP3  H2           -1.0005117100       -9.9901858744       12.1306535056  CLST         211          1.0000000000
       634       212  TIP3  OH2         -12.3082148475        3.4813155350       -2.4838737757  CLST         212          1.0000000000
       635       212  TIP3  H1          -11.7851274845        4.1011487907       -3.0251917697  CLST         212          1.0000000000
       636       212  TIP3  H2          -11.7790621277        2.6760588427       -2.4372705227  CLST         212          1.0000000000
       637       213  TIP3  OH2          -9.3841290726      -11.4532988978      -11.6105484318  CLST         213          1.0000000000
       638       213  TIP3  H1           -9.9442226248      -11.6330108207      -12.2717025309  CLST         213          1.0000000000
       639       213  TIP3  H2           -8.2128698001      -11.0221089231      -11.9979517131  CLST         213          1.0000000000
       640       214  TIP3  OH2          -6.3937599658        2.2742317907       -5.5800485137  CLST         214          1.0000000000
       641       214  TIP3  H1           -6.3099197876        1.3673926859       -5.1482030543  CLST         214          1.0000000000
       642       214  TIP3  H2           -6.9371949583        2.6445798401       -4.8243538138  CLST         214          1.0000000000
       643       215  TIP3  OH2         -11.7808343196      -12.7671480268        5.6812005513  CLST         215          1.0000000000
       644       215  TIP3  H1          -10.8368746133      -12.5834894282        5.6705388275  CLST         215          1.0000000000
       645       215  TIP3  H2          -11.8827141590      -12.8374460206        4.6914314086  CLST         215          1.0000000000
       646       216  TIP3  OH2         -11.8188327733       -2.2742040769        8.0674064690  CLST         216          1.0000000000
       647       216  TIP3  H1          -10.8297850309       -2.1980381641        8.1058911762  CLST         216          1.0000000000
       648       216  TIP3  H2          -11.8780772572       -3.1184411617        8.5925906280  CLST         216          1.0000000000
       649       217  TIP3  OH2           7.7258739244       -0.2704398373       -1.4914556994  CLST         217          1.0000000000
       650       217  TIP3  H1            8.2989499501       -1.0739525489       -1.5092922421  CLST         217          1.0000000000
       651       217  TIP3  H2            7.0675234163       -0.5176397592       -0.7875411807  CLST         217          1.0000000000
       652       218  TIP3  OH2          -8.3049805508       -4.0262430014        9.1289006138  CLST         218          1.0000000000
       653       218  TIP3  H1           -8.5061915068       -3.1238645432        8.7543745493  CLST         218          1.0000000000
       654       218  TIP3  H2           -7.8770931525       -4.5313541467        8.4416435892  CLST         218          1.0000000000
       655       219  TIP3  OH2         -12.4764565112       -4.4446692361       -2.7676596348  CLST         219          1.0000000000
       656       219  TIP3  H1          -12.7480469767       -3.5710036553       -2.4298773437  CLST         219          1.0000000000
       657       219  TIP3  H2          -12.8373266063       -4.3079811215       -3.6983728281  CLST         219          1.0000000000
       658       220  TIP3  OH2           6.4391922883        6.7360904432        7.6455157258  CLST         220          1.0000000000
       659       220  TIP3  H1            5.9983349545        6.3258071302        6.8273753087  CLST         220          1.0000000000
       660       220  TIP3  H2            5.5948459690        6.5741239709        8.1411613408  CLST         220          1.0000000000
       661       221  TIP3  OH2         -10.4181971772       -7.1118336399       10.2615781027  CLST         221          1.0000000000
       662       221  TIP3  H1           -9.5475916357       -7.1686767182       10.5613895863  CLST         221          1.0000000000
       663       221  TIP3  H2          -10.5979484799       -8.0604960016        9.8819633265  CLST         221          1.0000000000
       664       222  TIP3  OH2          -6.8980056866       -0.7333753200      -13.7129041391  CLST         222          1.0000000000
       665       222  TIP3  H1           -6.4202864065       -1.6127670804      -13.5458474481  CLST         222          1.0000000000
       666       222  TIP3  H2           -7.7333495183       -0.9394088010      -13.2531406321  CLST         222          1.0000000000
       667       223  TIP3  OH2           2.7349355624      -10.8186865524      -11.5437137961  CLST         223          1.0000000000
       668       223  TIP3  H1            2.2397512625      -11.6757993733      -11.4547414799  CLST         223          1.0000000000
       669       223  TIP3  H2            3.5916593152      -11.0177100075      -11.0970797072  CLST         223          1.0000000000
       670       224  TIP3  OH2           7.4531114983        4.6830413130        0.6437542371  CLST         224          1.0000000000
       671       224  TIP3  H1            8.3970672387        4.9509183606        0.7413461234  CLST         224          1.0000000000
       672       224  TIP3  H2            7.5137263242        4.3775906492       -0.3071787842  CLST         224          1.0000000000
       673       225  TIP3  OH2          -0.1994083015        4.6702609064       -1.2749899982  CLST         225          1.0000000000
       674       225  TIP3  H1           -0.7830280470        4.5800786843       -0.4839031631  CLST         225          1.0000000000
       675       225  TIP3  H2           -0.0294968836        3.6563155868       -1.3479150074  CLST         225          1.0000000000
       676       226  TIP3  OH2          -5.6230876841       -4.4665393503        7.6362325035  CLST         226          1.0000000000
       677       226  TIP3  H1           -5.6566526489       -5.4587991228        7.7872399968  CLST         226          1.0000000000
       678       226  TIP3  H2           -5.8795890135       -4.4338407578        6.6943882575  CLST         226          1.0000000000
       679       227  TIP3  OH2          11.7438819949       -4.1265169850       -9.9066859353  CLST         227          1.0000000000
       680       227  TIP3  H1           11.9785253886       -3.7451814258       -8.9915273386  CLST         227          1.0000000000
       681       227  TIP3  H2           11.3274580027       -3.2850706774      -10.1950516137  CLST         227          1.0000000000
       682       228  TIP3  OH2           3.4714272103       12.3954668828        3.3304817928  CLST         228          1.0000000000
       683       228  TIP3  H1            2.6931143961       11.9593983618        3.8687558191  CLST         228          1.0000000000
       684       228  TIP3  H2            3.0227715521       12.3485172247        2.5096906764  CLST         228          1.0000000000
       685       229  TIP3  OH2         -11.4979432744      -13.0849280787        2.9225221678  CLST         229          1.0000000000
       686       229  TIP3  H1          -11.6484756240      -13.7854919063        2.4118237748  CLST         229          1.0000000000
       687       229  TIP3  H2          -11.0182321930      -12.3914258700        2.3361133465  CLST         229          1.0000000000
       688       230  TIP3  OH2          12.2815590611        6.2153738898       -3.3509330078  CLST         230          1.0000000000
       689       230  TIP3  H1           13.1417305017        6.0250998871       -2.9363238287  CLST         230          1.0000000000
       690       230  TIP3  H2           12.2131252441        5.3531473839       -3.8333761767  CLST         230          1.0000000000
       691       231  TIP3  OH2           7.1161230352        3.3709092372        4.7668855021  CLST         231          1.0000000000
       692       231  TIP3  H1            7.2283376253        4.3330938857        4.8575911979  CLST         231          1.0000000000
       693       231  TIP3  H2            6.1998539837        3.4239624045        4.3601951383  CLST         231          1.0000000000
       694       232  TIP3  OH2         -10.4124447866        8.9781876687        7.5108785781  CLST         232          1.0000000000
       695       232  TIP3  H1          -10.8716314157        9.5352970261        8.1934364223  CLST         232          1.0000000000
       696       232  TIP3  H2          -10.4016441836        8.1065391234        7.9762064877  CLST         232          1.0000000000
       697       233  TIP3  OH2           3.6053656779       -5.2534533316        8.0005395911  CLST         233          1.0000000000
       698       233  TIP3  H1            4.3484051820       -5.5949998618        8.5582086162  CLST         233          1.0000000000
       699       233  TIP3  H2            3.4724036399       -4.4206130713        8.5634603835  CLST         233          1.0000000000
       700       234  TIP3  OH2          -3.6404128003        8.5216462797       -0.4949310612  CLST         234          1.0000000000
       701       234  TIP3  H1           -3.4348981990        7.9920473482       -1.3016297038  CLST         234          1.0000000000
       702       234  TIP3  H2           -3.7033085725        9.4113399888       -0.9269256231  CLST         234          1.0000000000
       703       235  TIP3  OH2          -1.9245236113       -4.0596204449       -9.0082095630  CLST         235          1.0000000000
       704       235  TIP3  H1           -1.8708280489       -4.9764057388       -9.3617363797  CLST         235          1.0000000000
       705       235  TIP3  H2           -1.0129564483       -3.7253078723       -9.2021522780  CLST         235          1.0000000000
       706       236  TIP3  OH2          -0.2548806615      -13.6494606053       -3.0178988950  CLST         236          1.0000000000
       707       236  TIP3  H1            0.3933157328      -12.8627885060       -2.9074830526  CLST         236          1.0000000000
       708       236  TIP3  H2           -0.7045222567      -13.3622628127       -2.1750097280  CLST         236          1.0000000000
       709       237  TIP3  OH2          -3.5596392412       -5.1379720451       10.8521681139  CLST         237          1.0000000000
       710       237  TIP3  H1           -4.5361625853       -5.1708861319       10.8954209526  CLST         237          1.0000000000
       711       237  TIP3  H2           -3.3655006135       -5.9908727662       10.4114542737  CLST         237          1.0000000000
       712       238  TIP3  OH2           0.6002157973        4.6674125581        7.3035751881  CLST         238          1.0000000000
       713       238  TIP3  H1            0.0532954210        5.2759182143        6.7488947704  CLST         238          1.0000000000
       714       238  TIP3  H2            0.3973929145        5.0814184961        8.1970837137  CLST         238          1.0000000000
       715       239  TIP3  OH2         -14.1522597879        5.8726792650        3.5755755001  CLST         239          1.0000000000
       716       239  TIP3  H1          -14.1325177628        6.3632440888        2.7472130632  CLST         239          1.0000000000
       717       239  TIP3  H2          -13.5611097186        5.1500564089        3.3067496136  CLST         239          1.0000000000
       718       240  TIP3  OH2         -14.1497879765        8.9453576981       -0.2712277247  CLST         240          1.0000000000
       719       240  TIP3  H1          -14.9185103017        9.0386259532        0.2693301575  CLST         240          1.0000000000
       720       240  TIP3  H2          -13.9448507469        7.9727039486       -0.0137805597  CLST         240          1.0000000000
       721       241  TIP3  OH2          -7.6739512826       -7.8481403457       -8.5768413527  CLST         241          1.0000000000
       722       241  TIP3  H1           -8.0260099439       -7.9806276397       -7.6578778942  CLST         241          1.0000000000
       723       241  TIP3  H2           -7.3683181493       -6.9135221423       -8.4130869579  CLST         241          1.0000000000
       724       242  TIP3  OH2           6.0811975307       -5.7343323682        9.5611528909  CLST         242          1.0000000000
       725       242  TIP3  H1            6.6937499617       -4.9974048639        9.2750829894  CLST         242          1.0000000000
       726       242  TIP3  H2            6.7648829380       -6.4536610430        9.3920745246  CLST         242          1.0000000000
       727       243  TIP3  OH2          -6.7111077202       -7.1147496044       -4.3235261938  CLST         243          1.0000000000
       728       243  TIP3  H1           -6.1952626167       -7.8775503820       -4.5965917753  CLST         243          1.0000000000
       729       243  TIP3  H2           -6.7683907831       -7.4610783665       -3.3731095437  CLST         243          1.0000000000
       730       244  TIP3  OH2           4.9155888191        5.8610145024        5.4182274650  CLST         244          1.0000000000
       731       244  TIP3  H1            5.3347684852        5.4412097413        4.6513167952  CLST         244          1.0000000000
       732       244  TIP3  H2            4.1473954456        5.2779571436        5.5357211707  CLST         244          1.0000000000
       733       245  TIP3  OH2          -7.0474577664        3.7280466374       -7.7114721403  CLST         245          1.0000000000
       734       245  TIP3  H1           -6.9307365910        3.1262644873       -6.9197953877  CLST         245          1.0000000000
       735       245  TIP3  H2           -7.3213499344        4.5120352518       -7.2264615432  CLST         245          1.0000000000
       736       246  TIP3  OH2           2.1034278300       -6.6404170542       -1.8793572040  CLST         246          1.0000000000
       737       246  TIP3  H1            2.0696712276       -5.9591394791       -2.6386208559  CLST         246          1.0000000000
       738       246  TIP3  H2            3.0735849845       -6.6781368531       -1.6918663104  CLST         246          1.0000000000
       739       247  TIP3  OH2           6.0099339815        7.9802773698        0.7095413764  CLST         247          1.0000000000
       740       247  TIP3  H1            6.2508272823        7.6814327871       -0.2070634686  CLST         247          1.0000000000
       741       247  TIP3  H2            5.8542725779        8.9570036613        0.5480077010  CLST         247          1.0000000000
       742       248  TIP3  OH2          -2.4275264863        8.3502567531      -11.9933615551  CLST         248          1.0000000000
       743       248  TIP3  H1           -2.3407155666        8.7916715969      -12.8483829074  CLST         248          1.0000000000
       744       248  TIP3  H2           -2.0623260979        9.1042341495      -11.4359799328  CLST         248          1.0000000000
       745       249  TIP3  OH2           8.8029807719        4.6293647082       -7.8254314023  CLST         249          1.0000000000
       746       249  TIP3  H1            8.3164977333        5.3044777547       -7.2904758585  CLST         249          1.0000000000
       747       249  TIP3  H2            8.4846549902        3.8403073362       -7.3700373658  CLST         249          1.0000000000
       748       250  TIP3  OH2          -7.5789596206        9.6820769654       -5.3909746996  CLST         250          1.0000000000
       749       250  TIP3  H1           -7.4927466327        8.9195746574       -5.9753882180  CLST         250          1.0000000000
       750       250  TIP3  H2           -8.0134806802       10.3214070099       -5.9541606685  CLST         250          1.0000000000
       751       251  TIP3  OH2          -3.6362196798       12.4952157300        3.0326907028  CLST         251          1.0000000000
       752       251  TIP3  H1           -3.0685486127       13.0275345809        2.5510620409  CLST         251          1.0000000000
       753       251  TIP3  H2           -3.0884527400       12.4176499421        3.9023404429  CLST         251          1.0000000000
       754       252  TIP3  OH2           5.8482851742        5.2454200513       14.6721580255  CLST         252          1.0000000000
       755       252  TIP3  H1            5.6729182572        6.1625771812       14.5976202481  CLST         252          1.0000000000
       756       252  TIP3  H2            5.4930181547        5.0958524025       15.5002484611  CLST         252          1.0000000000
       757       253  TIP3  OH2           6.0782791450       13.9648098123        3.2874816765  CLST         253          1.0000000000
       758       253  TIP3  H1            5.1869548923       13.8157234960        3.6357030824  CLST         253          1.0000000000
       759       253  TIP3  H2            5.7771420502       14.0734218985        2.3690244085  CLST         253          1.0000000000
       760       254  TIP3  OH2          -4.2162417539        8.1192037907        3.0325060409  CLST         254          1.0000000000
       761       254  TIP3  H1           -4.5522393352        9.0232561637        2.8116427914  CLST         254          1.0000000000
       762       254  TIP3  H2           -5.0957685201        7.6928998193        2.9951372572  CLST         254          1.0000000000
       763       255  TIP3  OH2          -7.0054607633       10.3965458898        4.3069879230  CLST         255          1.0000000000
       764       255  TIP3  H1           -7.9841699326       10.5983327382        4.2826931955  CLST         255          1.0000000000
       765       255  TIP3  H2           -7.0527991356        9.6521954890        4.9835917489  CLST         255          1.0000000000
       766       256  TIP3  OH2          11.5569352373        3.7561866555       -1.3292335156  CLST         256          1.0000000000
       767       256  TIP3  H1           11.9238891692        3.0601948625       -1.8889379701  CLST         256          1.0000000000
       768       256  TIP3  H2           11.2514609827        3.2362323265       -0.5639626809  CLST         256          1.0000000000
       769       257  TIP3  OH2          -8.4849448796       -1.2518828858       -4.9647189664  CLST         257          1.0000000000
       770       257  TIP3  H1           -7.6499690678       -0.9469629051       -4.5354614351  CLST         257          1.0000000000
       771       257  TIP3  H2           -8.2477022983       -1.0786679977       -5.8959778741  CLST         257          1.0000000000
       772       258  TIP3  OH2          -5.3954349481       10.0935410094        7.7435534448  CLST         258          1.0000000000
       773       258  TIP3  H1           -5.3872715962       10.8226536946        7.0557346048  CLST         258          1.0000000000
       774       258  TIP3  H2           -6.0555870596       10.5398835795        8.3235427342  CLST         258          1.0000000000
       775       259  TIP3  OH2          10.1396133818        6.1631518277        0.8593135346  CLST         259          1.0000000000
       776       259  TIP3  H1           10.9810260390        6.6782984380        1.0548199679  CLST         259          1.0000000000
       777       259  TIP3  H2            9.7555557553        6.2768794624        1.7524427692  CLST         259          1.0000000000
       778       260  TIP3  OH2          -4.9766800292        7.6935751945        8.8958529967  CLST         260          1.0000000000
       779       260  TIP3  H1           -5.2081220805        8.4582156572        8.3130086355  CLST         260          1.0000000000
       780       260  TIP3  H2           -5.8676189169        7.3245396960        9.0044510077  CLST         260          1.0000000000
       781       261  TIP3  OH2           0.6700875769       -4.3149777586       12.5453870952  CLST         261          1.0000000000
       782       261  TIP3  H1            0.2688307111       -5.2612422068       12.4699134207  CLST         261          1.0000000000
       783       261  TIP3  H2            1.3438813415       -4.4755834951       13.1693393947  CLST         261          1.0000000000
       784       262  TIP3  OH2         -11.0173135949        4.8055095658        5.9911192394  CLST         262          1.0000000000
       785       262  TIP3  H1          -10.3200146390        4.7207188572        5.2770150898  CLST         262          1.0000000000
       786       262  TIP3  H2          -11.7659705474        5.1399349535        5.5182847061  CLST         262          1.0000000000
       787       263  TIP3  OH2           1.7345504046        0.9216088599        6.7052850657  CLST         263          1.0000000000
       788       263  TIP3  H1            2.2019251918        1.7295063833        6.3842300261  CLST         263          1.0000000000
       789       263  TIP3  H2            2.4117654371        0.3666391837        7.1395009753  CLST         263          1.0000000000
       790       264  TIP3  OH2           5.1645193775       -4.3814766424       -9.7185184367  CLST         264          1.0000000000
       791       264  TIP3  H1            4.9213680151       -5.3505472630       -9.8887642047  CLST         264          1.0000000000
       792       264  TIP3  H2            4.4661807277       -3.9654558660      -10.2429564063  CLST         264          1.0000000000
       793       265  TIP3  OH2           7.4980623220        4.8697336550      -10.1683192840  CLST         265          1.0000000000
       794       265  TIP3  H1            7.6613698367        5.7202041935      -10.6002923062  CLST         265          1.0000000000
       795       265  TIP3  H2            8.1831604395        4.8823151615       -9.2065120131  CLST         265          1.0000000000
       796       266  TIP3  OH2          -7.9540531365       -8.7868763565        0.0646715084  CLST         266          1.0000000000
       797       266  TIP3  H1           -7.9439105242       -9.0392500997        0.9987905475  CLST         266          1.0000000000
       798       266  TIP3  H2           -8.2598184895       -7.8446611636        0.1592967477  CLST         266          1.0000000000
       799       267  TIP3  OH2           1.2764444498        2.6728584818       -5.1546332403  CLST         267          1.0000000000
       800       267  TIP3  H1            1.5866255187        3.3616906344       -4.4959610956  CLST         267          1.0000000000
       801       267  TIP3  H2            1.9469571312        1.9841928115       -4.8895227474  CLST         267          1.0000000000
       802       268  TIP3  OH2           5.1195032597       -4.5649861664       -6.9042328835  CLST         268          1.0000000000
       803       268  TIP3  H1            5.1533266973       -4.3891384060       -7.8860206927  CLST         268          1.0000000000
       804       268  TIP3  H2            4.8101726237       -5.4946125993       -6.8700547516  CLST         268          1.0000000000
       805       269  TIP3  OH2           5.5186240385       10.7519931574       -0.1673588054  CLST         269          1.0000000000
       806       269  TIP3  H1            6.4549494567       10.6576262534       -0.5382990582  CLST         269          1.0000000000
       807       269  TIP3  H2            5.7239200458       11.6687100625        0.1936680115  CLST         269          1.0000000000
       808       270  TIP3  OH2           1.2308389140        9.3654722282       -7.9958416926  CLST         270          1.0000000000
       809       270  TIP3  H1            1.4053992588        8.5409731348       -8.4634079594  CLST         270          1.0000000000
       810       270  TIP3  H2            0.7817545175        8.9399647801       -7.1591033221  CLST         270          1.0000000000
       811       271  TIP3  OH2          -6.4317436515       -9.0599515857       -2.1991767673  CLST         271          1.0000000000
       812       271  TIP3  H1           -5.6575575832       -9.1592732695       -1.6422383464  CLST         271          1.0000000000
       813       271  TIP3  H2           -7.0773519551       -8.9858495326       -1.4248431935  CLST         271          1.0000000000
       814       272  TIP3  OH2           9.4620345225       -8.2441269954        5.7060008800  CLST         272          1.0000000000
       815       272  TIP3  H1            8.4536728365       -8.1924831037        5.7032732086  CLST         272          1.0000000000
       816       272  TIP3  H2            9.5789253031       -7.7405477804        4.8293374070  CLST         272          1.0000000000
       817       273  TIP3  OH2         -13.9587607830        9.3925587894        3.3137999388  CLST         273          1.0000000000
       818       273  TIP3  H1          -14.5086082836        9.6914577965        4.0988315051  CLST         273          1.0000000000
       819       273  TIP3  H2          -13.5065202654        8.7319026612        3.8773686933  CLST         273          1.0000000000
       820       274  TIP3  OH2           4.1347158764       13.0310244802       -4.1160708450  CLST         274          1.0000000000
       821       274  TIP3  H1            3.4849931194       12.0715282677       -2.9305062207  CLST         274          1.0000000000
       822       274  TIP3  H2            4.2173182682       13.8011755052       -3.2708023738  CLST         274          1.0000000000
       823       275  TIP3  OH2           8.7705443665      -11.1439069598        5.9147419011  CLST         275          1.0000000000
       824       275  TIP3  H1            9.2144290379      -10.2981686001        6.0111975034  CLST         275          1.0000000000
       825       275  TIP3  H2            9.4179292819      -11.8283848465        5.6875027818  CLST         275          1.0000000000
       826       276  TIP3  OH2          -0.1747019256       -5.9160674078        1.3971106210  CLST         276          1.0000000000
       827       276  TIP3  H1           -0.7349156820       -6.2043587370        0.6735183745  CLST         276          1.0000000000
       828       276  TIP3  H2           -0.7682266600       -5.1844230560        1.7060572001  CLST         276          1.0000000000
       829       277  TIP3  OH2           6.4970576378        6.4526126890       -6.8873232288  CLST         277          1.0000000000
       830       277  TIP3  H1            5.9173184631        5.7915185757       -7.2536478398  CLST         277          1.0000000000
       831       277  TIP3  H2            6.5681416803        7.2399309972       -7.4410475755  CLST         277          1.0000000000
       832       278  TIP3  OH2          -0.6012959149       -7.6364326618        3.4538973455  CLST         278          1.0000000000
       833       278  TIP3  H1           -0.3974514426       -7.0175851996        2.6955490783  CLST         278          1.0000000000
       834       278  TIP3  H2           -0.7674838555       -6.9160545694        4.1162127638  CLST         278          1.0000000000
       835       279  TIP3  OH2         -13.6111150500        6.4924217492        0.4022334955  CLST         279          1.0000000000
       836       279  TIP3  H1          -13.8864611577        5.5588787152        0.2381915767  CLST         279          1.0000000000
       837       279  TIP3  H2          -12.6723160206        6.3593913964        0.6573137902  CLST         279          1.0000000000
       838       280  TIP3  OH2          -3.2908172590      -10.0711117504        5.5419885493  CLST         280          1.0000000000
       839       280  TIP3  H1           -3.3963626645       -9.1182271816        5.8019249987  CLST         280          1.0000000000
       840       280  TIP3  H2           -3.6641557638       -9.9236677274        4.6531838008  CLST         280          1.0000000000
       841       281  TIP3  OH2           8.0464466744        7.8252542328      -10.7057598546  CLST         281          1.0000000000
       842       281  TIP3  H1            8.5106327126        8.6870343399      -10.6439239636  CLST         281          1.0000000000
       843       281  TIP3  H2            7.1128136214        8.1573049740      -10.8272337967  CLST         281          1.0000000000
       844       282  TIP3  OH2          -7.8753777174      -11.7383872090        9.8957580099  CLST         282          1.0000000000
       845       282  TIP3  H1           -8.6858287316      -11.5146370455        9.4858746663  CLST         282          1.0000000000
       846       282  TIP3  H2           -7.4025878582      -12.1727899559        9.1404750624  CLST         282          1.0000000000
       847       283  TIP3  OH2           4.4731129449        8.5575178862       -4.6351722150  CLST         283          1.0000000000
       848       283  TIP3  H1            4.6518225531        9.5319398345       -4.7466634521  CLST         283          1.0000000000
       849       283  TIP3  H2            3.9546648256        8.4865336428       -3.8050431191  CLST         283          1.0000000000
       850       284  TIP3  OH2          11.9005591125        8.4233048036       -1.4332294102  CLST         284          1.0000000000
       851       284  TIP3  H1           11.8712965018        7.7987443791       -2.1554768235  CLST         284          1.0000000000
       852       284  TIP3  H2           11.0890101445        8.9484450451       -1.6236405478  CLST         284          1.0000000000
       853       285  TIP3  OH2          -5.3262672715        1.8397015808        8.9323532146  CLST         285          1.0000000000
       854       285  TIP3  H1           -4.4916664604        1.6408157894        8.4159995898  CLST         285          1.0000000000
       855       285  TIP3  H2           -4.8715305668        2.5465408988        9.4752455918  CLST         285          1.0000000000
       856       286  TIP3  OH2           2.9944861984        5.8042394033       -0.6168804871  CLST         286          1.0000000000
       857       286  TIP3  H1            2.3148943757        5.7234663818        0.0622569943  CLST         286          1.0000000000
       858       286  TIP3  H2            3.7835780382        5.8517714816        0.0050435743  CLST         286          1.0000000000
       859       287  TIP3  OH2          -4.3684453461        9.3601013121       11.1623418828  CLST         287          1.0000000000
       860       287  TIP3  H1           -4.8147902008       10.0720340804       11.6763748564  CLST         287          1.0000000000
       861       287  TIP3  H2           -5.0625079082        8.9080306384       10.6615866730  CLST         287          1.0000000000
       862       288  TIP3  OH2           5.6921292721        3.7307175430       -9.5206412130  CLST         288          1.0000000000
       863       288  TIP3  H1            5.6441436451        3.0842149898      -10.1912233460  CLST         288          1.0000000000
       864       288  TIP3  H2            6.3963995614        4.3360493695       -9.9085234300  CLST         288          1.0000000000
       865       289  TIP3  OH2          -7.1025243970       -5.0873755167       -8.3203336468  CLST         289          1.0000000000
       866       289  TIP3  H1           -7.8511847060       -4.4475689086       -8.2238309336  CLST         289          1.0000000000
       867       289  TIP3  H2           -6.4408235184       -4.7159482732       -7.7686740082  CLST         289          1.0000000000
       868       290  TIP3  OH2           2.2328933176      -11.9638471191       11.1371515613  CLST         290          1.0000000000
       869       290  TIP3  H1            2.7737595996      -12.6453611769       10.7869634190  CLST         290          1.0000000000
       870       290  TIP3  H2            2.7723505608      -11.4807268963       11.7687203654  CLST         290          1.0000000000
       871       291  TIP3  OH2         -10.3149018169       -3.4573679911        2.8471262268  CLST         291          1.0000000000
       872       291  TIP3  H1          -11.0946358907       -3.9925922076        3.1221312227  CLST         291          1.0000000000
       873       291  TIP3  H2          -10.2214306782       -3.6188661896        1.9359790121  CLST         291          1.0000000000
       874       292  TIP3  OH2          12.2089997502        3.5725871215       -4.6797783682  CLST         292          1.0000000000
       875       292  TIP3  H1           11.2588414782        3.3127944091       -4.5047250320  CLST         292          1.0000000000
       876       292  TIP3  H2           12.1311423278        4.0499224408       -5.5190218535  CLST         292          1.0000000000
       877       293  TIP3  OH2           9.0261788946       10.6791430950       11.1257917028  CLST         293          1.0000000000
       878       293  TIP3  H1            9.0257669337       11.4854344283       11.6467650452  CLST         293          1.0000000000
       879       293  TIP3  H2            9.0648867831       11.1118518776       10.2061561984  CLST         293          1.0000000000
       880       294  TIP3  OH2           4.2510096048        4.4649659642       -2.3482729346  CLST         294          1.0000000000
       881       294  TIP3  H1            3.7879945254        4.9960135794       -1.6320885832  CLST         294          1.0000000000
       882       294  TIP3  H2            4.2446265786        5.0927042102       -3.1042127922  CLST         294          1.0000000000
       883       295  TIP3  OH2          -2.4627853834      -13.4942792663       -8.6479155287  CLST         295          1.0000000000
       884       295  TIP3  H1           -3.0942808795      -13.1996085928       -7.9536366650  CLST         295          1.0000000000
       885       295  TIP3  H2           -1.5919175291      -13.5473412257       -8.2329389771  CLST         295          1.0000000000
       886       296  TIP3  OH2          -1.6267678616       11.5021131662      -12.9630528456  CLST         296          1.0000000000
       887       296  TIP3  H1           -0.7726369027       11.0603430648      -13.2261325803  CLST         296          1.0000000000
       888       296  TIP3  H2           -1.5985355084       11.2691191359      -12.0252311163  CLST         296          1.0000000000
       889       297  TIP3  OH2           8.0139084722       -0.5058601272       11.3681075342  CLST         297          1.0000000000
       890       297  TIP3  H1            8.5150570746       -1.2891210779       11.0668423138  CLST         297          1.0000000000
       891       297  TIP3  H2            7.1927783491       -0.9789414861       11.6556099786  CLST         297          1.0000000000
       892       298  TIP3  OH2           1.0739563864       -1.3161811166       -7.4475415489  CLST         298          1.0000000000
       893       298  TIP3  H1            1.4252705474       -0.6559732534       -8.1424632362  CLST         298          1.0000000000
       894       298  TIP3  H2            0.8173732575       -2.0322581879       -8.1295552397  CLST         298          1.0000000000
       895       299  TIP3  OH2           2.9734082446       10.2850006760       12.8574088555  CLST         299          1.0000000000
       896       299  TIP3  H1            2.1909922210       10.6836155852       12.3695390273  CLST         299          1.0000000000
       897       299  TIP3  H2            2.4754034421        9.5413644042       13.1205706826  CLST         299          1.0000000000
       898       300  TIP3  OH2         -10.8280194550        5.2747190832       -3.7471623314  CLST         300          1.0000000000
       899       300  TIP3  H1          -10.6044610009        5.7152023187       -4.5947299492  CLST         300          1.0000000000
       900       300  TIP3  H2          -10.9708980542        6.1233645552       -3.2226477680  CLST         300          1.0000000000
       901       301  TIP3  OH2           9.6381013440       -8.2127557856       11.3028257862  CLST         301          1.0000000000
       902       301  TIP3  H1            9.4224566836       -7.9669105784       12.2302553479  CLST         301          1.0000000000
       903       301  TIP3  H2            9.5855724632       -9.2057257479       11.3682746114  CLST         301          1.0000000000
       904       302  TIP3  OH2           7.7533639934       12.7984851318        5.5290006246  CLST         302          1.0000000000
       905       302  TIP3  H1            7.5182539247       13.1721143059        4.6497477372  CLST         302          1.0000000000
       906       302  TIP3  H2            6.9619969118       12.2536034738        5.6290470244  CLST         302          1.0000000000
       907       303  TIP3  OH2         -10.9090799511        1.3278010117       -1.9890237290  CLST         303          1.0000000000
       908       303  TIP3  H1           -9.9361313677        1.3669390583       -1.8179052908  CLST         303          1.0000000000
       909       303  TIP3  H2          -10.9607515991        0.6233203380       -2.6929580397  CLST         303          1.0000000000
       910       304  TIP3  OH2          -8.0388764491        1.2876309715      -15.0324039034  CLST         304          1.0000000000
       911       304  TIP3  H1           -7.5106419133        0.5028862303      -14.6687807577  CLST         304          1.0000000000
       912       304  TIP3  H2           -7.6013990483        1.6285855879      -15.7382087434  CLST         304          1.0000000000
       913       305  TIP3  OH2           3.3710212490       -3.9259320726       13.8987355630  CLST         305          1.0000000000
       914       305  TIP3  H1            4.0622584800       -4.2428775772       13.3064882939  CLST         305          1.0000000000
       915       305  TIP3  H2            3.8142063062       -3.1098418834       14.0812837204  CLST         305          1.0000000000
       916       306  TIP3  OH2           8.8429026993      -12.0049178885      -11.3219990940  CLST         306          1.0000000000
       917       306  TIP3  H1            9.6535400776      -11.7741686201      -11.8536854924  CLST         306          1.0000000000
       918       306  TIP3  H2            9.0128160419      -12.5891618887      -10.6969257375  CLST         306          1.0000000000
       919       307  TIP3  OH2           9.2473484738        7.9559002946       -7.5114248128  CLST         307          1.0000000000
       920       307  TIP3  H1            8.4910201440        8.5570044303       -7.7234536768  CLST         307          1.0000000000
       921       307  TIP3  H2            9.3721643057        8.1149148187       -6.5497662687  CLST         307          1.0000000000
       922       308  TIP3  OH2         -10.8400340646       -4.8780662673        8.7983718472  CLST         308          1.0000000000
       923       308  TIP3  H1          -10.8061073455       -5.7342614189        9.3574869258  CLST         308          1.0000000000
       924       308  TIP3  H2           -9.9167587579       -4.5404470552        9.0041109157  CLST         308          1.0000000000
       925       309  TIP3  OH2          -1.8999586772       -0.5451408484        5.5034220273  CLST         309          1.0000000000
       926       309  TIP3  H1           -2.7366644649       -0.9024178422        5.1025531747  CLST         309          1.0000000000
       927       309  TIP3  H2           -1.7778270672       -1.2710560216        6.1654888768  CLST         309          1.0000000000
       928       310  TIP3  OH2          -5.0936647742       -0.5853965906        7.2506040308  CLST         310          1.0000000000
       929       310  TIP3  H1           -4.3892365270        0.0781993522        7.4013615998  CLST         310          1.0000000000
       930       310  TIP3  H2           -5.1343538096       -1.0399486818        8.1278727688  CLST         310          1.0000000000
       931       311  TIP3  OH2          -7.1995304376        8.4404767188      -12.3414561161  CLST         311          1.0000000000
       932       311  TIP3  H1           -6.5061432223        7.7286219436      -12.7314104149  CLST         311          1.0000000000
       933       311  TIP3  H2           -7.2217110395        8.0609098256      -11.4709216707  CLST         311          1.0000000000
       934       312  TIP3  OH2           6.5207470207       -0.7740703233       -6.3394160517  CLST         312          1.0000000000
       935       312  TIP3  H1            6.2444161940       -0.1459333528       -5.6342262715  CLST         312          1.0000000000
       936       312  TIP3  H2            6.2994210623       -1.5913803660       -5.8535036977  CLST         312          1.0000000000
       937       313  TIP3  OH2          -8.8886977411      -10.6252518001        7.1604601027  CLST         313          1.0000000000
       938       313  TIP3  H1           -8.2024198801       -9.9225261515        7.1082516200  CLST         313          1.0000000000
       939       313  TIP3  H2           -9.2192577923      -10.6367437266        6.2263795992  CLST         313          1.0000000000
       940       314  TIP3  OH2          -1.4176265535      -12.1791447344      -10.8958893688  CLST         314          1.0000000000
       941       314  TIP3  H1           -1.4553821747      -11.3220977880      -10.3800962225  CLST         314          1.0000000000
       942       314  TIP3  H2           -1.8653469330      -12.7534735425      -10.2541566784  CLST         314          1.0000000000
       943       315  TIP3  OH2          -1.3210669848       -0.6782697032       -6.4463249713  CLST         315          1.0000000000
       944       315  TIP3  H1           -0.4180375970       -0.8495570202       -6.8122517631  CLST         315          1.0000000000
       945       315  TIP3  H2           -1.0903153785       -0.1410126235       -5.6244308233  CLST         315          1.0000000000
       946       316  TIP3  OH2         -13.2414951856       -3.9371030189       -5.4448483370  CLST         316          1.0000000000
       947       316  TIP3  H1          -12.5401818382       -4.2252341987       -6.1003364715  CLST         316          1.0000000000
       948       316  TIP3  H2          -12.9532170952       -2.9727629185       -5.5038777498  CLST         316          1.0000000000
       949       317  TIP3  OH2          -6.2007214751        0.0693287575       -3.7680930441  CLST         317          1.0000000000
       950       317  TIP3  H1           -5.3336037959        0.0545069096       -3.2305721535  CLST         317          1.0000000000
       951       317  TIP3  H2           -6.7659611385        0.2013033755       -2.9537826609  CLST         317          1.0000000000
       952       318  TIP3  OH2          -3.9975393539       -9.6783321407       -9.4062664988  CLST         318          1.0000000000
       953       318  TIP3  H1           -4.1021994185       -9.9187257557       -8.4428541011  CLST         318          1.0000000000
       954       318  TIP3  H2           -3.0035971110       -9.5727721895       -9.5011993906  CLST         318          1.0000000000
       955       319  TIP3  OH2           5.6921568982       10.6783993457        8.6157358877  CLST         319          1.0000000000
       956       319  TIP3  H1            6.4888121875       10.5127934039        8.0656191107  CLST         319          1.0000000000
       957       319  TIP3  H2            5.9288094857       11.3888372620        9.2203233355  CLST         319          1.0000000000
       958       320  TIP3  OH2         -10.6417003175        1.0823418565      -14.6312840460  CLST         320          1.0000000000
       959       320  TIP3  H1           -9.6762850490        1.0997714181      -14.9005667646  CLST         320          1.0000000000
       960       320  TIP3  H2          -10.6061602994        0.2090347380      -14.2070748572  CLST         320          1.0000000000
       961       321  TIP3  OH2          -9.8354085325       10.2307938788       -9.7682022489  CLST         321          1.0000000000
       962       321  TIP3  H1          -10.6193913154        9.9417327611       -9.6480596700  CLST         321          1.0000000000
       963       321  TIP3  H2           -9.7873058980       10.2138317877      -10.8213068700  CLST         321          1.0000000000
       964       322  TIP3  OH2         -12.6886746101       -1.6968722140       -2.3553643090  CLST         322          1.0000000000
       965       322  TIP3  H1          -12.4298931616       -1.2398321933       -3.1746473244  CLST         322          1.0000000000
       966       322  TIP3  H2          -11.7666355908       -1.7382507627       -1.9862677527  CLST         322          1.0000000000
       967       323  TIP3  OH2          -1.1226207255        3.9329518233        4.2962455120  CLST         323          1.0000000000
       968       323  TIP3  H1           -0.4387466049        3.2226195138        4.2630791200  CLST         323          1.0000000000
       969       323  TIP3  H2           -1.1587120663        4.1211883491        3.3244962766  CLST         323          1.0000000000
       970       324  TIP3  OH2         -10.9622125022        6.2372383388        1.5075473090  CLST         324          1.0000000000
       971       324  TIP3  H1          -11.1928482707        5.6623466468        2.2899033206  CLST         324          1.0000000000
       972       324  TIP3  H2          -10.1893991701        6.6697487581        1.9197903826  CLST         324          1.0000000000
       973       325  TIP3  OH2          -4.6418681333        0.8688473255        3.5939312524  CLST         325          1.0000000000
       974       325  TIP3  H1           -5.6619327493        0.8534255130        3.5916325801  CLST         325          1.0000000000
       975       325  TIP3  H2           -4.4980304374        1.7722266630        3.3574824087  CLST         325          1.0000000000
       976       326  TIP3  OH2           9.1553181265        8.6075194993       -2.7636993118  CLST         326          1.0000000000
       977       326  TIP3  H1            9.0987794477        7.9661367836       -2.0136780344  CLST         326          1.0000000000
       978       326  TIP3  H2            8.2551249385        8.4778563742       -3.1111054282  CLST         326          1.0000000000
       979       327  TIP3  OH2          10.4288042751       -3.6686244950      -13.0588283851  CLST         327          1.0000000000
       980       327  TIP3  H1           10.5297154902       -3.5488069534      -13.8788515704  CLST         327          1.0000000000
       981       327  TIP3  H2           10.2209818088       -2.9269634495      -12.4453663900  CLST         327          1.0000000000
       982       328  TIP3  OH2           2.2199688831        6.9733731776       -9.8689245747  CLST         328          1.0000000000
       983       328  TIP3  H1            2.4202557166        6.1858267033       -9.3366917092  CLST         328          1.0000000000
       984       328  TIP3  H2            3.1357586917        7.2893495888       -9.8790183903  CLST         328          1.0000000000
       985       329  TIP3  OH2           1.4964640731      -11.7707699341       -2.3448176882  CLST         329          1.0000000000
       986       329  TIP3  H1            1.5743863705      -10.7782853381       -2.5355139138  CLST         329          1.0000000000
       987       329  TIP3  H2            2.3743104335      -11.7884311191       -1.8607275109  CLST         329          1.0000000000
       988       330  TIP3  OH2          -9.3135752741       -1.0611155453        3.4623709849  CLST         330          1.0000000000
       989       330  TIP3  H1           -9.7019837772       -1.9775899617        3.2896082572  CLST         330          1.0000000000
       990       330  TIP3  H2          -10.0916915613       -0.6672759376        3.8625073934  CLST         330          1.0000000000
       991       331  TIP3  OH2          12.4416318030        9.7561396171       -9.0465221588  CLST         331          1.0000000000
       992       331  TIP3  H1           13.1447787649        9.5913565443       -9.7002332427  CLST         331          1.0000000000
       993       331  TIP3  H2           12.0071215196        8.8771316864       -9.1394952007  CLST         331          1.0000000000
       994       332  TIP3  OH2          11.3751242828       -1.2589789948       -4.5939772092  CLST         332          1.0000000000
       995       332  TIP3  H1           12.2954656211       -1.5193356883       -4.8937289439  CLST         332          1.0000000000
       996       332  TIP3  H2           11.6901118256       -0.4554405896       -4.1217634742  CLST         332          1.0000000000
       997       333  TIP3  OH2          10.5584530454      -14.2360000224        7.9984382483  CLST         333          1.0000000000
       998       333  TIP3  H1            9.7542488933      -13.7298126975        8.2280541579  CLST         333          1.0000000000
       999       333  TIP3  H2           10.5491340951      -14.0790534294        7.0470881148  CLST         333          1.0000000000
      1000       334  TIP3  OH2         -10.7108319669       -9.6288431608        9.1472878087  CLST         334          1.0000000000
      1001       334  TIP3  H1          -11.4771825921      -10.0989645706        8.7622700901  CLST         334          1.0000000000
      1002       334  TIP3  H2          -10.0961093161       -9.8679422769        8.4193983306  CLST         334          1.0000000000
      1003       335  TIP3  OH2           6.9004116967       -9.9874670204        1.4393730778  CLST         335          1.0000000000
      1004       335  TIP3  H1            6.7989443161       -9.9400846421        2.4231981033  CLST         335          1.0000000000
      1005       335  TIP3  H2            5.9851303316      -10.1532847460        1.1811650584  CLST         335          1.0000000000
      1006       336  TIP3  OH2          -9.2860873923       -3.6894576685       -3.5839464312  CLST         336          1.0000000000
      1007       336  TIP3  H1           -9.6704227543       -4.4996550996       -3.9755306909  CLST         336          1.0000000000
      1008       336  TIP3  H2           -9.1921407786       -3.2108950263       -4.4356451144  CLST         336          1.0000000000
      1009       337  TIP3  OH2          -1.6034268650       -4.8687667319        8.1341705209  CLST         337          1.0000000000
      1010       337  TIP3  H1           -1.4004898430       -4.3912573666        8.9814398220  CLST         337          1.0000000000
      1011       337  TIP3  H2           -2.1862073535       -4.0957881864        7.8313570323  CLST         337          1.0000000000
      1012       338  TIP3  OH2          -0.5373812134        2.6727428809       10.7789295734  CLST         338          1.0000000000
      1013       338  TIP3  H1           -0.7043396219        2.4967914149        9.8032508644  CLST         338          1.0000000000
      1014       338  TIP3  H2           -0.0728759847        1.8691922765       11.0359389910  CLST         338          1.0000000000
      1015       339  TIP3  OH2           7.9426804830        7.9639471183        2.7495236398  CLST         339          1.0000000000
      1016       339  TIP3  H1            7.5896879183        8.6527235076        3.3426241004  CLST         339          1.0000000000
      1017       339  TIP3  H2            7.2718560317        7.7239286783        2.0651772195  CLST         339          1.0000000000
      1018       340  TIP3  OH2          -4.5503547977      -11.7004349678      -11.1799228862  CLST         340          1.0000000000
      1019       340  TIP3  H1           -4.3437002026      -11.0370738089      -10.4696515108  CLST         340          1.0000000000
      1020       340  TIP3  H2           -4.2286234404      -12.5107687024      -10.8949379139  CLST         340          1.0000000000
      1021       341  TIP3  OH2          -6.7452380569        4.7099225276        9.3282183325  CLST         341          1.0000000000
      1022       341  TIP3  H1           -5.8885862250        4.6027626439        9.7765885844  CLST         341          1.0000000000
      1023       341  TIP3  H2           -6.8982709568        3.7747483272        9.1055514847  CLST         341          1.0000000000
      1024       342  TIP3  OH2          -4.5217163513      -11.0402103843       13.9307653125  CLST         342          1.0000000000
      1025       342  TIP3  H1           -5.2697461132      -11.1009893395       13.3008933795  CLST         342          1.0000000000
      1026       342  TIP3  H2           -4.7896434319      -10.7448862565       14.7324331356  CLST         342          1.0000000000
      1027       343  TIP3  OH2           1.4445771364       -9.0504311567       -9.9286887347  CLST         343          1.0000000000
      1028       343  TIP3  H1            1.5388180758       -8.1448264486      -10.3609160489  CLST         343          1.0000000000
      1029       343  TIP3  H2            1.7563531907       -9.6393692802      -10.6488015200  CLST         343          1.0000000000
      1030       344  TIP3  OH2           5.5867363073       -4.0160823856        6.3853336407  CLST         344          1.0000000000
      1031       344  TIP3  H1            4.9831232850       -4.5772520509        6.9205191013  CLST         344          1.0000000000
      1032       344  TIP3  H2            6.1686336575       -4.6536034991        5.8789171794  CLST         344          1.0000000000
      1033       345  TIP3  OH2          13.2588166284        7.2319008211        8.9058913109  CLST         345          1.0000000000
      1034       345  TIP3  H1           12.5646981751        6.6932216714        8.5118766007  CLST         345          1.0000000000
      1035       345  TIP3  H2           12.7458124764        7.3849147170        9.7551502234  CLST         345          1.0000000000
      1036       346  TIP3  OH2           9.5300849863        9.2896316814        0.9891343895  CLST         346          1.0000000000
      1037       346  TIP3  H1            9.7541513236       10.0625507341        1.5794306226  CLST         346          1.0000000000
      1038       346  TIP3  H2            8.9182465255        8.7889628012        1.5996599546  CLST         346          1.0000000000
      1039       347  TIP3  OH2          -4.9091644795        2.8769933884       -9.7489673063  CLST         347          1.0000000000
      1040       347  TIP3  H1           -5.6574734564        2.9484987027       -9.0925800234  CLST         347          1.0000000000
      1041       347  TIP3  H2           -4.1936625608        2.6921577206       -9.1092673423  CLST         347          1.0000000000
      1042       348  TIP3  OH2          -1.2330292399        6.2366321747        5.8016883495  CLST         348          1.0000000000
      1043       348  TIP3  H1           -1.3990221234        5.4166504344        5.2719559568  CLST         348          1.0000000000
      1044       348  TIP3  H2           -0.5085147653        6.5610856831        5.1681344072  CLST         348          1.0000000000
      1045       349  TIP3  OH2          -4.1768960127        5.1600499655       -2.6892920731  CLST         349          1.0000000000
      1046       349  TIP3  H1           -3.8490427646        4.5838377473       -3.3927892554  CLST         349          1.0000000000
      1047       349  TIP3  H2           -3.4620499620        5.8872196076       -2.7957776593  CLST         349          1.0000000000
      1048       350  TIP3  OH2          -2.6460126671        8.9286627945        5.2019836500  CLST         350          1.0000000000
      1049       350  TIP3  H1           -3.2344165755        8.6568537180        4.4693352932  CLST         350          1.0000000000
      1050       350  TIP3  H2           -2.4887074203        8.0569273735        5.6045242801  CLST         350          1.0000000000
      1051       351  TIP3  OH2           4.8599587323       -7.6364840556       -7.6802511177  CLST         351          1.0000000000
      1052       351  TIP3  H1            4.1881133008       -8.3410228020       -7.6516518999  CLST         351          1.0000000000
      1053       351  TIP3  H2            4.7755741982       -7.4447778372       -8.6439546456  CLST         351          1.0000000000
      1054       352  TIP3  OH2         -10.3266271114      -11.0113806199        1.7197489180  CLST         352          1.0000000000
      1055       352  TIP3  H1           -9.3814348255      -10.8599354097        1.5642100047  CLST         352          1.0000000000
      1056       352  TIP3  H2          -10.8556622674      -10.3765085604        1.1802664495  CLST         352          1.0000000000
      1057       353  TIP3  OH2          10.7682352671       -8.0857865136       -8.6365273835  CLST         353          1.0000000000
      1058       353  TIP3  H1            9.8929999894       -8.5417502357       -8.7479749030  CLST         353          1.0000000000
      1059       353  TIP3  H2           11.0420784208       -8.0111765930       -7.7139305565  CLST         353          1.0000000000
      1060       354  TIP3  OH2           6.8391224199      -10.5315962311        4.0197252903  CLST         354          1.0000000000
      1061       354  TIP3  H1            7.5570291102      -10.8420046102        4.6818727930  CLST         354          1.0000000000
      1062       354  TIP3  H2            6.6276343372       -9.7790394330        4.6651189429  CLST         354          1.0000000000
      1063       355  TIP3  OH2          -7.2449678896        9.0014221897       -8.9730366632  CLST         355          1.0000000000
      1064       355  TIP3  H1           -6.9730382532        9.9283605926       -8.7506242455  CLST         355          1.0000000000
      1065       355  TIP3  H2           -8.1861305725        9.2323140552       -9.1895576034  CLST         355          1.0000000000
      1066       356  TIP3  OH2          12.4716677308        0.9784331252       -2.0882550216  CLST         356          1.0000000000
      1067       356  TIP3  H1           11.4651833679        0.8028371940       -2.1306783066  CLST         356          1.0000000000
      1068       356  TIP3  H2           12.7135227139        0.9265482418       -1.1915972569  CLST         356          1.0000000000
      1069       357  TIP3  OH2          -0.6619884346       -0.5772347085       -1.9229566568  CLST         357          1.0000000000
      1070       357  TIP3  H1            0.2096505511       -1.0901083019       -2.0168359374  CLST         357          1.0000000000
      1071       357  TIP3  H2           -0.7333681649       -0.3875131548       -2.8995105669  CLST         357          1.0000000000
      1072       358  TIP3  OH2          -5.5873960952        6.9892643504       -7.6112615851  CLST         358          1.0000000000
      1073       358  TIP3  H1           -6.0071700662        7.6305196002       -8.2516745970  CLST         358          1.0000000000
      1074       358  TIP3  H2           -6.2892413508        6.4941507109       -7.1840976866  CLST         358          1.0000000000
      1075       359  TIP3  OH2          -5.0958201949       12.2369677076        6.1457349570  CLST         359          1.0000000000
      1076       359  TIP3  H1           -5.3601988309       12.1645282665        5.2063381751  CLST         359          1.0000000000
      1077       359  TIP3  H2           -4.1217664584       12.2539321306        6.0695302964  CLST         359          1.0000000000
      1078       360  TIP3  OH2          -6.9207821108        5.8213434152       -3.3870461352  CLST         360          1.0000000000
      1079       360  TIP3  H1           -7.0175303763        6.3020625731       -2.5412536366  CLST         360          1.0000000000
      1080       360  TIP3  H2           -5.9884998313        5.5407984055       -3.2075031201  CLST         360          1.0000000000
      1081       361  TIP3  OH2          -1.5947031951       -1.0038431237       10.0079627732  CLST         361          1.0000000000
      1082       361  TIP3  H1           -1.6322512980       -0.3607327298       10.7479782223  CLST         361          1.0000000000
      1083       361  TIP3  H2           -1.6991980701       -1.8595427778       10.5269914559  CLST         361          1.0000000000
      1084       362  TIP3  OH2         -10.4812160003        2.8244007457        0.5555840982  CLST         362          1.0000000000
      1085       362  TIP3  H1          -10.5525207906        3.5324924587       -0.1046124551  CLST         362          1.0000000000
      1086       362  TIP3  H2          -10.9557695961        2.1632724879        0.0061465235  CLST         362          1.0000000000
      1087       363  TIP3  OH2          10.5117609810        2.5385548367       10.2565763831  CLST         363          1.0000000000
      1088       363  TIP3  H1           10.8390050287        1.5937853326       10.1971179318  CLST         363          1.0000000000
      1089       363  TIP3  H2           10.9157402680        3.1671518142       10.7899886290  CLST         363          1.0000000000
      1090       364  TIP3  OH2           7.5343780572       -5.6795993742       -6.3422140309  CLST         364          1.0000000000
      1091       364  TIP3  H1            6.7232774504       -5.1834801647       -6.6523748803  CLST         364          1.0000000000
      1092       364  TIP3  H2            8.1017609589       -5.6869150116       -7.1683974861  CLST         364          1.0000000000
      1093       365  TIP3  OH2          -6.1204883264       -6.7804335247        2.6343772717  CLST         365          1.0000000000
      1094       365  TIP3  H1           -6.6686207546       -5.9977279353        2.4333983471  CLST         365          1.0000000000
      1095       365  TIP3  H2           -6.9000756057       -7.2543499135        3.0030775250  CLST         365          1.0000000000
      1096       366  TIP3  OH2           1.8662538847       -1.4096786333       -2.9052451976  CLST         366          1.0000000000
      1097       366  TIP3  H1            2.8478123716       -1.3842277912       -2.5964007018  CLST         366          1.0000000000
      1098       366  TIP3  H2            2.0930593667       -0.9923153617       -3.7893482809  CLST         366          1.0000000000
      1099       367  TIP3  OH2          -5.2005709441       11.6674283034       12.3815727961  CLST         367          1.0000000000
      1100       367  TIP3  H1           -5.9513295860       12.0315361023       11.8862353308  CLST         367          1.0000000000
      1101       367  TIP3  H2           -5.1936452709       12.0354389746       13.1896112890  CLST         367          1.0000000000
      1102       368  TIP3  OH2          -2.6339922916        6.4993796347        1.0655442617  CLST         368          1.0000000000
      1103       368  TIP3  H1           -2.8195864923        7.2670309200        0.4915511286  CLST         368          1.0000000000
      1104       368  TIP3  H2           -3.0057439431        6.9377881823        1.8956980844  CLST         368          1.0000000000
      1105       369  TIP3  OH2         -11.5669356623       -1.7431760801       -6.4572108476  CLST         369          1.0000000000
      1106       369  TIP3  H1          -10.7305676728       -2.2522155076       -6.4290565915  CLST         369          1.0000000000
      1107       369  TIP3  H2          -11.8280792376       -2.1036818717       -7.3621854582  CLST         369          1.0000000000
      1108       370  TIP3  OH2         -12.0732060422        5.4079227588      -11.6073419552  CLST         370          1.0000000000
      1109       370  TIP3  H1          -12.3973714679        4.6223531905      -12.2580580599  CLST         370          1.0000000000
      1110       370  TIP3  H2          -12.8187662001        5.5328047568      -11.1546453394  CLST         370          1.0000000000
      1111       371  TIP3  OH2           2.1361193146        7.9308474815        5.8969004484  CLST         371          1.0000000000
      1112       371  TIP3  H1            2.0428932076        7.8206795030        6.8691255534  CLST         371          1.0000000000
      1113       371  TIP3  H2            3.1093601257        7.7886701590        5.7946171059  CLST         371          1.0000000000
      1114       372  TIP3  OH2           8.0950350807       -7.4923940136        9.0758278461  CLST         372          1.0000000000
      1115       372  TIP3  H1            8.8879429572       -7.4140515961        8.5209335226  CLST         372          1.0000000000
      1116       372  TIP3  H2            8.5977968215       -7.5645276541        9.9329426138  CLST         372          1.0000000000
      1117       373  TIP3  OH2          11.0864423997       -0.4560194434        6.4953410997  CLST         373          1.0000000000
      1118       373  TIP3  H1           11.3742083365        0.4080146214        6.1758149415  CLST         373          1.0000000000
      1119       373  TIP3  H2           10.2594602603       -0.3914240349        6.0216537854  CLST         373          1.0000000000
      1120       374  TIP3  OH2          -9.4123227337        4.7001439057      -12.3435864154  CLST         374          1.0000000000
      1121       374  TIP3  H1           -9.2543192218        5.5907875967      -12.6696702494  CLST         374          1.0000000000
      1122       374  TIP3  H2          -10.2761035752        4.8487566209      -11.9055547366  CLST         374          1.0000000000
      1123       375  TIP3  OH2           9.8469282981       -5.4328579164       -2.7878423493  CLST         375          1.0000000000
      1124       375  TIP3  H1           10.3144259745       -5.1002401025       -3.5764289307  CLST         375          1.0000000000
      1125       375  TIP3  H2           10.2835975521       -6.3254536256       -2.7005534918  CLST         375          1.0000000000
      1126       376  TIP3  OH2          -2.2629394360      -11.1244518194       12.1442026772  CLST         376          1.0000000000
      1127       376  TIP3  H1           -2.8585907654      -10.9435992114       12.9433903804  CLST         376          1.0000000000
      1128       376  TIP3  H2           -2.9561944376      -11.0918042860       11.4753245246  CLST         376          1.0000000000
      1129       377  TIP3  OH2         -10.0519037649       12.9448329307       10.4780157226  CLST         377          1.0000000000
      1130       377  TIP3  H1           -9.1450273198       12.6537353504       10.7875032470  CLST         377          1.0000000000
      1131       377  TIP3  H2           -9.8368654622       13.0183362484        9.5293891888  CLST         377          1.0000000000
      1132       378  TIP3  OH2           2.1102910465       -8.0308121400        7.4172775596  CLST         378          1.0000000000
      1133       378  TIP3  H1            2.1385832514       -7.0826513013        7.3696590781  CLST         378          1.0000000000
      1134       378  TIP3  H2            1.5617533033       -8.3721065336        8.1327771945  CLST         378          1.0000000000
      1135       379  TIP3  OH2          -9.3932383186        9.2953134540       -1.1709698269  CLST         379          1.0000000000
      1136       379  TIP3  H1           -8.7439679090        9.5082744991       -0.4528889896  CLST         379          1.0000000000
      1137       379  TIP3  H2           -9.5845355582       10.1957908471       -1.5282620266  CLST         379          1.0000000000
      1138       380  TIP3  OH2           2.8796159040       -4.2007211680      -11.2068732503  CLST         380          1.0000000000
      1139       380  TIP3  H1            2.4310482031       -3.4777308001      -11.7707511935  CLST         380          1.0000000000
      1140       380  TIP3  H2            3.2770724285       -4.6921616613      -11.9652193478  CLST         380          1.0000000000
      1141       381  TIP3  OH2          10.1266706245        4.2826898695        3.5237664028  CLST         381          1.0000000000
      1142       381  TIP3  H1            9.3198767653        4.6808619824        3.9152391233  CLST         381          1.0000000000
      1143       381  TIP3  H2           10.7771506610        5.0098372602        3.7662480242  CLST         381          1.0000000000
      1144       382  TIP3  OH2           1.9714812055       -5.2889789113        5.7258895388  CLST         382          1.0000000000
      1145       382  TIP3  H1            2.3747845340       -4.9808666065        6.5617580398  CLST         382          1.0000000000
      1146       382  TIP3  H2            2.7592492492       -5.7884313173        5.3987847632  CLST         382          1.0000000000
      1147       383  TIP3  OH2          10.1686558313        8.8493402743        4.7511467290  CLST         383          1.0000000000
      1148       383  TIP3  H1            9.4170314001        9.1193636333        4.1710898019  CLST         383          1.0000000000
      1149       383  TIP3  H2           10.4500674206        9.8005221432        4.9124754000  CLST         383          1.0000000000
      1150       384  TIP3  OH2          -3.2797471033       -1.7900474150       -8.2211297370  CLST         384          1.0000000000
      1151       384  TIP3  H1           -2.8697176445       -2.7073509826       -8.3072713085  CLST         384          1.0000000000
      1152       384  TIP3  H2           -2.5505672884       -1.4502796190       -7.6123994653  CLST         384          1.0000000000
      1153       385  TIP3  OH2           3.6984454090      -11.7471177285       -0.8246149667  CLST         385          1.0000000000
      1154       385  TIP3  H1            4.5893040139      -12.2374345586       -0.7864924387  CLST         385          1.0000000000
      1155       385  TIP3  H2            3.8609923787      -11.0994504626       -0.0562961128  CLST         385          1.0000000000
      1156       386  TIP3  OH2          -4.2549252427        9.2887782494       -6.1491105463  CLST         386          1.0000000000
      1157       386  TIP3  H1           -4.7932331981        8.5327009306       -6.4770130249  CLST         386          1.0000000000
      1158       386  TIP3  H2           -4.0728850473        9.6776394390       -7.0247061429  CLST         386          1.0000000000
      1159       387  TIP3  OH2          -9.7894372861       10.5926084298        2.7770596229  CLST         387          1.0000000000
      1160       387  TIP3  H1          -10.5864310958       10.4576778218        2.2072166750  CLST         387          1.0000000000
      1161       387  TIP3  H2           -9.0949532584       10.3351533322        2.0877421105  CLST         387          1.0000000000
      1162       388  TIP3  OH2          -1.8222967098      -12.3668000918        5.9008664164  CLST         388          1.0000000000
      1163       388  TIP3  H1           -2.0160505011      -11.4256231830        5.6121536271  CLST         388          1.0000000000
      1164       388  TIP3  H2           -1.9756105481      -12.1343135365        6.8873054798  CLST         388          1.0000000000
      1165       389  TIP3  OH2          -8.0798260071        3.3644301233       -3.5784198799  CLST         389          1.0000000000
      1166       389  TIP3  H1           -7.7161502018        4.2134138612       -3.1921776169  CLST         389          1.0000000000
      1167       389  TIP3  H2           -8.9952168603        3.6325743799       -3.8313710431  CLST         389          1.0000000000
      1168       390  TIP3  OH2          -5.8293921025       -3.9521045080        4.5864494842  CLST         390          1.0000000000
      1169       390  TIP3  H1           -5.3153734326       -3.0993926656        4.7105635857  CLST         390          1.0000000000
      1170       390  TIP3  H2           -5.2594482988       -4.3445375633        3.9090498379  CLST         390          1.0000000000
      1171       391  TIP3  OH2          -8.8858195792       -8.7903495370       -6.1453193933  CLST         391          1.0000000000
      1172       391  TIP3  H1           -9.4220814539       -9.4551007558       -6.5713069875  CLST         391          1.0000000000
      1173       391  TIP3  H2           -8.1310929460       -9.3256454696       -5.7905834472  CLST         391          1.0000000000
      1174       392  TIP3  OH2           0.9852140652       -1.8986692556       10.0243351747  CLST         392          1.0000000000
      1175       392  TIP3  H1            0.3455158424       -2.5948851814       10.3473715569  CLST         392          1.0000000000
      1176       392  TIP3  H2            0.2809538873       -1.2263294152        9.8040749796  CLST         392          1.0000000000
      1177       393  TIP3  OH2          11.0067704394      -12.2344884893       -0.6848481031  CLST         393          1.0000000000
      1178       393  TIP3  H1           11.5623180666      -11.3632251270       -0.6933453158  CLST         393          1.0000000000
      1179       393  TIP3  H2           11.4760315811      -12.8331153150       -1.0699863904  CLST         393          1.0000000000
      1180       394  TIP3  OH2           0.5128893732       11.8300933495       -8.5674339064  CLST         394          1.0000000000
      1181       394  TIP3  H1            1.2218986407       12.2118808096       -8.0079442326  CLST         394          1.0000000000
      1182       394  TIP3  H2            0.7130231717       10.9082368890       -8.2289947139  CLST         394          1.0000000000
      1183       395  TIP3  OH2           6.8481855155        7.5791971268       -4.4995030216  CLST         395          1.0000000000
      1184       395  TIP3  H1            5.9522348666        8.0641415279       -4.5650016989  CLST         395          1.0000000000
      1185       395  TIP3  H2            6.7320589083        7.1270163893       -5.3950875470  CLST         395          1.0000000000
      1186       396  TIP3  OH2          -1.0411839506       -9.9348051249       -9.1042870593  CLST         396          1.0000000000
      1187       396  TIP3  H1           -1.1647945894       -9.8868004587       -8.0835856562  CLST         396          1.0000000000
      1188       396  TIP3  H2           -0.1705856515       -9.5028543067       -9.1889673608  CLST         396          1.0000000000
      1189       397  TIP3  OH2          11.4461974591        7.2195656115       -8.9954318641  CLST         397          1.0000000000
      1190       397  TIP3  H1           11.9413027607        6.6154566589       -8.4356432487  CLST         397          1.0000000000
      1191       397  TIP3  H2           10.6009364537        7.2900205459       -8.4497138698  CLST         397          1.0000000000
      1192       398  TIP3  OH2          10.6161117040        7.7908165541       -4.8720344967  CLST         398          1.0000000000
      1193       398  TIP3  H1           10.0708390442        8.1827478092       -4.1056979878  CLST         398          1.0000000000
      1194       398  TIP3  H2           11.3312055196        7.4333928180       -4.2945347972  CLST         398          1.0000000000
      1195       399  TIP3  OH2           1.8701761544       11.1033333775        4.8378881159  CLST         399          1.0000000000
      1196       399  TIP3  H1            1.1462307557       10.5562935618        5.1726003846  CLST         399          1.0000000000
      1197       399  TIP3  H2            2.3155851386       11.0929233214        5.7196793105  CLST         399          1.0000000000
      1198       400  TIP3  OH2           4.0274083111       -2.9661929145       -5.0383716974  CLST         400          1.0000000000
      1199       400  TIP3  H1            4.7875251606       -2.8717723711       -4.4489336441  CLST         400          1.0000000000
      1200       400  TIP3  H2            4.4807105286       -3.5375779276       -5.7617512974  CLST         400          1.0000000000
      1201       401  TIP3  OH2         -15.0536047650        9.9070869329        5.5423686457  CLST         401          1.0000000000
      1202       401  TIP3  H1          -14.4659086030       10.1550350945        6.3015526378  CLST         401          1.0000000000
      1203       401  TIP3  H2          -15.8840961276        9.7175217376        6.0352511769  CLST         401          1.0000000000
      1204       402  TIP3  OH2           1.8827238243       -1.5505214953       12.7836008644  CLST         402          1.0000000000
      1205       402  TIP3  H1            1.7455628893       -2.5054988531       12.8953071057  CLST         402          1.0000000000
      1206       402  TIP3  H2            1.9074920268       -1.5910819433       11.7973729163  CLST         402          1.0000000000
      1207       403  TIP3  OH2          -2.0219202313       -7.1997500539       -0.5587076069  CLST         403          1.0000000000
      1208       403  TIP3  H1           -2.1975553705       -6.6442510764       -1.2839482350  CLST         403          1.0000000000
      1209       403  TIP3  H2           -1.6856516909       -8.0499144669       -0.9219077304  CLST         403          1.0000000000
      1210       404  TIP3  OH2          -4.8654528672       -2.4436160619        9.2118012072  CLST         404          1.0000000000
      1211       404  TIP3  H1           -4.9179089643       -2.8162677202       10.1214534917  CLST         404          1.0000000000
      1212       404  TIP3  H2           -5.1778510522       -3.2885980088        8.7031943265  CLST         404          1.0000000000
      1213       405  TIP3  OH2         -12.0022408720        7.1975322470       11.2665103960  CLST         405          1.0000000000
      1214       405  TIP3  H1          -11.8649697653        6.3123917227       10.8360304339  CLST         405          1.0000000000
      1215       405  TIP3  H2          -12.9104618727        7.0289075913       11.4808560298  CLST         405          1.0000000000
      1216       406  TIP3  OH2           1.0111238206        7.6983079433      -12.1879199912  CLST         406          1.0000000000
      1217       406  TIP3  H1            1.1856547154        8.6710390963      -12.3933665743  CLST         406          1.0000000000
      1218       406  TIP3  H2            1.4507810622        7.5892308531      -11.3122956887  CLST         406          1.0000000000
      1219       407  TIP3  OH2          10.3521945926      -13.4093956766        5.1727368133  CLST         407          1.0000000000
      1220       407  TIP3  H1           10.5028310665      -13.3809186162        4.2057657860  CLST         407          1.0000000000
      1221       407  TIP3  H2           11.1241385831      -12.7991099296        5.3384439816  CLST         407          1.0000000000
      1222       408  TIP3  OH2          -2.9986327408      -11.5006903690        1.9542646938  CLST         408          1.0000000000
      1223       408  TIP3  H1           -2.2055003838      -10.9039980676        1.8715420091  CLST         408          1.0000000000
      1224       408  TIP3  H2           -2.4322232811      -12.2777887915        2.2003232689  CLST         408          1.0000000000
      1225       409  TIP3  OH2           1.2192393147       -9.5703558863        9.6229041053  CLST         409          1.0000000000
      1226       409  TIP3  H1            0.7685881768       -9.5565645814       10.5241836759  CLST         409          1.0000000000
      1227       409  TIP3  H2            1.5898838532      -10.4676227356        9.7511715494  CLST         409          1.0000000000
      1228       410  TIP3  OH2           9.8189644016       -7.1408065001       -5.2903926432  CLST         410          1.0000000000
      1229       410  TIP3  H1            8.9811791331       -6.8980198732       -5.7366169926  CLST         410          1.0000000000
      1230       410  TIP3  H2           10.3089152029       -6.3058065619       -5.4580685393  CLST         410          1.0000000000
      1231       411  TIP3  OH2          -9.9741442492       -2.2629861702       -1.3015823035  CLST         411          1.0000000000
      1232       411  TIP3  H1           -9.1401756221       -2.2207130836       -0.8334587666  CLST         411          1.0000000000
      1233       411  TIP3  H2           -9.5670707881       -2.5833719219       -2.1523154862  CLST         411          1.0000000000
      1234       412  TIP3  OH2           6.7166980876      -10.6086005206      -11.9707338920  CLST         412          1.0000000000
      1235       412  TIP3  H1            6.2196454636      -10.8715010871      -11.1719501065  CLST         412          1.0000000000
      1236       412  TIP3  H2            7.5618871449      -11.1394394765      -11.8398721490  CLST         412          1.0000000000
      1237       413  TIP3  OH2           7.0816624392       13.0468464583        0.2994534601  CLST         413          1.0000000000
      1238       413  TIP3  H1            7.7555758675       12.6149016189       -0.2658208468  CLST         413          1.0000000000
      1239       413  TIP3  H2            7.6751854167       13.5320385470        0.9223059414  CLST         413          1.0000000000
      1240       414  TIP3  OH2           1.4834173150       -2.4390995905      -12.4554996028  CLST         414          1.0000000000
      1241       414  TIP3  H1            0.6139658783       -1.9808299275      -12.2471880113  CLST         414          1.0000000000
      1242       414  TIP3  H2            1.4610967197       -2.6936094429      -13.3357885229  CLST         414          1.0000000000
      1243       415  TIP3  OH2           4.1865824103        5.2610441648       -8.2951003656  CLST         415          1.0000000000
      1244       415  TIP3  H1            3.5209119531        4.4340831404       -8.0715752567  CLST         415          1.0000000000
      1245       415  TIP3  H2            4.5835246500        4.9426315782       -9.2118762454  CLST         415          1.0000000000
      1246       416  TIP3  OH2           5.5950760501       12.3496299773       -7.7250327344  CLST         416          1.0000000000
      1247       416  TIP3  H1            5.3522326195       13.1430788633       -8.0918867645  CLST         416          1.0000000000
      1248       416  TIP3  H2            6.4954771199       12.2222666995       -8.1555551079  CLST         416          1.0000000000
      1249       417  TIP3  OH2          12.5330610616      -11.2811856817        2.8038182433  CLST         417          1.0000000000
      1250       417  TIP3  H1           11.8514266132      -11.8829724470        2.4442875592  CLST         417          1.0000000000
      1251       417  TIP3  H2           12.4135112397      -10.4972124860        2.2598628757  CLST         417          1.0000000000
      1252       418  TIP3  OH2          -9.2678692049       -1.7147361596        8.3546516933  CLST         418          1.0000000000
      1253       418  TIP3  H1           -8.7693196702       -1.1510649857        7.7042719459  CLST         418          1.0000000000
      1254       418  TIP3  H2           -9.4459306188       -1.0569652498        9.0590336155  CLST         418          1.0000000000
      1255       419  TIP3  OH2          14.8708608596        0.3490992152       -6.1584607813  CLST         419          1.0000000000
      1256       419  TIP3  H1           14.7469959994        1.4002390262       -4.6170301580  CLST         419          1.0000000000
      1257       419  TIP3  H2           15.8840961276        0.6001307996       -6.4409226769  CLST         419          1.0000000000
      1258       420  TIP3  OH2          -8.1719893449       -8.1537000799        3.5045942529  CLST         420          1.0000000000
      1259       420  TIP3  H1           -8.9268017151       -7.9652270340        2.8726826544  CLST         420          1.0000000000
      1260       420  TIP3  H2           -8.3790930672       -9.0764764124        3.7685396933  CLST         420          1.0000000000
      1261       421  TIP3  OH2           3.4981761405       -6.2850498948      -13.3156263175  CLST         421          1.0000000000
      1262       421  TIP3  H1            4.3755037776       -6.7244984289      -13.2650818447  CLST         421          1.0000000000
      1263       421  TIP3  H2            2.9390160310       -7.1156915050      -13.3729536964  CLST         421          1.0000000000
      1264       422  TIP3  OH2          -1.9560491274       -9.3650579985       -1.6938356947  CLST         422          1.0000000000
      1265       422  TIP3  H1           -1.2463363757       -9.9722674476       -1.9524658507  CLST         422          1.0000000000
      1266       422  TIP3  H2           -2.7075984150       -9.9964047477       -1.6303774066  CLST         422          1.0000000000
      1267       423  TIP3  OH2           1.6970890052        4.8745543300       -3.8257316245  CLST         423          1.0000000000
      1268       423  TIP3  H1            2.4912527070        5.3279518948       -4.2346869363  CLST         423          1.0000000000
      1269       423  TIP3  H2            1.9785151217        4.8576113528       -2.8749681390  CLST         423          1.0000000000
      1270       424  TIP3  OH2          -9.0671995529        4.4591689359        4.3704705096  CLST         424          1.0000000000
      1271       424  TIP3  H1           -8.9943127802        3.7757238585        3.6757908263  CLST         424          1.0000000000
      1272       424  TIP3  H2           -8.3151647404        5.0585641096        4.2345185575  CLST         424          1.0000000000
      1273       425  TIP3  OH2           8.1552746298      -12.7226411062        8.3770456977  CLST         425          1.0000000000
      1274       425  TIP3  H1            8.2782514100      -12.2027469722        7.5399005965  CLST         425          1.0000000000
      1275       425  TIP3  H2            7.6875020115      -12.0105300491        8.8483839136  CLST         425          1.0000000000
      1276       426  TIP3  OH2           8.2201448304        2.2763697319        8.2293555072  CLST         426          1.0000000000
      1277       426  TIP3  H1            8.9047008437        2.2377797212        8.9344316923  CLST         426          1.0000000000
      1278       426  TIP3  H2            8.4344478479        3.1804879282        7.8544613059  CLST         426          1.0000000000
      1279       427  TIP3  OH2          11.4321460077        7.6068683392       10.9434542132  CLST         427          1.0000000000
      1280       427  TIP3  H1           11.4293918320        8.1496235462       11.7264845246  CLST         427          1.0000000000
      1281       427  TIP3  H2           10.6137486347        7.0269378949       11.0342652244  CLST         427          1.0000000000
      1282       428  TIP3  OH2          12.4710038222        7.7105017209        1.1524719693  CLST         428          1.0000000000
      1283       428  TIP3  H1           12.2941440124        8.0063267458        0.1862714854  CLST         428          1.0000000000
      1284       428  TIP3  H2           13.3979199559        7.5043197933        1.0840435690  CLST         428          1.0000000000
      1285       429  TIP3  OH2          11.9648651879       -9.8018320381       -0.7170304250  CLST         429          1.0000000000
      1286       429  TIP3  H1           12.2341179920       -9.2761864983        0.0943475665  CLST         429          1.0000000000
      1287       429  TIP3  H2           11.4163784689       -9.1858675913       -1.2403132913  CLST         429          1.0000000000
      1288       430  TIP3  OH2           9.7478614746       -6.7940923736        3.6305642092  CLST         430          1.0000000000
      1289       430  TIP3  H1            9.6291615019       -7.2404442118        2.7237131188  CLST         430          1.0000000000
      1290       430  TIP3  H2           10.7245040315       -6.7664540284        3.6220718383  CLST         430          1.0000000000
      1291       431  TIP3  OH2         -12.7968954682        9.4321226899       -2.4931704715  CLST         431          1.0000000000
      1292       431  TIP3  H1          -13.3187475493        9.4950698175       -3.2458869437  CLST         431          1.0000000000
      1293       431  TIP3  H2          -13.4221556963        9.4129706054       -1.6970375577  CLST         431          1.0000000000
      1294       432  TIP3  OH2           5.4315771913        8.4370589381      -10.1592616311  CLST         432          1.0000000000
      1295       432  TIP3  H1            5.8454435680        8.3752660897       -9.2448421305  CLST         432          1.0000000000
      1296       432  TIP3  H2            4.8512718412        9.2038151177       -9.8715444429  CLST         432          1.0000000000
      1297       433  TIP3  OH2          -0.7155140397        8.1864417182        7.7802992898  CLST         433          1.0000000000
      1298       433  TIP3  H1           -1.6105346988        8.5431239007        7.9849357551  CLST         433          1.0000000000
      1299       433  TIP3  H2           -0.9456149729        7.3970401602        7.2456651128  CLST         433          1.0000000000
      1300       434  TIP3  OH2          -7.3785367063        0.6783147437        3.7368516497  CLST         434          1.0000000000
      1301       434  TIP3  H1           -7.7232783607        1.3589998739        3.1041624032  CLST         434          1.0000000000
      1302       434  TIP3  H2           -8.0807900087       -0.0283838498        3.5583058197  CLST         434          1.0000000000
      1303       435  TIP3  OH2           9.9861993000       -0.4085947104       -7.2374111702  CLST         435          1.0000000000
      1304       435  TIP3  H1            9.6203909621       -0.4955145448       -6.3435445845  CLST         435          1.0000000000
      1305       435  TIP3  H2           10.4459449837        0.4160877338       -7.2714128267  CLST         435          1.0000000000
      1306       436  TIP3  OH2           3.7034057079       10.4868208467       -9.0662216928  CLST         436          1.0000000000
      1307       436  TIP3  H1            3.7737267476       11.2626459737       -8.4530014009  CLST         436          1.0000000000
      1308       436  TIP3  H2            2.8261453549       10.1107693037       -8.7893053072  CLST         436          1.0000000000
      1309       437  TIP3  OH2          -8.3797088087       -0.8576660981       -7.9827735026  CLST         437          1.0000000000
      1310       437  TIP3  H1           -8.6361741715       -0.3315741057       -8.7915893225  CLST         437          1.0000000000
      1311       437  TIP3  H2           -7.3852743431       -0.6215176834       -7.9325501473  CLST         437          1.0000000000
      1312       438  TIP3  OH2          -3.2672283029        5.4837956418       -8.1383468059  CLST         438          1.0000000000
      1313       438  TIP3  H1           -4.0716946407        6.0381041622       -7.8108100472  CLST         438          1.0000000000
      1314       438  TIP3  H2           -3.5804208963        5.5897515272       -9.0638528845  CLST         438          1.0000000000
      1315       439  TIP3  OH2          14.2158276890        1.6784952934       -4.0718190341  CLST         439          1.0000000000
      1316       439  TIP3  H1           13.6503374313        2.5073623825       -4.2621846467  CLST         439          1.0000000000
      1317       439  TIP3  H2           13.6591342430        1.2248714716       -3.3278957380  CLST         439          1.0000000000
      1318       440  TIP3  OH2           1.1173628057      -12.9449092186      -11.1676085342  CLST         440          1.0000000000
      1319       440  TIP3  H1            0.0904831242      -12.6583714376      -11.2421212751  CLST         440          1.0000000000
      1320       440  TIP3  H2            1.2548301045      -13.5461361093      -11.7001301427  CLST         440          1.0000000000
      1321       441  TIP3  OH2          -1.5639631539       -4.2603173469        3.1876661030  CLST         441          1.0000000000
      1322       441  TIP3  H1           -2.0039724959       -3.5110201655        3.5684933576  CLST         441          1.0000000000
      1323       441  TIP3  H2           -1.2312068438       -4.6793172331        4.0525360338  CLST         441          1.0000000000
      1324       442  TIP3  OH2           3.2958484108       -9.8267386916       -8.0334418370  CLST         442          1.0000000000
      1325       442  TIP3  H1            3.6085108234      -10.4429484099       -8.7533579037  CLST         442          1.0000000000
      1326       442  TIP3  H2            2.5061755308       -9.4372714708       -8.5232851111  CLST         442          1.0000000000
      1327       443  TIP3  OH2           1.2379909146       10.3374112020      -12.9177199835  CLST         443          1.0000000000
      1328       443  TIP3  H1            1.3469555069       11.0651768254      -12.1993224735  CLST         443          1.0000000000
      1329       443  TIP3  H2            1.9965672661       10.6045227841      -13.4265822253  CLST         443          1.0000000000
      1330       444  TIP3  OH2          -7.8587663023        1.2810857278       -1.8759820496  CLST         444          1.0000000000
      1331       444  TIP3  H1           -7.8605506572        1.9303013389       -2.6651003262  CLST         444          1.0000000000
      1332       444  TIP3  H2           -7.4699020557        1.9807203774       -1.2295683555  CLST         444          1.0000000000
      1333       445  TIP3  OH2         -11.5286720046       -5.2123601677        6.0937770491  CLST         445          1.0000000000
      1334       445  TIP3  H1          -11.3366947226       -4.2539696351        5.8452895953  CLST         445          1.0000000000
      1335       445  TIP3  H2          -11.5267450023       -5.0549961636        7.0692712572  CLST         445          1.0000000000
      1336       446  TIP3  OH2          -2.9224690312        4.6858711453       -5.3303937134  CLST         446          1.0000000000
      1337       446  TIP3  H1           -3.2075910217        4.9102850013       -6.2340771242  CLST         446          1.0000000000
      1338       446  TIP3  H2           -2.0327417602        5.1502827265       -5.3828415160  CLST         446          1.0000000000
      1339       447  TIP3  OH2          -4.9727636807      -12.6940408874       -3.8164702240  CLST         447          1.0000000000
      1340       447  TIP3  H1           -5.5300722636      -13.1986671260       -3.2622585241  CLST         447          1.0000000000
      1341       447  TIP3  H2           -4.6423439040      -12.0700848876       -3.1119313838  CLST         447          1.0000000000
      1342       448  TIP3  OH2           7.3177924445        9.6245772255        4.7446728046  CLST         448          1.0000000000
      1343       448  TIP3  H1            7.6497236643        9.7429999295        5.6930017378  CLST         448          1.0000000000
      1344       448  TIP3  H2            6.5069029356       10.1800378813        4.7944917277  CLST         448          1.0000000000
      1345       449  TIP3  OH2           4.2751913284        5.0889387497        8.4693838310  CLST         449          1.0000000000
      1346       449  TIP3  H1            4.9864433975        4.5333750807        8.8981530705  CLST         449          1.0000000000
      1347       449  TIP3  H2            3.8791862573        4.5030649393        7.8162885693  CLST         449          1.0000000000
      1348       450  TIP3  OH2          -4.1256174248        0.3948049141       -2.0325910875  CLST         450          1.0000000000
      1349       450  TIP3  H1           -3.8403702476        1.1719820451       -2.5473453525  CLST         450          1.0000000000
      1350       450  TIP3  H2           -3.3069794601       -0.1188864956       -1.9728375040  CLST         450          1.0000000000
      1351       451  TIP3  OH2          13.7595536835       -1.8901896858       -5.7877990613  CLST         451          1.0000000000
      1352       451  TIP3  H1           14.4574326775       -2.3108744744       -5.7264405562  CLST         451          1.0000000000
      1353       451  TIP3  H2           14.3909282424       -0.5742795791       -6.0182144456  CLST         451          1.0000000000
      1354       452  TIP3  OH2           8.4389120856        5.0003621318        8.0434337543  CLST         452          1.0000000000
      1355       452  TIP3  H1            7.6388971347        5.5681724805        7.8081959422  CLST         452          1.0000000000
      1356       452  TIP3  H2            9.0767299551        5.5563222452        7.5118011897  CLST         452          1.0000000000
      1357       453  TIP3  OH2           7.0069483256        2.8034764385       -6.0310156344  CLST         453          1.0000000000
      1358       453  TIP3  H1            6.1722481698        2.6117571379       -5.5265910508  CLST         453          1.0000000000
      1359       453  TIP3  H2            6.6312873038        2.5520541543       -6.8965724765  CLST         453          1.0000000000
      1360       454  TIP3  OH2           1.1181004482        5.4343146665        1.9981484803  CLST         454          1.0000000000
      1361       454  TIP3  H1            0.2589550514        5.0811600210        1.5927868011  CLST         454          1.0000000000
      1362       454  TIP3  H2            0.7331006877        6.0585389972        2.6430241510  CLST         454          1.0000000000
      1363       455  TIP3  OH2          -1.2359611609        0.8703258321      -10.4697790362  CLST         455          1.0000000000
      1364       455  TIP3  H1           -1.2472893019        1.1409702791       -9.5086691294  CLST         455          1.0000000000
      1365       455  TIP3  H2           -1.0880756405        1.7898312990      -10.8453794423  CLST         455          1.0000000000
      1366       456  TIP3  OH2           5.2633828400       11.2715439889        5.1947928317  CLST         456          1.0000000000
      1367       456  TIP3  H1            4.6723618103       11.7477320393        4.5541632106  CLST         456          1.0000000000
      1368       456  TIP3  H2            4.6285246102       10.9595637276        5.8554575116  CLST         456          1.0000000000
      1369       457  TIP3  OH2          -4.7735683322       -7.6724303819        4.8725009810  CLST         457          1.0000000000
      1370       457  TIP3  H1           -5.4904626152       -7.4779470725        5.4926424125  CLST         457          1.0000000000
      1371       457  TIP3  H2           -5.1004828320       -7.3523495670        4.0037402629  CLST         457          1.0000000000
      1372       458  TIP3  OH2           8.0293049661       -6.4231185683      -11.3377845289  CLST         458          1.0000000000
      1373       458  TIP3  H1            9.0433531509       -6.3016251328      -11.4069458581  CLST         458          1.0000000000
      1374       458  TIP3  H2            7.8192363840       -5.5951708702      -10.9293728350  CLST         458          1.0000000000
      1375       459  TIP3  OH2           6.4488072807       -9.8609554791       -7.9523659772  CLST         459          1.0000000000
      1376       459  TIP3  H1            6.0302634159       -8.9906475639       -7.7690268451  CLST         459          1.0000000000
      1377       459  TIP3  H2            7.3007400252       -9.5359959369       -8.4152755090  CLST         459          1.0000000000
      1378       460  TIP3  OH2           9.2925770273       -2.1613478721       -2.8268112787  CLST         460          1.0000000000
      1379       460  TIP3  H1            9.8078698619       -2.7428656802       -2.2749813364  CLST         460          1.0000000000
      1380       460  TIP3  H2            9.9688956113       -1.8070953954       -3.4472955858  CLST         460          1.0000000000
      1381       461  TIP3  OH2          -1.3824047650      -12.6240664202       -5.3691691178  CLST         461          1.0000000000
      1382       461  TIP3  H1           -0.8029049579      -13.0293413598       -6.0524537123  CLST         461          1.0000000000
      1383       461  TIP3  H2           -0.9889529726      -13.0618848698       -4.5533001564  CLST         461          1.0000000000
      1384       462  TIP3  OH2          -0.0222268715        5.3556394802      -12.6974349560  CLST         462          1.0000000000
      1385       462  TIP3  H1            0.1622880107        6.3395227913      -12.4213315960  CLST         462          1.0000000000
      1386       462  TIP3  H2            0.8330678073        5.2572804820      -13.1492149983  CLST         462          1.0000000000
      1387       463  TIP3  OH2          -1.7838547753        1.9368468425       -7.9019856167  CLST         463          1.0000000000
      1388       463  TIP3  H1           -1.3605505215        1.2437792783       -7.3271216827  CLST         463          1.0000000000
      1389       463  TIP3  H2           -2.7398155168        1.8949882425       -7.5736242045  CLST         463          1.0000000000
      1390       464  TIP3  OH2          -6.6434582858        6.1797650049        4.3578196019  CLST         464          1.0000000000
      1391       464  TIP3  H1           -5.9869777704        5.8332244358        4.9487845342  CLST         464          1.0000000000
      1392       464  TIP3  H2           -6.8828730451        7.0176070322        4.8438332316  CLST         464          1.0000000000
      1393       465  TIP3  OH2          -4.6952176782      -12.4663407414        6.2996989152  CLST         465          1.0000000000
      1394       465  TIP3  H1           -3.8640473692      -12.9307928700        6.0243970689  CLST         465          1.0000000000
      1395       465  TIP3  H2           -4.2608701111      -11.5651326832        6.2220019210  CLST         465          1.0000000000
      1396       466  TIP3  OH2          -2.4632977119        9.1547269724       -4.2615465299  CLST         466          1.0000000000
      1397       466  TIP3  H1           -3.1493798979        9.2387446911       -4.9992191574  CLST         466          1.0000000000
      1398       466  TIP3  H2           -2.7704676191        9.8098782230       -3.5947219821  CLST         466          1.0000000000
      1399       467  TIP3  OH2           8.2260348037        5.9133773570        4.6144138877  CLST         467          1.0000000000
      1400       467  TIP3  H1            8.7067566413        6.3307944082        5.3669883205  CLST         467          1.0000000000
      1401       467  TIP3  H2            8.2248251291        6.6902644211        3.9898560846  CLST         467          1.0000000000
      1402       468  TIP3  OH2          -0.5678078156      -12.2928776563       10.3659168736  CLST         468          1.0000000000
      1403       468  TIP3  H1           -1.1520786648      -12.1724082224       11.1359123440  CLST         468          1.0000000000
      1404       468  TIP3  H2            0.3191156329      -12.3771009557       10.7613342761  CLST         468          1.0000000000
      1405       469  TIP3  OH2           5.5262998267        8.3217932426       14.2948127089  CLST         469          1.0000000000
      1406       469  TIP3  H1            6.1175595296        8.5103493606       13.5663708266  CLST         469          1.0000000000
      1407       469  TIP3  H2            4.9215195122        9.0717617008       14.0557425244  CLST         469          1.0000000000
      1408       470  TIP3  OH2         -11.2690190728       12.7538466543        0.5861641288  CLST         470          1.0000000000
      1409       470  TIP3  H1          -10.8549822699       12.3021612737       -0.1473076456  CLST         470          1.0000000000
      1410       470  TIP3  H2          -11.7632843034       11.9846417022        0.9509487064  CLST         470          1.0000000000
      1411       471  TIP3  OH2          -4.3595315125        9.6511701945       -9.0080382591  CLST         471          1.0000000000
      1412       471  TIP3  H1           -4.0677947852        8.7532532920       -9.3093621593  CLST         471          1.0000000000
      1413       471  TIP3  H2           -4.7832711155        9.9549318511       -9.8574260317  CLST         471          1.0000000000
      1414       472  TIP3  OH2         -11.8834105244        3.9050670553        2.9001229496  CLST         472          1.0000000000
      1415       472  TIP3  H1          -12.4532792526        3.0650650721        2.9088533498  CLST         472          1.0000000000
      1416       472  TIP3  H2          -11.1873030538        3.4795642583        2.3309708860  CLST         472          1.0000000000
      1417       473  TIP3  OH2           5.2939177502        0.7518092262       10.2172082154  CLST         473          1.0000000000
      1418       473  TIP3  H1            5.8619539023        1.5575602687       10.1266089448  CLST         473          1.0000000000
      1419       473  TIP3  H2            4.4424952051        1.1602669126       10.2926076248  CLST         473          1.0000000000
      1420       474  TIP3  OH2           1.2980958466        1.7519787526        1.5151090215  CLST         474          1.0000000000
      1421       474  TIP3  H1            0.3269040096        1.6951613112        1.3680483614  CLST         474          1.0000000000
      1422       474  TIP3  H2            1.5697816770        0.9437077728        1.0854566462  CLST         474          1.0000000000
      1423       475  TIP3  OH2           6.1063634237       -8.7049365134       12.0244195430  CLST         475          1.0000000000
      1424       475  TIP3  H1            7.0298352331       -8.6737409603       12.2878302655  CLST         475          1.0000000000
      1425       475  TIP3  H2            6.1251640720       -9.0955328130       11.1235801853  CLST         475          1.0000000000
      1426       476  TIP3  OH2         -11.5446853149       -9.0056436597       -0.0580895255  CLST         476          1.0000000000
      1427       476  TIP3  H1          -12.0006884993       -8.1800153565       -0.4473443133  CLST         476          1.0000000000
      1428       476  TIP3  H2          -10.9650024079       -9.0556643684       -0.8307291867  CLST         476          1.0000000000
      1429       477  TIP3  OH2         -12.5872581421        3.5771650345      -13.3869532646  CLST         477          1.0000000000
      1430       477  TIP3  H1          -12.3044308926        2.6716460128      -13.3882496335  CLST         477          1.0000000000
      1431       477  TIP3  H2          -12.2595199485        3.7617287883      -14.2779399884  CLST         477          1.0000000000
      1432       478  TIP3  OH2          -3.9634509993        6.6210376498      -10.6258243336  CLST         478          1.0000000000
      1433       478  TIP3  H1           -4.4339724078        6.1754887238      -11.3448057878  CLST         478          1.0000000000
      1434       478  TIP3  H2           -3.3776288244        7.2665766828      -11.1228398702  CLST         478          1.0000000000
      1435       479  TIP3  OH2           7.7250478924       -1.5293923566       -8.6053126630  CLST         479          1.0000000000
      1436       479  TIP3  H1            8.5000503298       -0.9718260962       -8.3717758564  CLST         479          1.0000000000
      1437       479  TIP3  H2            7.1882420340       -1.2716498950       -7.7824788696  CLST         479          1.0000000000
      1438       480  TIP3  OH2          -6.1030502775        7.6045041541       -0.1140915953  CLST         480          1.0000000000
      1439       480  TIP3  H1           -5.1821646292        8.0310621927       -0.1403749682  CLST         480          1.0000000000
      1440       480  TIP3  H2           -5.7770506317        6.6684032199        0.0239396751  CLST         480          1.0000000000
      1441       481  TIP3  OH2          -2.9896035444        2.4442395578       11.8606685775  CLST         481          1.0000000000
      1442       481  TIP3  H1           -2.0357318706        2.5552154572       11.6545619711  CLST         481          1.0000000000
      1443       481  TIP3  H2           -2.9986955679        1.7718653063       12.5196875666  CLST         481          1.0000000000
      1444       482  TIP3  OH2          -7.9961982813       11.5826663563       -7.6334689467  CLST         482          1.0000000000
      1445       482  TIP3  H1           -8.6766987724       11.3360153071       -8.2639728604  CLST         482          1.0000000000
      1446       482  TIP3  H2           -7.3389112117       12.0843352409       -8.2025903678  CLST         482          1.0000000000
      1447       483  TIP3  OH2           6.3166623672       -5.8459316679       12.7164193821  CLST         483          1.0000000000
      1448       483  TIP3  H1            5.6785298880       -6.5422664543       12.6510483666  CLST         483          1.0000000000
      1449       483  TIP3  H2            6.4133199156       -5.6130593609       11.7782440177  CLST         483          1.0000000000
      1450       484  TIP3  OH2           6.7899288001       -2.9692681022        3.0297692725  CLST         484          1.0000000000
      1451       484  TIP3  H1            5.8217160461       -3.0915372225        2.8824878741  CLST         484          1.0000000000
      1452       484  TIP3  H2            6.6772049586       -2.2005507308        3.7044782328  CLST         484          1.0000000000
      1453       485  TIP3  OH2         -11.8326336676        4.6094623625       10.0079693356  CLST         485          1.0000000000
      1454       485  TIP3  H1          -11.4402234986        3.7093643143       10.1492106831  CLST         485          1.0000000000
      1455       485  TIP3  H2          -12.4765968999        4.4007940311        9.2493415369  CLST         485          1.0000000000
      1456       486  TIP3  OH2           8.5359565903       -7.0732663267       13.7116731208  CLST         486          1.0000000000
      1457       486  TIP3  H1            8.8611072698       -6.9178203931       14.4760659760  CLST         486          1.0000000000
      1458       486  TIP3  H2            7.7149222126       -6.5563723751       13.5506703154  CLST         486          1.0000000000
      1459       487  TIP3  OH2          12.1948480724       -8.4202685279        6.0445048904  CLST         487          1.0000000000
      1460       487  TIP3  H1           11.1876958619       -8.3231329742        6.1763117985  CLST         487          1.0000000000
      1461       487  TIP3  H2           12.4203296550       -8.4824548869        7.0083214355  CLST         487          1.0000000000
      1462       488  TIP3  OH2          15.2063445591        8.3570933635        7.6554749160  CLST         488          1.0000000000
      1463       488  TIP3  H1           15.8840961276        7.6824142736        7.6307219234  CLST         488          1.0000000000
      1464       488  TIP3  H2           14.4300868514        7.8639344435        8.0216610780  CLST         488          1.0000000000
      1465       489  TIP3  OH2          -6.1979116013      -10.9051727715       11.7966025566  CLST         489          1.0000000000
      1466       489  TIP3  H1           -6.1618140989      -10.0654483868       11.3211118451  CLST         489          1.0000000000
      1467       489  TIP3  H2           -6.9590128991      -11.2669236295       11.1951530132  CLST         489          1.0000000000
      1468       490  TIP3  OH2           6.8947012810      -12.9925785966        2.3127351667  CLST         490          1.0000000000
      1469       490  TIP3  H1            6.7486548322      -12.1245484383        2.6958458605  CLST         490          1.0000000000
      1470       490  TIP3  H2            7.2853313996      -13.5458904205        2.9813448304  CLST         490          1.0000000000
      1471       491  TIP3  OH2           3.1136974690       -9.2901696201        4.9845458981  CLST         491          1.0000000000
      1472       491  TIP3  H1            2.1270360218       -9.2243776100        5.1720712832  CLST         491          1.0000000000
      1473       491  TIP3  H2            3.1143427545       -9.8168480228        4.1740128115  CLST         491          1.0000000000
      1474       492  TIP3  OH2          -0.6440101684       -6.5266923267       12.2511696860  CLST         492          1.0000000000
      1475       492  TIP3  H1           -0.5759459903       -7.5004566374       12.1129758317  CLST         492          1.0000000000
      1476       492  TIP3  H2           -1.5676033222       -6.3656352885       12.0636868791  CLST         492          1.0000000000
      1477       493  TIP3  OH2           3.4273286436       10.6573439759        7.1795985147  CLST         493          1.0000000000
      1478       493  TIP3  H1            4.1933578806       10.7029210857        7.8574318182  CLST         493          1.0000000000
      1479       493  TIP3  H2            2.7125421461       10.2403756518        7.7497745752  CLST         493          1.0000000000
      1480       494  TIP3  OH2          -9.2831304416        5.4055261720       -0.8415267043  CLST         494          1.0000000000
      1481       494  TIP3  H1           -9.6220087939        5.9223992182       -1.5923774554  CLST         494          1.0000000000
      1482       494  TIP3  H2           -9.8220934266        5.7414712883       -0.0647467900  CLST         494          1.0000000000
      1483       495  TIP3  OH2           5.1224512760       -6.7824895519       -1.9770402912  CLST         495          1.0000000000
      1484       495  TIP3  H1            5.5329687351       -6.3178425451       -2.7147586568  CLST         495          1.0000000000
      1485       495  TIP3  H2            5.9408843474       -7.2765777978       -1.7138950106  CLST         495          1.0000000000
      1486       496  TIP3  OH2         -12.8510205917      -10.8375548820        7.5297284386  CLST         496          1.0000000000
      1487       496  TIP3  H1          -13.6873260733      -10.9643136382        7.7344368610  CLST         496          1.0000000000
      1488       496  TIP3  H2          -12.5506364366      -11.5831335936        6.9319103142  CLST         496          1.0000000000
      1489       497  TIP3  OH2          -9.5980548300      -13.4785772588       -7.3978162154  CLST         497          1.0000000000
      1490       497  TIP3  H1           -9.9518233571      -14.2621411423       -7.7472845301  CLST         497          1.0000000000
      1491       497  TIP3  H2           -9.9604834620      -12.8269352425       -8.0380332134  CLST         497          1.0000000000
      1492       498  TIP3  OH2          -5.6107393153        0.5388545302      -11.1937554540  CLST         498          1.0000000000
      1493       498  TIP3  H1           -5.9393204199        0.5348682695      -12.1113538456  CLST         498          1.0000000000
      1494       498  TIP3  H2           -5.2552475956        1.4402149444      -11.0928909196  CLST         498          1.0000000000
      1495       499  TIP3  OH2          11.5950695729        6.6490722988        3.6378181287  CLST         499          1.0000000000
      1496       499  TIP3  H1           12.2079250777        7.0689623236        3.0397145467  CLST         499          1.0000000000
      1497       499  TIP3  H2           11.1336239232        7.4597785542        4.0008933188  CLST         499          1.0000000000
      1498       500  TIP3  OH2           2.3513530367       -8.7127937440      -13.3095241219  CLST         500          1.0000000000
      1499       500  TIP3  H1            1.6440554517       -8.9435821353      -13.8453223109  CLST         500          1.0000000000
      1500       500  TIP3  H2            2.5823503944       -9.5283876173      -12.7764917318  CLST         500          1.0000000000
      1501       501  TIP3  OH2           1.4284436546      -10.9976343604       13.9983603851  CLST         501          1.0000000000
      1502       501  TIP3  H1            1.5885339820      -11.7899845433       14.4223946602  CLST         501          1.0000000000
      1503       501  TIP3  H2            2.3204011116      -10.6053377785       13.9058142468  CLST         501          1.0000000000
      1504       502  TIP3  OH2           6.0788432458        3.8351794260        9.6871680048  CLST         502          1.0000000000
      1505       502  TIP3  H1            6.3619844825        4.2569728500       10.5413141277  CLST         502          1.0000000000
      1506       502  TIP3  H2            6.9495978902        3.5583040285        9.3090723574  CLST         502          1.0000000000
      1507       503  TIP3  OH2          10.3199382579       -0.7961538684        0.3487132726  CLST         503          1.0000000000
      1508       503  TIP3  H1           11.2779152226       -0.6448070483        0.5483023408  CLST         503          1.0000000000
      1509       503  TIP3  H2           10.2487970919       -0.0757438963       -0.3209504209  CLST         503          1.0000000000
      1510       504  TIP3  OH2           8.3342364694      -13.7098934174       10.7565620729  CLST         504          1.0000000000
      1511       504  TIP3  H1            8.1715628200      -13.4955831365        9.7967058780  CLST         504          1.0000000000
      1512       504  TIP3  H2            8.2898255512      -14.6693565739       10.6054149286  CLST         504          1.0000000000
      1513       505  TIP3  OH2           3.4660400021      -10.9860786442       -5.6761531014  CLST         505          1.0000000000
      1514       505  TIP3  H1            3.3262013163      -10.4286990525       -6.5002688037  CLST         505          1.0000000000
      1515       505  TIP3  H2            3.1682092190      -10.4819961900       -4.9069833005  CLST         505          1.0000000000
      1516       506  TIP3  OH2          -9.1389244418       -3.3642850180       -8.1615721341  CLST         506          1.0000000000
      1517       506  TIP3  H1           -8.7323313718       -2.4761957896       -7.9622829166  CLST         506          1.0000000000
      1518       506  TIP3  H2           -9.7978164115       -3.2115478081       -8.8494475636  CLST         506          1.0000000000
      1519       507  TIP3  OH2          11.1795725058        9.7830706913      -12.8067430067  CLST         507          1.0000000000
      1520       507  TIP3  H1           11.2558338184        9.9090805899      -13.6475544704  CLST         507          1.0000000000
      1521       507  TIP3  H2           11.1692628128        8.7967522630      -12.5231811449  CLST         507          1.0000000000
      1522       508  TIP3  OH2           9.1438889565       12.2273688127        8.8065229753  CLST         508          1.0000000000
      1523       508  TIP3  H1            8.5961385486       12.2176672746        8.0016857237  CLST         508          1.0000000000
      1524       508  TIP3  H2           10.0278710697       12.3766620924        8.4155210109  CLST         508          1.0000000000
      1525       509  TIP3  OH2          -0.6953586666       -1.5022580953      -11.3733316379  CLST         509          1.0000000000
      1526       509  TIP3  H1           -1.6163214503       -1.7946927452      -11.5517344993  CLST         509          1.0000000000
      1527       509  TIP3  H2           -0.8946054086       -0.6181081300      -10.9412587783  CLST         509          1.0000000000
      1528       510  TIP3  OH2           8.1469719802        2.2790246370       11.6717316615  CLST         510          1.0000000000
      1529       510  TIP3  H1            8.0316643962        1.2974007687       11.6522430051  CLST         510          1.0000000000
      1530       510  TIP3  H2            8.9795874297        2.4026103245       11.1728279697  CLST         510          1.0000000000
      1531       511  TIP3  OH2          -8.7331128726       -5.8796207903       -0.7772230016  CLST         511          1.0000000000
      1532       511  TIP3  H1           -9.6313299247       -6.2441500823       -0.9755436943  CLST         511          1.0000000000
      1533       511  TIP3  H2           -8.7407318438       -5.2343119585       -1.5194744596  CLST         511          1.0000000000
      1534       512  TIP3  OH2          10.1021748852        7.0376190748        6.9473412377  CLST         512          1.0000000000
      1535       512  TIP3  H1           10.4544535101        7.7444007634        7.5900044673  CLST         512          1.0000000000
      1536       512  TIP3  H2           10.1256008023        7.7217171463        6.1946603155  CLST         512          1.0000000000
      1537       513  TIP3  OH2         -11.7471949048       10.4280950912        9.3235538833  CLST         513          1.0000000000
      1538       513  TIP3  H1          -11.2143269164       11.2360445613        9.5209389160  CLST         513          1.0000000000
      1539       513  TIP3  H2          -11.4029683821        9.9318813333       10.1215219611  CLST         513          1.0000000000
      1540       514  TIP3  OH2          -4.7794255060        4.9658785561        0.2113120156  CLST         514          1.0000000000
      1541       514  TIP3  H1           -4.0456237081        5.3743685252        0.7027352933  CLST         514          1.0000000000
      1542       514  TIP3  H2           -4.3720569715        4.9042918586       -0.7019393225  CLST         514          1.0000000000
      1543       515  TIP3  OH2          -0.6653378119        0.8681165996       -4.3586907274  CLST         515          1.0000000000
      1544       515  TIP3  H1           -1.4356651222        1.3877917567       -4.0701098588  CLST         515          1.0000000000
      1545       515  TIP3  H2           -0.0506256184        1.6479123070       -4.5396371432  CLST         515          1.0000000000
      1546       516  TIP3  OH2          -7.2933279056       -8.5511169252        6.3853561786  CLST         516          1.0000000000
      1547       516  TIP3  H1           -7.5534078169       -8.3237442379        5.4746575620  CLST         516          1.0000000000
      1548       516  TIP3  H2           -7.7707647518       -7.7440761228        6.8133827610  CLST         516          1.0000000000
      1549       517  TIP3  OH2           0.6048891493       10.9226431745       11.5644852986  CLST         517          1.0000000000
      1550       517  TIP3  H1            0.7455415111       10.9501499956       10.6219778315  CLST         517          1.0000000000
      1551       517  TIP3  H2           -0.3908005421       11.0395634443       11.5925015512  CLST         517          1.0000000000
      1552       518  TIP3  OH2         -11.6367658661       -3.4437508178      -11.4348580173  CLST         518          1.0000000000
      1553       518  TIP3  H1          -12.0505542563       -3.2404485320      -12.2905471823  CLST         518          1.0000000000
      1554       518  TIP3  H2          -10.9347184748       -3.9488332444      -11.7823513279  CLST         518          1.0000000000
      1555       519  TIP3  OH2           2.0315700492        3.3638105548        3.4082834356  CLST         519          1.0000000000
      1556       519  TIP3  H1            1.6116596389        4.0688820703        2.8643765612  CLST         519          1.0000000000
      1557       519  TIP3  H2            1.8997413039        2.5908279504        2.7591869757  CLST         519          1.0000000000
      1558       520  TIP3  OH2         -10.2239100331        6.1796972193        8.2588307131  CLST         520          1.0000000000
      1559       520  TIP3  H1          -10.6303112528        5.6880387195        7.5075968464  CLST         520          1.0000000000
      1560       520  TIP3  H2          -10.5833581787        5.5732067564        8.9881144290  CLST         520          1.0000000000
      1561       521  TIP3  OH2           8.3819333535       -8.8433067913       -9.5602900665  CLST         521          1.0000000000
      1562       521  TIP3  H1            8.6697535233       -9.3335809890      -10.3883174598  CLST         521          1.0000000000
      1563       521  TIP3  H2            8.1843822103       -7.9960626950      -10.0190199273  CLST         521          1.0000000000
      1564       522  TIP3  OH2          -5.5591586194       -7.0866491590        8.1304507282  CLST         522          1.0000000000
      1565       522  TIP3  H1           -5.7096918477       -7.9000152856        7.6212376554  CLST         522          1.0000000000
      1566       522  TIP3  H2           -4.6133257872       -7.2443871693        8.3911209675  CLST         522          1.0000000000
      1567       523  TIP3  OH2          -4.1014601323       12.1043064795      -13.5950358036  CLST         523          1.0000000000
      1568       523  TIP3  H1           -3.1020646985       11.9814513327      -13.3916078599  CLST         523          1.0000000000
      1569       523  TIP3  H2           -4.4091122675       12.5852241669      -14.1976395962  CLST         523          1.0000000000
      1570       524  TIP3  OH2           6.9839030177        3.8773083429       -1.7584100553  CLST         524          1.0000000000
      1571       524  TIP3  H1            7.4177297537        3.2594741196       -2.3586199620  CLST         524          1.0000000000
      1572       524  TIP3  H2            6.0373148387        3.7872726570       -2.0155740556  CLST         524          1.0000000000
      1573       525  TIP3  OH2           0.4446023560        6.8481686978       -2.5131993098  CLST         525          1.0000000000
      1574       525  TIP3  H1            0.5649875693        6.1718184478       -3.2134104580  CLST         525          1.0000000000
      1575       525  TIP3  H2            0.1328576634        6.1807179090       -1.8270123344  CLST         525          1.0000000000
      1576       526  TIP3  OH2           7.0832373429       -5.5469893676       -3.5622196170  CLST         526          1.0000000000
      1577       526  TIP3  H1            7.2207125558       -5.6864316695       -4.5183132655  CLST         526          1.0000000000
      1578       526  TIP3  H2            7.9897744941       -5.7453899145       -3.2427699079  CLST         526          1.0000000000
      1579       527  TIP3  OH2           0.3741015705        7.2009072767        3.9563800611  CLST         527          1.0000000000
      1580       527  TIP3  H1            1.1013300259        7.6363297871        4.5108605643  CLST         527          1.0000000000
      1581       527  TIP3  H2           -0.1295390991        7.9096587767        3.5843693410  CLST         527          1.0000000000
      1582       528  TIP3  OH2          -2.7391379595        9.9088683797        8.7508747242  CLST         528          1.0000000000
      1583       528  TIP3  H1           -3.1283214805        9.6869435639        9.6125695836  CLST         528          1.0000000000
      1584       528  TIP3  H2           -3.5620880308        9.8518134311        8.2010640318  CLST         528          1.0000000000
      1585       529  TIP3  OH2          -5.9498726117       12.2743856091       -9.3248642806  CLST         529          1.0000000000
      1586       529  TIP3  H1           -5.0521113124       12.2478049277       -9.0127367723  CLST         529          1.0000000000
      1587       529  TIP3  H2           -5.8087955340       11.6801970074      -10.1040529955  CLST         529          1.0000000000
      1588       530  TIP3  OH2          -4.4371414061       -5.6414888812      -13.1090197612  CLST         530          1.0000000000
      1589       530  TIP3  H1           -4.3727327821       -6.6542897563      -13.2179855888  CLST         530          1.0000000000
      1590       530  TIP3  H2           -3.5100991560       -5.3809680066      -12.9102911226  CLST         530          1.0000000000
      1591       531  TIP3  OH2         -11.5465442751       -0.2395870890       10.4265248004  CLST         531          1.0000000000
      1592       531  TIP3  H1          -12.3318685312       -0.1403716912       10.9971651376  CLST         531          1.0000000000
      1593       531  TIP3  H2          -11.8738528937       -0.8513653113        9.7615754800  CLST         531          1.0000000000
      1594       532  TIP3  OH2         -12.0665571859       -3.1605787043       -8.7644359113  CLST         532          1.0000000000
      1595       532  TIP3  H1          -12.7372655104       -3.8393694873       -8.7664585882  CLST         532          1.0000000000
      1596       532  TIP3  H2          -11.9488785113       -3.1086625453       -9.7684534694  CLST         532          1.0000000000
      1597       533  TIP3  OH2          -2.7960054308       -7.2683546662        8.7718297165  CLST         533          1.0000000000
      1598       533  TIP3  H1           -2.1696044328       -7.8826364473        8.3319053589  CLST         533          1.0000000000
      1599       533  TIP3  H2           -2.4041746986       -6.4109246480        8.4319227264  CLST         533          1.0000000000
      1600       534  TIP3  OH2           0.4223905192      -13.1360892764       -7.6463319441  CLST         534          1.0000000000
      1601       534  TIP3  H1            0.5279136764      -12.9212103498       -8.6024740650  CLST         534          1.0000000000
      1602       534  TIP3  H2            1.3788930283      -13.2467177313       -7.3768005412  CLST         534          1.0000000000
      1603       535  TIP3  OH2           2.6450013474        3.2311213755       -7.5487089748  CLST         535          1.0000000000
      1604       535  TIP3  H1            3.2430555000        2.6456582827       -7.0049632046  CLST         535          1.0000000000
      1605       535  TIP3  H2            1.9620567650        3.3762660811       -6.8624119282  CLST         535          1.0000000000
      1606       536  TIP3  OH2           8.0028066961      -12.7488599090       -3.3529514266  CLST         536          1.0000000000
      1607       536  TIP3  H1            7.5367365321      -12.7221761808       -4.2209048444  CLST         536          1.0000000000
      1608       536  TIP3  H2            8.3735747443      -13.5896094115       -3.5979201268  CLST         536          1.0000000000
      1609       537  TIP3  OH2          11.8031405579       -2.6751911626       -7.6333692598  CLST         537          1.0000000000
      1610       537  TIP3  H1           11.0305684403       -2.0544853773       -7.6881199822  CLST         537          1.0000000000
      1611       537  TIP3  H2           12.3219600761       -2.1480295361       -6.9616136570  CLST         537          1.0000000000
      1612       538  TIP3  OH2          -5.2032223016      -10.9401792245        0.7611170858  CLST         538          1.0000000000
      1613       538  TIP3  H1           -4.3729516806      -11.3316852705        1.2121207611  CLST         538          1.0000000000
      1614       538  TIP3  H2           -4.8510449432       -9.9969929760        0.8574201972  CLST         538          1.0000000000
      1615       539  TIP3  OH2           2.4607307538       -5.0643360799        0.9075975388  CLST         539          1.0000000000
      1616       539  TIP3  H1            1.5525063125       -5.3094788234        1.2538535660  CLST         539          1.0000000000
      1617       539  TIP3  H2            2.2414836535       -5.3623649958        0.0038342724  CLST         539          1.0000000000
      1618       540  TIP3  OH2           4.0662230612       -6.7952606667        4.7580491643  CLST         540          1.0000000000
      1619       540  TIP3  H1            3.7991836890       -7.7426400246        4.9344205359  CLST         540          1.0000000000
      1620       540  TIP3  H2            4.3045882606       -6.9005900627        3.7928776693  CLST         540          1.0000000000
      1621       541  TIP3  OH2          -5.6133531562       10.5462122175        2.1175797629  CLST         541          1.0000000000
      1622       541  TIP3  H1           -6.1528798753       10.5945780508        2.9765933861  CLST         541          1.0000000000
      1623       541  TIP3  H2           -4.9665810461       11.3030139544        2.2174221490  CLST         541          1.0000000000
      1624       542  TIP3  OH2         -10.8981635971       14.3821744069        5.5263545185  CLST         542          1.0000000000
      1625       542  TIP3  H1          -10.9653266895       15.2632466481        5.1867684138  CLST         542          1.0000000000
      1626       542  TIP3  H2          -10.6454644786       13.9531936945        4.6367894547  CLST         542          1.0000000000
      1627       543  TIP3  OH2         -10.5781905828       11.4316861451       -2.4566093219  CLST         543          1.0000000000
      1628       543  TIP3  H1          -11.2236726755       10.7249973374       -2.7052798447  CLST         543          1.0000000000
      1629       543  TIP3  H2          -10.5045467940       11.9358815397       -3.2837034126  CLST         543          1.0000000000
      1630       544  TIP3  OH2          -0.4413510890        5.6908151448       -5.6433695048  CLST         544          1.0000000000
      1631       544  TIP3  H1           -0.3048392839        5.2321031809       -6.5152980232  CLST         544          1.0000000000
      1632       544  TIP3  H2            0.1640037376        5.2558319013       -5.0251009209  CLST         544          1.0000000000
      1633       545  TIP3  OH2          -8.0061126628        2.4885533145      -12.6347301709  CLST         545          1.0000000000
      1634       545  TIP3  H1           -8.1636908383        2.2332144307      -13.5899473409  CLST         545          1.0000000000
      1635       545  TIP3  H2           -8.6412125673        3.2911803118      -12.5593248728  CLST         545          1.0000000000
      1636       546  TIP3  OH2           3.8708403077       11.0198524614       -2.2679521367  CLST         546          1.0000000000
      1637       546  TIP3  H1            3.4571480140       10.1354570140       -2.2825444312  CLST         546          1.0000000000
      1638       546  TIP3  H2            4.6853893418       10.7865303514       -1.5621856475  CLST         546          1.0000000000
      1639       547  TIP3  OH2          -3.4982342890       -2.1868998446      -11.1740848687  CLST         547          1.0000000000
      1640       547  TIP3  H1           -3.3702387763       -2.2138001707      -10.2060704682  CLST         547          1.0000000000
      1641       547  TIP3  H2           -3.9303281863       -1.3174780667      -11.2966267984  CLST         547          1.0000000000
      1642       548  TIP3  OH2          10.5797884761        2.4647678607        1.4971713229  CLST         548          1.0000000000
      1643       548  TIP3  H1            9.6269428400        2.1672466192        1.6219006442  CLST         548          1.0000000000
      1644       548  TIP3  H2           10.4572912076        3.2978730526        2.0065524154  CLST         548          1.0000000000
