* Geometry rescue: heat segment 5/8 at step 500
*
        1644  EXT
         1         1  TIP3  OH2           4.4850315638       -1.5345185148       -2.1197110558  CLST           1          1.0000000000
         2         1  TIP3  H1            4.8977215561       -1.6348295880       -1.1968939147  CLST           1          1.0000000000
         3         1  TIP3  H2            5.1537426749       -2.1391013365       -2.5764661704  CLST           1          1.0000000000
         4         2  TIP3  OH2          10.5638932502        7.4609109740      -11.8542746488  CLST           2          1.0000000000
         5         2  TIP3  H1           10.9645895626        7.3192214822      -10.9458010844  CLST           2          1.0000000000
         6         2  TIP3  H2            9.6257370970        7.4070857949      -11.6198096352  CLST           2          1.0000000000
         7         3  TIP3  OH2           8.8970261546        5.3511075639       -4.2998740415  CLST           3          1.0000000000
         8         3  TIP3  H1            9.2814512065        5.6330455064       -3.4250029067  CLST           3          1.0000000000
         9         3  TIP3  H2            8.4288392016        6.2043818971       -4.4979439629  CLST           3          1.0000000000
        10         4  TIP3  OH2          -2.8875671298        6.7100435523       10.0969460198  CLST           4          1.0000000000
        11         4  TIP3  H1           -3.6236382341        7.1019196411        9.5369211289  CLST           4          1.0000000000
        12         4  TIP3  H2           -3.0794699815        7.2690862742       10.8657731053  CLST           4          1.0000000000
        13         5  TIP3  OH2           9.1990494274        6.1308296591       10.7756092624  CLST           5          1.0000000000
        14         5  TIP3  H1            8.5971723371        5.6442589057       11.4568233095  CLST           5          1.0000000000
        15         5  TIP3  H2            9.2504699888        5.4086183772       10.1188326642  CLST           5          1.0000000000
        16         6  TIP3  OH2          10.5405591959       -5.8686965030      -11.7407359252  CLST           6          1.0000000000
        17         6  TIP3  H1           11.0123583416       -5.3803808189      -11.0203264621  CLST           6          1.0000000000
        18         6  TIP3  H2           10.5922162183       -5.1864250532      -12.4672627441  CLST           6          1.0000000000
        19         7  TIP3  OH2         -12.3419301808        8.3520191390        5.8057253758  CLST           7          1.0000000000
        20         7  TIP3  H1          -12.7195411286        9.1827033510        6.1775200575  CLST           7          1.0000000000
        21         7  TIP3  H2          -11.4829527927        8.4091452169        6.2965951624  CLST           7          1.0000000000
        22         8  TIP3  OH2          -4.4401266027       -8.3485503405        0.6025710359  CLST           8          1.0000000000
        23         8  TIP3  H1           -4.6559316651       -7.9045957201        1.4203977697  CLST           8          1.0000000000
        24         8  TIP3  H2           -3.7329971156       -7.7370879118        0.2688808271  CLST           8          1.0000000000
        25         9  TIP3  OH2           2.4597479000      -14.2978985418       -4.0695458761  CLST           9          1.0000000000
        26         9  TIP3  H1            1.5557955361      -14.4951135468       -3.7745677964  CLST           9          1.0000000000
        27         9  TIP3  H2            2.5306842006      -13.5328772814       -3.4847777130  CLST           9          1.0000000000
        28        10  TIP3  OH2         -14.1833478667       -1.1840175185       -0.3211072928  CLST          10          1.0000000000
        29        10  TIP3  H1          -13.6675160900       -1.5185285959       -1.1493718694  CLST          10          1.0000000000
        30        10  TIP3  H2          -14.1409308307       -1.9083960006        0.2545076030  CLST          10          1.0000000000
        31        11  TIP3  OH2           6.8560484889        6.6141688425       -1.8862709956  CLST          11          1.0000000000
        32        11  TIP3  H1            7.0990332538        5.7038527550       -1.6236062161  CLST          11          1.0000000000
        33        11  TIP3  H2            6.7949954088        6.5317691969       -2.8741248531  CLST          11          1.0000000000
        34        12  TIP3  OH2          -8.2398897549        2.4994747942        1.9741118697  CLST          12          1.0000000000
        35        12  TIP3  H1           -7.6899867264        2.7928794243        1.1761676397  CLST          12          1.0000000000
        36        12  TIP3  H2           -9.1357454682        2.5865926051        1.4833775296  CLST          12          1.0000000000
        37        13  TIP3  OH2           7.7527279703        2.4340718549        2.1595341608  CLST          13          1.0000000000
        38        13  TIP3  H1            7.6641212722        3.3236430161        1.7330666199  CLST          13          1.0000000000
        39        13  TIP3  H2            7.6340795354        2.7403600262        3.1041723835  CLST          13          1.0000000000
        40        14  TIP3  OH2          -0.2705435433        2.1681094605        7.9661253155  CLST          14          1.0000000000
        41        14  TIP3  H1            0.0174481394        3.0892938085        7.6540270053  CLST          14          1.0000000000
        42        14  TIP3  H2            0.4319530365        1.6792071093        7.4538559847  CLST          14          1.0000000000
        43        15  TIP3  OH2          -8.9495842409       -3.8158368494      -12.7602604408  CLST          15          1.0000000000
        44        15  TIP3  H1           -8.0567820282       -3.8123642850      -13.2261208098  CLST          15          1.0000000000
        45        15  TIP3  H2           -8.5036386831       -4.4617085494      -12.0865132121  CLST          15          1.0000000000
        46        16  TIP3  OH2          -3.6883410262      -12.7413467436       -6.1306520859  CLST          16          1.0000000000
        47        16  TIP3  H1           -4.2400126893      -12.8888529172       -5.3163068135  CLST          16          1.0000000000
        48        16  TIP3  H2           -2.7763511851      -12.7023110131       -5.6966517301  CLST          16          1.0000000000
        49        17  TIP3  OH2           4.8399792946      -13.3869264861       -8.5028030818  CLST          17          1.0000000000
        50        17  TIP3  H1            5.4910660242      -13.1784472330       -7.8095734634  CLST          17          1.0000000000
        51        17  TIP3  H2            4.0904433416      -13.6224407276       -7.8763092364  CLST          17          1.0000000000
        52        18  TIP3  OH2         -11.5895165331       -6.7054120493       -1.5610577407  CLST          18          1.0000000000
        53        18  TIP3  H1          -12.0540727303       -5.8355913076       -1.7153784914  CLST          18          1.0000000000
        54        18  TIP3  H2          -11.7364617479       -7.0807035381       -2.4947097304  CLST          18          1.0000000000
        55        19  TIP3  OH2          11.2242238109       -0.0451895871        9.5131337239  CLST          19          1.0000000000
        56        19  TIP3  H1           10.7217439970       -0.9684293474        9.7383512358  CLST          19          1.0000000000
        57        19  TIP3  H2           11.1688527937       -0.1369029513        8.4389385481  CLST          19          1.0000000000
        58        20  TIP3  OH2         -13.1982213015        1.3076013110        2.7630902877  CLST          20          1.0000000000
        59        20  TIP3  H1          -12.9357176843        1.1650865102        1.8251961676  CLST          20          1.0000000000
        60        20  TIP3  H2          -14.1240824579        1.1316880603        2.7525046738  CLST          20          1.0000000000
        61        21  TIP3  OH2         -10.0248731624       12.5760246202       -5.4351769520  CLST          21          1.0000000000
        62        21  TIP3  H1          -10.2966296816       13.4621320837       -5.6362373244  CLST          21          1.0000000000
        63        21  TIP3  H2           -9.4338030324       12.3857875755       -6.1692723341  CLST          21          1.0000000000
        64        22  TIP3  OH2           2.9075551142       12.2558345794       -6.5226200217  CLST          22          1.0000000000
        65        22  TIP3  H1            3.3005400997       11.3653974647       -6.3381255326  CLST          22          1.0000000000
        66        22  TIP3  H2            3.1001971315       12.6854290827       -5.6428422208  CLST          22          1.0000000000
        67        23  TIP3  OH2           5.5926551376       -1.8049472278       11.5216919875  CLST          23          1.0000000000
        68        23  TIP3  H1            5.1908218406       -2.2640320329       10.7531934713  CLST          23          1.0000000000
        69        23  TIP3  H2            5.4056814934       -0.8737997482       11.2180779491  CLST          23          1.0000000000
        70        24  TIP3  OH2          -0.1978445417        1.2384921337        4.4982630386  CLST          24          1.0000000000
        71        24  TIP3  H1            0.7228864262        1.1388477869        4.7801472326  CLST          24          1.0000000000
        72        24  TIP3  H2           -0.6480735283        0.4707866745        4.9618746063  CLST          24          1.0000000000
        73        25  TIP3  OH2           3.3009893673        2.0720399750       -2.6175240365  CLST          25          1.0000000000
        74        25  TIP3  H1            3.6111382529        1.4686441555       -1.8638787609  CLST          25          1.0000000000
        75        25  TIP3  H2            3.7382449931        2.8758613012       -2.3712831262  CLST          25          1.0000000000
        76        26  TIP3  OH2          11.4468478243        5.4044920449       -6.5511266297  CLST          26          1.0000000000
        77        26  TIP3  H1           10.6103686588        5.0846051439       -6.9753357569  CLST          26          1.0000000000
        78        26  TIP3  H2           11.0701971703        6.2139641174       -6.1456640912  CLST          26          1.0000000000
        79        27  TIP3  OH2         -10.2760878657        7.2883091364       -5.5299051639  CLST          27          1.0000000000
        80        27  TIP3  H1          -10.2538910272        7.9632682885       -4.8243646434  CLST          27          1.0000000000
        81        27  TIP3  H2          -10.6797099437        7.7724518859       -6.2260115266  CLST          27          1.0000000000
        82        28  TIP3  OH2          -4.2664856655      -10.2655429404       -6.7785443761  CLST          28          1.0000000000
        83        28  TIP3  H1           -4.1442299899      -11.2840129335       -6.5812150056  CLST          28          1.0000000000
        84        28  TIP3  H2           -4.9771816220      -10.1060671262       -6.0902710437  CLST          28          1.0000000000
        85        29  TIP3  OH2         -10.6689492239        7.6347657003       -2.5845696309  CLST          29          1.0000000000
        86        29  TIP3  H1          -10.2356716211        8.3128503019       -1.8788756959  CLST          29          1.0000000000
        87        29  TIP3  H2          -11.5258975086        8.1319370290       -2.8218816243  CLST          29          1.0000000000
        88        30  TIP3  OH2           8.8208778095      -10.3673972972       -2.1587661799  CLST          30          1.0000000000
        89        30  TIP3  H1            9.3397536814      -10.7496475096       -1.4377871429  CLST          30          1.0000000000
        90        30  TIP3  H2            8.5990837456      -11.2055215406       -2.6724151749  CLST          30          1.0000000000
        91        31  TIP3  OH2          -9.7796139424       -1.2074234557      -13.1633230643  CLST          31          1.0000000000
        92        31  TIP3  H1           -9.6835373853       -2.1548000616      -12.9555511303  CLST          31          1.0000000000
        93        31  TIP3  H2           -9.6973607568       -0.8385343169      -12.2579138486  CLST          31          1.0000000000
        94        32  TIP3  OH2          -8.6575296295       -6.4417635191        6.8827614342  CLST          32          1.0000000000
        95        32  TIP3  H1           -9.6020237802       -6.3938723313        7.0937719046  CLST          32          1.0000000000
        96        32  TIP3  H2           -8.5148131315       -5.6912599812        6.2392155341  CLST          32          1.0000000000
        97        33  TIP3  OH2          11.7788197370       -8.8930508821        8.8113097667  CLST          33          1.0000000000
        98        33  TIP3  H1           11.6978872136       -9.8586055062        8.9895491501  CLST          33          1.0000000000
        99        33  TIP3  H2           11.5024006288       -8.6307878417        9.7064047760  CLST          33          1.0000000000
       100        34  TIP3  OH2           4.1918940412       -3.7956887257        2.9712924416  CLST          34          1.0000000000
       101        34  TIP3  H1            3.6402668211       -3.9800694113        2.1668187527  CLST          34          1.0000000000
       102        34  TIP3  H2            4.2062384513       -4.6870006527        3.3536335120  CLST          34          1.0000000000
       103        35  TIP3  OH2           6.2430514648       -0.7907999839        4.4017551482  CLST          35          1.0000000000
       104        35  TIP3  H1            5.3847529064       -1.0514458080        4.7539012049  CLST          35          1.0000000000
       105        35  TIP3  H2            6.6816588149       -0.2212821608        5.1191050007  CLST          35          1.0000000000
       106        36  TIP3  OH2          -1.5604457774        1.4465693648        2.2303772621  CLST          36          1.0000000000
       107        36  TIP3  H1           -2.3469072143        0.9333179977        2.4018677259  CLST          36          1.0000000000
       108        36  TIP3  H2           -1.0266054859        1.2565842259        3.0523467924  CLST          36          1.0000000000
       109        37  TIP3  OH2          -4.4308478351       -8.2758111650      -12.9917492246  CLST          37          1.0000000000
       110        37  TIP3  H1           -4.9503301853       -8.5339619479      -12.2002655242  CLST          37          1.0000000000
       111        37  TIP3  H2           -4.1858274050       -9.1702393609      -13.3977618904  CLST          37          1.0000000000
       112        38  TIP3  OH2          -3.0969003602        2.1510655133       -4.3417058293  CLST          38          1.0000000000
       113        38  TIP3  H1           -2.9739882763        3.1042663504       -4.5719760116  CLST          38          1.0000000000
       114        38  TIP3  H2           -3.6840632183        1.8985057303       -5.0871584547  CLST          38          1.0000000000
       115        39  TIP3  OH2           1.6731554894      -10.9164515684        2.2117545394  CLST          39          1.0000000000
       116        39  TIP3  H1            1.4083689933      -11.4994635080        2.9421795411  CLST          39          1.0000000000
       117        39  TIP3  H2            0.7937917001      -10.5180001955        1.9693387842  CLST          39          1.0000000000
       118        40  TIP3  OH2          -7.0806299673       12.4703869103        8.3283613417  CLST          40          1.0000000000
       119        40  TIP3  H1           -7.9657361593       12.7181258635        8.0017881109  CLST          40          1.0000000000
       120        40  TIP3  H2           -6.4301076699       12.7521526582        7.6713224664  CLST          40          1.0000000000
       121        41  TIP3  OH2           9.7173680139       -2.3579330010      -11.1511237006  CLST          41          1.0000000000
       122        41  TIP3  H1            8.9988054654       -2.9633046115      -10.7764530144  CLST          41          1.0000000000
       123        41  TIP3  H2            9.4590299687       -1.5348020742      -10.8020614270  CLST          41          1.0000000000
       124        42  TIP3  OH2           9.6139176484       10.2935315928      -10.6493466443  CLST          42          1.0000000000
       125        42  TIP3  H1           10.3864145663       10.2004639018      -10.0802878476  CLST          42          1.0000000000
       126        42  TIP3  H2           10.0092793993       10.1812753655      -11.5550031906  CLST          42          1.0000000000
       127        43  TIP3  OH2          12.0052574068       12.5815876896        7.7123588197  CLST          43          1.0000000000
       128        43  TIP3  H1           12.6484428856       13.1832150064        7.5524222971  CLST          43          1.0000000000
       129        43  TIP3  H2           12.4015587398       11.8276462923        8.2284738123  CLST          43          1.0000000000
       130        44  TIP3  OH2           7.7773275159        0.8897005481        5.8802285765  CLST          44          1.0000000000
       131        44  TIP3  H1            7.9876166169        1.4468498066        6.7128911603  CLST          44          1.0000000000
       132        44  TIP3  H2            7.5392645282        1.7215914272        5.3772552999  CLST          44          1.0000000000
       133        45  TIP3  OH2           7.8469781643        9.4699108308        7.3369087709  CLST          45          1.0000000000
       134        45  TIP3  H1            7.6823479433        8.5736959062        7.6342187412  CLST          45          1.0000000000
       135        45  TIP3  H2            8.7403104218        9.6082113742        7.7000980489  CLST          45          1.0000000000
       136        46  TIP3  OH2          -5.7436546770       -3.2504492943      -12.9444029826  CLST          46          1.0000000000
       137        46  TIP3  H1           -5.3319283117       -4.1754120632      -13.0922261628  CLST          46          1.0000000000
       138        46  TIP3  H2           -4.9708963108       -2.9988787031      -12.3762379905  CLST          46          1.0000000000
       139        47  TIP3  OH2           1.2762820653       -6.5604427139      -11.0350704804  CLST          47          1.0000000000
       140        47  TIP3  H1            1.7457839648       -5.7164437281      -10.8871198012  CLST          47          1.0000000000
       141        47  TIP3  H2            1.4424883514       -6.5842159927      -11.9865274107  CLST          47          1.0000000000
       142        48  TIP3  OH2           5.1462942018        5.5648254359        0.9817191391  CLST          48          1.0000000000
       143        48  TIP3  H1            6.0937129301        5.2322311068        0.8658665673  CLST          48          1.0000000000
       144        48  TIP3  H2            5.4265332601        6.5168039373        1.0279570858  CLST          48          1.0000000000
       145        49  TIP3  OH2          -3.4600672903      -10.6313951142      -13.6887231708  CLST          49          1.0000000000
       146        49  TIP3  H1           -2.5530281223      -10.6070523342      -13.5001281868  CLST          49          1.0000000000
       147        49  TIP3  H2           -3.7837999967      -11.2514548444      -13.0755534315  CLST          49          1.0000000000
       148        50  TIP3  OH2           2.7592035113        3.8112872521        5.9044249890  CLST          50          1.0000000000
       149        50  TIP3  H1            1.9461155177        4.2480029094        6.2769690571  CLST          50          1.0000000000
       150        50  TIP3  H2            2.4115241185        3.5069795710        5.0217612670  CLST          50          1.0000000000
       151        51  TIP3  OH2          -6.4972201813      -10.1231679882       -4.7512995391  CLST          51          1.0000000000
       152        51  TIP3  H1           -6.4909051589       -9.9614244745       -3.7828055048  CLST          51          1.0000000000
       153        51  TIP3  H2           -6.3375460027      -11.0976416208       -4.7886980163  CLST          51          1.0000000000
       154        52  TIP3  OH2           9.0488097246       -5.6840477610       -0.2096963690  CLST          52          1.0000000000
       155        52  TIP3  H1            9.3797012464       -5.5480559989       -1.1786856272  CLST          52          1.0000000000
       156        52  TIP3  H2            9.0138846513       -4.6857704017        0.0511218478  CLST          52          1.0000000000
       157        53  TIP3  OH2          -9.4688492365        9.9821844381      -12.4266324179  CLST          53          1.0000000000
       158        53  TIP3  H1           -9.7493791769       10.3340590796      -13.2464328550  CLST          53          1.0000000000
       159        53  TIP3  H2           -8.6599392689        9.5082556836      -12.6430480941  CLST          53          1.0000000000
       160        54  TIP3  OH2           0.5311552377       -3.0132206880       -9.4826350867  CLST          54          1.0000000000
       161        54  TIP3  H1            1.2547251522       -3.3706210174      -10.0345092969  CLST          54          1.0000000000
       162        54  TIP3  H2            0.0419952043       -2.4209602407      -10.1086967593  CLST          54          1.0000000000
       163        55  TIP3  OH2           2.8393412919       -4.0275177244      -14.8048364123  CLST          55          1.0000000000
       164        55  TIP3  H1            2.9408144845       -4.9358979880      -14.4308494318  CLST          55          1.0000000000
       165        55  TIP3  H2            3.0747130420       -4.1965828687      -15.6597429994  CLST          55          1.0000000000
       166        56  TIP3  OH2          -9.9533303307       11.2375371176        5.6650874957  CLST          56          1.0000000000
       167        56  TIP3  H1          -10.2121088912       10.3698166371        6.0303500040  CLST          56          1.0000000000
       168        56  TIP3  H2          -10.1964327637       11.1362307839        4.7150240109  CLST          56          1.0000000000
       169        57  TIP3  OH2           1.5691711171      -13.2190090101        0.4439790991  CLST          57          1.0000000000
       170        57  TIP3  H1            1.8901017677      -12.5064367895        1.0506691418  CLST          57          1.0000000000
       171        57  TIP3  H2            2.2647625074      -13.1221643969       -0.2496856611  CLST          57          1.0000000000
       172        58  TIP3  OH2         -13.1009539979       10.6849770909        6.9297974869  CLST          58          1.0000000000
       173        58  TIP3  H1          -12.5364273914       11.4816882510        6.7765338250  CLST          58          1.0000000000
       174        58  TIP3  H2          -12.7700745887       10.5651829164        7.8873043279  CLST          58          1.0000000000
       175        59  TIP3  OH2         -11.7558841939       -2.6395780489        5.5078228097  CLST          59          1.0000000000
       176        59  TIP3  H1          -11.8292399283       -2.2113438287        6.4231931357  CLST          59          1.0000000000
       177        59  TIP3  H2          -11.8066468574       -1.8007674222        4.9580358685  CLST          59          1.0000000000
       178        60  TIP3  OH2           1.4016606060        9.4986964119        8.5813058912  CLST          60          1.0000000000
       179        60  TIP3  H1            0.6844018920        8.9588275766        8.2020949756  CLST          60          1.0000000000
       180        60  TIP3  H2            1.9165594898        8.6934797268        8.9142078175  CLST          60          1.0000000000
       181        61  TIP3  OH2           2.7667009791       -0.6822292667       -5.5203179313  CLST          61          1.0000000000
       182        61  TIP3  H1            3.3774146832       -1.4690023544       -5.4146963023  CLST          61          1.0000000000
       183        61  TIP3  H2            2.1559719495       -1.0393562902       -6.2134877470  CLST          61          1.0000000000
       184        62  TIP3  OH2           8.0594695442        8.5450745536       12.3780250595  CLST          62          1.0000000000
       185        62  TIP3  H1            8.2058890823        7.8051845272       11.7928149306  CLST          62          1.0000000000
       186        62  TIP3  H2            8.3776468002        9.3115562196       11.7949134319  CLST          62          1.0000000000
       187        63  TIP3  OH2           4.5437067880       -6.9888725100      -10.2804175926  CLST          63          1.0000000000
       188        63  TIP3  H1            3.6647567285       -7.0218896410      -10.6936003680  CLST          63          1.0000000000
       189        63  TIP3  H2            5.1226738988       -7.4408964015      -10.9576995878  CLST          63          1.0000000000
       190        64  TIP3  OH2          -2.4308806447       11.7689992399        5.3854327102  CLST          64          1.0000000000
       191        64  TIP3  H1           -2.2748769084       10.7807835399        5.4005221831  CLST          64          1.0000000000
       192        64  TIP3  H2           -1.7495680902       11.8957986288        6.1565891878  CLST          64          1.0000000000
       193        65  TIP3  OH2          10.9236070829       -4.2382408812       -5.4719008202  CLST          65          1.0000000000
       194        65  TIP3  H1           11.3618524350       -4.0704904396       -6.3391731781  CLST          65          1.0000000000
       195        65  TIP3  H2           11.0526840658       -3.2799270938       -5.1498457821  CLST          65          1.0000000000
       196        66  TIP3  OH2           6.3416579163       -9.7630550852        9.3778060576  CLST          66          1.0000000000
       197        66  TIP3  H1            5.6078924454       -9.7652255800        8.6751549202  CLST          66          1.0000000000
       198        66  TIP3  H2            6.8673956259       -8.9815347617        9.0261392026  CLST          66          1.0000000000
       199        67  TIP3  OH2         -11.5922126295       -7.6808342715       -3.8861501415  CLST          67          1.0000000000
       200        67  TIP3  H1          -10.7127548123       -7.5097067686       -4.2716611883  CLST          67          1.0000000000
       201        67  TIP3  H2          -12.1692409887       -7.7052823131       -4.6306904301  CLST          67          1.0000000000
       202        68  TIP3  OH2          -0.5967376571       -5.5123840290        5.2774894698  CLST          68          1.0000000000
       203        68  TIP3  H1            0.3409467660       -5.4631982268        5.4847378872  CLST          68          1.0000000000
       204        68  TIP3  H2           -1.0535502245       -5.3975535039        6.1393845515  CLST          68          1.0000000000
       205        69  TIP3  OH2           7.9992037330       11.6201258986       -8.6859157829  CLST          69          1.0000000000
       206        69  TIP3  H1            8.3225758085       11.3743571996       -9.6036572162  CLST          69          1.0000000000
       207        69  TIP3  H2            8.9366563883       11.7461405435       -8.3500547275  CLST          69          1.0000000000
       208        70  TIP3  OH2          -0.9830091581      -12.4523890931       -0.5692621852  CLST          70          1.0000000000
       209        70  TIP3  H1            0.0147868243      -12.5654505326       -0.4523002616  CLST          70          1.0000000000
       210        70  TIP3  H2           -1.1927141247      -12.6286407187        0.3954306520  CLST          70          1.0000000000
       211        71  TIP3  OH2         -10.2731858281       -7.5165848508        1.9178480991  CLST          71          1.0000000000
       212        71  TIP3  H1          -10.9949768825       -6.8752776343        2.1680066738  CLST          71          1.0000000000
       213        71  TIP3  H2          -10.6930656713       -7.9801758459        1.1283762732  CLST          71          1.0000000000
       214        72  TIP3  OH2           0.2433087579        2.0190044659       -1.4072528769  CLST          72          1.0000000000
       215        72  TIP3  H1           -0.1033275913        1.0782685613       -1.4097539548  CLST          72          1.0000000000
       216        72  TIP3  H2            0.9482302284        1.8922466780       -2.0788074256  CLST          72          1.0000000000
       217        73  TIP3  OH2          -9.6810727001       13.2055253215        7.5235088777  CLST          73          1.0000000000
       218        73  TIP3  H1           -9.8913395495       12.5050987705        6.8185390622  CLST          73          1.0000000000
       219        73  TIP3  H2           -9.9859264198       13.9037268257        6.8547138545  CLST          73          1.0000000000
       220        74  TIP3  OH2           6.4978205912       -2.7334722414       -3.7386101905  CLST          74          1.0000000000
       221        74  TIP3  H1            6.7712243816       -3.6729119310       -3.9806418383  CLST          74          1.0000000000
       222        74  TIP3  H2            7.4117898405       -2.4158664952       -3.4880607662  CLST          74          1.0000000000
       223        75  TIP3  OH2           2.8677195134      -13.3231038682       -6.7103006585  CLST          75          1.0000000000
       224        75  TIP3  H1            3.0153428798      -12.3998733524       -6.3748653889  CLST          75          1.0000000000
       225        75  TIP3  H2            2.8477469964      -13.7510778637       -5.8045756856  CLST          75          1.0000000000
       226        76  TIP3  OH2           3.9665016480       -9.7158169730        1.2018227511  CLST          76          1.0000000000
       227        76  TIP3  H1            3.8343289586       -8.7820065924        1.4230350270  CLST          76          1.0000000000
       228        76  TIP3  H2            3.1321784372      -10.1197007793        1.5659902171  CLST          76          1.0000000000
       229        77  TIP3  OH2          10.3974954409       -8.2507760990       -2.7148857470  CLST          77          1.0000000000
       230        77  TIP3  H1            9.7513581718       -8.9717704304       -2.6865452377  CLST          77          1.0000000000
       231        77  TIP3  H2           10.5313588034       -8.2002432576       -3.6500822867  CLST          77          1.0000000000
       232        78  TIP3  OH2          10.7289128940       11.7206640509       -7.9855721499  CLST          78          1.0000000000
       233        78  TIP3  H1           11.3754763531       10.9860184641       -8.2038139355  CLST          78          1.0000000000
       234        78  TIP3  H2           11.1352803755       12.4787758802       -7.9717971869  CLST          78          1.0000000000
       235        79  TIP3  OH2          12.8075080153        0.6764983253        1.0220910630  CLST          79          1.0000000000
       236        79  TIP3  H1           13.3946107276        0.7002633897        1.7606811356  CLST          79          1.0000000000
       237        79  TIP3  H2           12.0600459088        1.2893796736        1.3024059097  CLST          79          1.0000000000
       238        80  TIP3  OH2          -7.6693213984        0.0832447249        6.5832192945  CLST          80          1.0000000000
       239        80  TIP3  H1           -7.5970483131        0.0486213432        5.6249237304  CLST          80          1.0000000000
       240        80  TIP3  H2           -6.6735480782        0.1535324418        6.7705089311  CLST          80          1.0000000000
       241        81  TIP3  OH2          -7.6130032820      -10.9307777074        2.0797771590  CLST          81          1.0000000000
       242        81  TIP3  H1           -6.7640884236      -11.1283150375        1.5671667738  CLST          81          1.0000000000
       243        81  TIP3  H2           -7.2597154046      -11.1807168752        2.9559617293  CLST          81          1.0000000000
       244        82  TIP3  OH2          -1.5920626066       -9.9555909007       -6.5141713233  CLST          82          1.0000000000
       245        82  TIP3  H1           -2.5633122487       -9.9137461032       -6.4295143196  CLST          82          1.0000000000
       246        82  TIP3  H2           -1.4157791488      -10.6132389329       -5.8047112620  CLST          82          1.0000000000
       247        83  TIP3  OH2          12.2607396595       -8.5656619860        1.6180247187  CLST          83          1.0000000000
       248        83  TIP3  H1           12.4201686346       -7.9120217105        2.3851809168  CLST          83          1.0000000000
       249        83  TIP3  H2           11.2671737831       -8.3849154570        1.5484906729  CLST          83          1.0000000000
       250        84  TIP3  OH2          -3.6514018748       11.0513186638       -2.2474636466  CLST          84          1.0000000000
       251        84  TIP3  H1           -4.5500637672       10.9170678771       -2.7522550610  CLST          84          1.0000000000
       252        84  TIP3  H2           -3.6184169702       11.8854171496       -1.9975057759  CLST          84          1.0000000000
       253        85  TIP3  OH2           5.7841959566       -2.1469909010        0.1137716761  CLST          85          1.0000000000
       254        85  TIP3  H1            5.9177483427       -1.7062358179        0.9588405622  CLST          85          1.0000000000
       255        85  TIP3  H2            6.6553836120       -2.6298075656        0.0791065019  CLST          85          1.0000000000
       256        86  TIP3  OH2           6.6550455476       -8.4637226021        5.8775938186  CLST          86          1.0000000000
       257        86  TIP3  H1            5.8710941230       -8.4476438621        6.5036862978  CLST          86          1.0000000000
       258        86  TIP3  H2            6.6378817151       -7.5057451947        5.5665223221  CLST          86          1.0000000000
       259        87  TIP3  OH2          -1.4393853198       -3.7270162291       10.6607964683  CLST          87          1.0000000000
       260        87  TIP3  H1           -0.8471042300       -4.0882698626       11.3547123824  CLST          87          1.0000000000
       261        87  TIP3  H2           -2.2762018593       -4.2753324586       10.7895639636  CLST          87          1.0000000000
       262        88  TIP3  OH2          -0.8072598647        4.4878676919       -7.9345758217  CLST          88          1.0000000000
       263        88  TIP3  H1           -1.0348083202        3.4896101609       -7.8495690986  CLST          88          1.0000000000
       264        88  TIP3  H2           -1.7457759642        4.7905592324       -8.0880336530  CLST          88          1.0000000000
       265        89  TIP3  OH2           3.5610236283        0.7150285516      -11.7130198877  CLST          89          1.0000000000
       266        89  TIP3  H1            3.9685653964        1.1739732368      -12.3760370847  CLST          89          1.0000000000
       267        89  TIP3  H2            3.2127588410        0.0218316267      -12.2471628772  CLST          89          1.0000000000
       268        90  TIP3  OH2           5.5102963249       11.0981963341       -5.5123820474  CLST          90          1.0000000000
       269        90  TIP3  H1            5.1323006245       11.8059178172       -4.9176802483  CLST          90          1.0000000000
       270        90  TIP3  H2            5.5661048754       11.6505087517       -6.3491960879  CLST          90          1.0000000000
       271        91  TIP3  OH2           5.9845650726       -7.9315279862      -12.3309364782  CLST          91          1.0000000000
       272        91  TIP3  H1            6.2385813784       -8.8885330423      -12.2427831907  CLST          91          1.0000000000
       273        91  TIP3  H2            6.8540891250       -7.5172627513      -12.1083189162  CLST          91          1.0000000000
       274        92  TIP3  OH2           9.8667690206       11.5519694419        2.4574851672  CLST          92          1.0000000000
       275        92  TIP3  H1           10.2017603581       11.5637394420        3.4200348122  CLST          92          1.0000000000
       276        92  TIP3  H2            9.7033778899       12.5431598422        2.3393690303  CLST          92          1.0000000000
       277        93  TIP3  OH2          -8.7084363092        7.3771041611        2.4753096048  CLST          93          1.0000000000
       278        93  TIP3  H1           -8.3747160836        8.1368112341        1.9895914172  CLST          93          1.0000000000
       279        93  TIP3  H2           -8.0131000295        7.0598940138        3.0479157287  CLST          93          1.0000000000
       280        94  TIP3  OH2         -14.1595961238        6.4997511884        6.4477805361  CLST          94          1.0000000000
       281        94  TIP3  H1          -13.3956946415        7.0923776999        6.1864609496  CLST          94          1.0000000000
       282        94  TIP3  H2          -14.4443904796        6.2946583670        5.5428904837  CLST          94          1.0000000000
       283        95  TIP3  OH2           9.7687745926        5.7099564254       -1.7526492047  CLST          95          1.0000000000
       284        95  TIP3  H1            9.7945378921        5.9476930023       -0.8020490658  CLST          95          1.0000000000
       285        95  TIP3  H2           10.2571702769        4.8444727798       -1.6937896687  CLST          95          1.0000000000
       286        96  TIP3  OH2           9.6165244620      -10.9247391288       11.2989201105  CLST          96          1.0000000000
       287        96  TIP3  H1           10.3790458304      -11.1998708246       10.7871644806  CLST          96          1.0000000000
       288        96  TIP3  H2            9.1354149399      -11.7886343621       11.3059468962  CLST          96          1.0000000000
       289        97  TIP3  OH2          -7.6731467930        6.9888536318        8.4492764688  CLST          97          1.0000000000
       290        97  TIP3  H1           -7.0344183808        5.7028401047        9.1902033762  CLST          97          1.0000000000
       291        97  TIP3  H2           -8.6123241159        7.2415332056        8.2899080584  CLST          97          1.0000000000
       292        98  TIP3  OH2           5.9897950088        0.5729032931       -3.3743362980  CLST          98          1.0000000000
       293        98  TIP3  H1            6.7103586927        0.3175666839       -2.7039133966  CLST          98          1.0000000000
       294        98  TIP3  H2            5.3286912758       -0.0569265187       -3.0491333200  CLST          98          1.0000000000
       295        99  TIP3  OH2          -7.0291533560      -11.6165814315        4.8842078979  CLST          99          1.0000000000
       296        99  TIP3  H1           -7.1512268931      -11.1191186722        5.7048826642  CLST          99          1.0000000000
       297        99  TIP3  H2           -6.2598884410      -12.1347824592        5.1471563140  CLST          99          1.0000000000
       298       100  TIP3  OH2           2.3290486952        0.3569437368       -9.2135920725  CLST         100          1.0000000000
       299       100  TIP3  H1            2.7706195457        0.5160498878      -10.0894889307  CLST         100          1.0000000000
       300       100  TIP3  H2            2.2499160530        1.2528127712       -8.8653169895  CLST         100          1.0000000000
       301       101  TIP3  OH2          12.6886882466       -6.9941881213        3.8968695701  CLST         101          1.0000000000
       302       101  TIP3  H1           12.7158534503       -7.3689484653        4.8642714494  CLST         101          1.0000000000
       303       101  TIP3  H2           13.4138728260       -6.4878811575        3.7656020570  CLST         101          1.0000000000
       304       102  TIP3  OH2         -12.1632360041       10.3828749691        1.3002233518  CLST         102          1.0000000000
       305       102  TIP3  H1          -12.8638821213       10.2747152599        2.0641862617  CLST         102          1.0000000000
       306       102  TIP3  H2          -12.6149836897        9.6816656997        0.7482999340  CLST         102          1.0000000000
       307       103  TIP3  OH2          -0.6661959748       -9.2794140740        7.8136316370  CLST         103          1.0000000000
       308       103  TIP3  H1            0.0192691156       -9.5200785579        8.5526467250  CLST         103          1.0000000000
       309       103  TIP3  H2           -1.2397730894      -10.0516591468        8.0148056791  CLST         103          1.0000000000
       310       104  TIP3  OH2          -4.3586661286      -12.1257422830       10.0470907729  CLST         104          1.0000000000
       311       104  TIP3  H1           -4.9687654371      -11.6868075628       10.6970922146  CLST         104          1.0000000000
       312       104  TIP3  H2           -5.0073134617      -12.7043546326        9.5792203153  CLST         104          1.0000000000
       313       105  TIP3  OH2          -5.2568591662       10.6308188169      -11.6154724778  CLST         105          1.0000000000
       314       105  TIP3  H1           -4.5129292890       11.3834056820      -12.6587705448  CLST         105          1.0000000000
       315       105  TIP3  H2           -5.8183398457       10.0886313437      -12.1957688162  CLST         105          1.0000000000
       316       106  TIP3  OH2           7.6163063801       -7.9382575836       -1.1848440413  CLST         106          1.0000000000
       317       106  TIP3  H1            8.2912194246       -7.3039360602       -0.9135664984  CLST         106          1.0000000000
       318       106  TIP3  H2            8.0042711549       -8.7774337288       -1.4779593635  CLST         106          1.0000000000
       319       107  TIP3  OH2          -8.3284298468       -4.6693021033        5.1331718394  CLST         107          1.0000000000
       320       107  TIP3  H1           -8.9837969310       -4.3159921412        4.5133659973  CLST         107          1.0000000000
       321       107  TIP3  H2           -7.4057133836       -4.3787914403        4.8235971585  CLST         107          1.0000000000
       322       108  TIP3  OH2         -10.6162268395        2.0330343266        9.5449327921  CLST         108          1.0000000000
       323       108  TIP3  H1           -9.6520542369        1.7520893157        9.4425259859  CLST         108          1.0000000000
       324       108  TIP3  H2          -11.0539627015        1.2227953224        9.9126692473  CLST         108          1.0000000000
       325       109  TIP3  OH2           2.2957395666        7.0808159855        8.8456835802  CLST         109          1.0000000000
       326       109  TIP3  H1            1.5279318250        6.5571831306        9.2151473971  CLST         109          1.0000000000
       327       109  TIP3  H2            3.0544689838        6.4272204744        8.9334694886  CLST         109          1.0000000000
       328       110  TIP3  OH2           1.5539509834       12.4100960399      -11.2474323860  CLST         110          1.0000000000
       329       110  TIP3  H1            2.1384988931       13.1393021923      -11.2000487719  CLST         110          1.0000000000
       330       110  TIP3  H2            1.3680537572       12.4391706230      -10.2471741644  CLST         110          1.0000000000
       331       111  TIP3  OH2          11.6530201750      -11.5872988950        9.5698227749  CLST         111          1.0000000000
       332       111  TIP3  H1           12.5172111291      -11.8574908343        9.8259456013  CLST         111          1.0000000000
       333       111  TIP3  H2           11.5001668563      -12.1614366238        8.7924042457  CLST         111          1.0000000000
       334       112  TIP3  OH2           6.4821792355       -0.0716605132        1.7647745354  CLST         112          1.0000000000
       335       112  TIP3  H1            6.9554449898        0.8111354759        1.9001880727  CLST         112          1.0000000000
       336       112  TIP3  H2            6.4958025046       -0.3790434775        2.6983482669  CLST         112          1.0000000000
       337       113  TIP3  OH2         -12.9927566367        1.0866742037       -0.0617852061  CLST         113          1.0000000000
       338       113  TIP3  H1          -13.4927420511        0.1871814778       -0.1252392026  CLST         113          1.0000000000
       339       113  TIP3  H2          -12.4045163445        0.9575315731       -0.8567927653  CLST         113          1.0000000000
       340       114  TIP3  OH2         -13.8679512171        3.6354466196       -0.3251540776  CLST         114          1.0000000000
       341       114  TIP3  H1          -13.7222981792        2.6627250684       -0.1755590881  CLST         114          1.0000000000
       342       114  TIP3  H2          -13.5844632916        3.6716040526       -1.2462679086  CLST         114          1.0000000000
       343       115  TIP3  OH2          -8.9152692130        0.3764196215      -10.7619070162  CLST         115          1.0000000000
       344       115  TIP3  H1           -8.3031503316        0.9677798276      -11.2743558651  CLST         115          1.0000000000
       345       115  TIP3  H2           -9.5668313644        1.0788327908      -10.6538539361  CLST         115          1.0000000000
       346       116  TIP3  OH2           6.9643462621       -5.5493064159        2.2418582175  CLST         116          1.0000000000
       347       116  TIP3  H1            7.5216834092       -5.7712780184        1.4813822139  CLST         116          1.0000000000
       348       116  TIP3  H2            7.0562403958       -4.5511956377        2.2859028613  CLST         116          1.0000000000
       349       117  TIP3  OH2          -0.8435407086       -0.0275420004       12.3833301201  CLST         117          1.0000000000
       350       117  TIP3  H1           -0.2837368987       -0.8216110973       12.5056736897  CLST         117          1.0000000000
       351       117  TIP3  H2           -0.5870770942        0.4276312870       13.2181929812  CLST         117          1.0000000000
       352       118  TIP3  OH2           0.2639745884       -9.6405690063        5.0061710791  CLST         118          1.0000000000
       353       118  TIP3  H1           -0.0305303436       -9.2464475722        5.8587259092  CLST         118          1.0000000000
       354       118  TIP3  H2            0.0736722936       -8.8360233527        4.4209468103  CLST         118          1.0000000000
       355       119  TIP3  OH2          -9.2582050666      -10.6567494425       -8.8047198375  CLST         119          1.0000000000
       356       119  TIP3  H1           -9.4732023861      -11.0210430464       -9.8434921857  CLST         119          1.0000000000
       357       119  TIP3  H2           -9.1777883076       -9.6992572336       -8.9879699875  CLST         119          1.0000000000
       358       120  TIP3  OH2           9.6478767297       -7.8835007763        1.3938071016  CLST         120          1.0000000000
       359       120  TIP3  H1            8.8513980693       -8.4259776989        1.3195287597  CLST         120          1.0000000000
       360       120  TIP3  H2            9.4842176312       -7.1454317591        0.7621616658  CLST         120          1.0000000000
       361       121  TIP3  OH2          -5.6509186281       -0.2987444990       -8.1328613199  CLST         121          1.0000000000
       362       121  TIP3  H1           -5.6381000882       -0.0633660820       -9.1100268609  CLST         121          1.0000000000
       363       121  TIP3  H2           -4.8614287638       -0.9398916239       -8.1902515836  CLST         121          1.0000000000
       364       122  TIP3  OH2          10.4066393234       12.0042714380        5.1848523276  CLST         122          1.0000000000
       365       122  TIP3  H1            9.5086654589       12.4362779750        5.3699887746  CLST         122          1.0000000000
       366       122  TIP3  H2           10.9013032441       12.4558507296        5.9185248678  CLST         122          1.0000000000
       367       123  TIP3  OH2          -7.4296487181       -5.4504163426      -11.2352729001  CLST         123          1.0000000000
       368       123  TIP3  H1           -6.9354859863       -6.1919191955      -11.5541317489  CLST         123          1.0000000000
       369       123  TIP3  H2           -7.2031240430       -5.4059896170      -10.2769806992  CLST         123          1.0000000000
       370       124  TIP3  OH2          -5.9962481498       -8.7179543211      -10.7728133317  CLST         124          1.0000000000
       371       124  TIP3  H1           -5.2484037919       -8.9381656099      -10.1387290067  CLST         124          1.0000000000
       372       124  TIP3  H2           -6.6339321693       -8.4354143028      -10.0522152628  CLST         124          1.0000000000
       373       125  TIP3  OH2         -13.4208515302        4.2045713664        8.1842163398  CLST         125          1.0000000000
       374       125  TIP3  H1          -12.9356984528        3.5821705401        7.5914101094  CLST         125          1.0000000000
       375       125  TIP3  H2          -13.7318044815        4.9307126584        7.6443289738  CLST         125          1.0000000000
       376       126  TIP3  OH2          -7.0723939629      -10.8843815406      -12.1874409539  CLST         126          1.0000000000
       377       126  TIP3  H1           -6.1511494284      -11.3630321078      -12.0754053602  CLST         126          1.0000000000
       378       126  TIP3  H2           -6.6746946575       -9.9632631776      -11.8789997819  CLST         126          1.0000000000
       379       127  TIP3  OH2          -7.4637293217      -11.7866717201       -7.1904472297  CLST         127          1.0000000000
       380       127  TIP3  H1           -7.9903125739      -12.5968372821       -7.0730247420  CLST         127          1.0000000000
       381       127  TIP3  H2           -7.9864381847      -11.4393091667       -7.9848249801  CLST         127          1.0000000000
       382       128  TIP3  OH2           9.9104505407        0.9007291933       -2.4594700797  CLST         128          1.0000000000
       383       128  TIP3  H1            9.0580855890        0.5444000761       -2.1173343086  CLST         128          1.0000000000
       384       128  TIP3  H2            9.6261470221        1.6555583056       -3.0599032822  CLST         128          1.0000000000
       385       129  TIP3  OH2          -7.6848443341        9.4336936143        0.9378530555  CLST         129          1.0000000000
       386       129  TIP3  H1           -6.8938171408        9.8975184181        1.3788213534  CLST         129          1.0000000000
       387       129  TIP3  H2           -7.1064992882        8.7907451726        0.4175161868  CLST         129          1.0000000000
       388       130  TIP3  OH2          -4.1582428031        3.9225017874        9.8537347098  CLST         130          1.0000000000
       389       130  TIP3  H1           -3.7450677016        4.7772124388        9.9754531577  CLST         130          1.0000000000
       390       130  TIP3  H2           -3.8145228381        3.4305704429       10.6941428983  CLST         130          1.0000000000
       391       131  TIP3  OH2           7.8488820340       -3.7774129077       -9.8607746115  CLST         131          1.0000000000
       392       131  TIP3  H1            7.8698678438       -2.9987422086       -9.2121668796  CLST         131          1.0000000000
       393       131  TIP3  H2            6.8684836708       -3.9702294226       -9.8069628798  CLST         131          1.0000000000
       394       132  TIP3  OH2         -11.4118781522       11.4035336064       12.4686549789  CLST         132          1.0000000000
       395       132  TIP3  H1          -10.9015181129       12.0323556070       11.8695666573  CLST         132          1.0000000000
       396       132  TIP3  H2          -11.7866667930       11.7768472030       13.1162655941  CLST         132          1.0000000000
       397       133  TIP3  OH2          10.3704276553        9.3320735868        8.5159112673  CLST         133          1.0000000000
       398       133  TIP3  H1           10.2654047694        9.0952340258        9.4668499578  CLST         133          1.0000000000
       399       133  TIP3  H2           11.2677765060        9.7070514020        8.5958245915  CLST         133          1.0000000000
       400       134  TIP3  OH2          -7.7133463445        5.7343194538       -6.1223900589  CLST         134          1.0000000000
       401       134  TIP3  H1           -8.6630184994        5.8913425364       -6.0723715858  CLST         134          1.0000000000
       402       134  TIP3  H2           -7.4417039192        5.8432793571       -5.1598000147  CLST         134          1.0000000000
       403       135  TIP3  OH2          10.8127224469      -11.0840127204      -13.1471906330  CLST         135          1.0000000000
       404       135  TIP3  H1           10.8152456705      -10.2878827747      -12.4674045587  CLST         135          1.0000000000
       405       135  TIP3  H2           11.0445433771      -10.9344561611      -13.9495999119  CLST         135          1.0000000000
       406       136  TIP3  OH2          -4.3444761067        1.8549504835       -6.9106577707  CLST         136          1.0000000000
       407       136  TIP3  H1           -4.7833596032        0.9997038486       -7.2256527998  CLST         136          1.0000000000
       408       136  TIP3  H2           -5.1789778656        2.3287459598       -6.6820704487  CLST         136          1.0000000000
       409       137  TIP3  OH2          12.8063173297       10.2765496743        9.1876346759  CLST         137          1.0000000000
       410       137  TIP3  H1           13.0058648340       10.2680296597       10.1791849700  CLST         137          1.0000000000
       411       137  TIP3  H2           13.5009450735        9.6215683794        8.9148118899  CLST         137          1.0000000000
       412       138  TIP3  OH2          -0.8712362156       -9.9340756369        1.7093779786  CLST         138          1.0000000000
       413       138  TIP3  H1           -1.0984352349       -9.4482122306        0.8980042483  CLST         138          1.0000000000
       414       138  TIP3  H2           -0.9580715222       -9.2320225193        2.4025755237  CLST         138          1.0000000000
       415       139  TIP3  OH2          -9.7185681996      -10.7215857717        4.5767237761  CLST         139          1.0000000000
       416       139  TIP3  H1          -10.1411648600      -10.7253590084        3.6813107318  CLST         139          1.0000000000
       417       139  TIP3  H2           -8.9069982090      -11.2826765382        4.5121066900  CLST         139          1.0000000000
       418       140  TIP3  OH2          -7.0411768214        3.5185845411       -0.2224775514  CLST         140          1.0000000000
       419       140  TIP3  H1           -6.1931749441        3.9761140008        0.0831648499  CLST         140          1.0000000000
       420       140  TIP3  H2           -7.6313265383        4.2913152792       -0.3979098811  CLST         140          1.0000000000
       421       141  TIP3  OH2           2.0370965436       -4.3528462205       -3.5733084920  CLST         141          1.0000000000
       422       141  TIP3  H1            1.7652687081       -3.4812985024       -3.2001899576  CLST         141          1.0000000000
       423       141  TIP3  H2            2.7018680526       -3.9497495801       -4.2209320270  CLST         141          1.0000000000
       424       142  TIP3  OH2         -11.6993567042        0.0092275482        4.7189437092  CLST         142          1.0000000000
       425       142  TIP3  H1          -11.4431288991        0.6462839840        5.3839325830  CLST         142          1.0000000000
       426       142  TIP3  H2          -12.3952873607        0.4371412548        4.2730247024  CLST         142          1.0000000000
       427       143  TIP3  OH2           9.3254859264       -5.9818483789       -8.2967592265  CLST         143          1.0000000000
       428       143  TIP3  H1            9.7972866858       -5.2559616510       -8.7742036738  CLST         143          1.0000000000
       429       143  TIP3  H2            9.8969728947       -6.7736356583       -8.4580235759  CLST         143          1.0000000000
       430       144  TIP3  OH2           3.0514877005       -2.8159606697        9.0760493779  CLST         144          1.0000000000
       431       144  TIP3  H1            2.2159406461       -2.4274124336        9.3632571012  CLST         144          1.0000000000
       432       144  TIP3  H2            3.4138167980       -2.0232947991        8.6250411554  CLST         144          1.0000000000
       433       145  TIP3  OH2         -10.3559456629       13.3885087770        3.0419463480  CLST         145          1.0000000000
       434       145  TIP3  H1          -10.7167356116       13.5013053380        2.0724166753  CLST         145          1.0000000000
       435       145  TIP3  H2          -10.2274567772       12.4038001037        2.8592695251  CLST         145          1.0000000000
       436       146  TIP3  OH2           9.0651988902        2.7185568342       -4.2160784763  CLST         146          1.0000000000
       437       146  TIP3  H1            9.0140259325        3.7190709595       -4.2710473170  CLST         146          1.0000000000
       438       146  TIP3  H2            8.3378637920        2.5623941100       -4.8958472203  CLST         146          1.0000000000
       439       147  TIP3  OH2         -10.9912999114       -0.4131015303       -4.2519269324  CLST         147          1.0000000000
       440       147  TIP3  H1          -10.0285721278       -0.6173356890       -4.3416861296  CLST         147          1.0000000000
       441       147  TIP3  H2          -11.3272409004       -0.7790874497       -5.1118690102  CLST         147          1.0000000000
       442       148  TIP3  OH2          -8.0233421393        1.2532533166        9.0100776562  CLST         148          1.0000000000
       443       148  TIP3  H1           -7.9765475650        0.8730940984        8.1080617049  CLST         148          1.0000000000
       444       148  TIP3  H2           -7.0179146140        1.4961168587        9.0235518280  CLST         148          1.0000000000
       445       149  TIP3  OH2           8.6360659829       -2.8515255100        0.7937887187  CLST         149          1.0000000000
       446       149  TIP3  H1            9.2025333203       -2.0692630256        0.5845251999  CLST         149          1.0000000000
       447       149  TIP3  H2            8.4359950939       -2.6918750835        1.7635220872  CLST         149          1.0000000000
       448       150  TIP3  OH2          -2.1371742320      -11.5172307273        8.4913758946  CLST         150          1.0000000000
       449       150  TIP3  H1           -2.9437793287      -11.7716833259        9.0042936204  CLST         150          1.0000000000
       450       150  TIP3  H2           -1.4416714608      -11.9269748434        9.1172513339  CLST         150          1.0000000000
       451       151  TIP3  OH2          -9.0989449382       -6.6376283882       -5.0203156347  CLST         151          1.0000000000
       452       151  TIP3  H1           -8.1568499744       -6.5521576241       -4.6551105158  CLST         151          1.0000000000
       453       151  TIP3  H2           -8.9404627180       -7.5047775696       -5.5256919528  CLST         151          1.0000000000
       454       152  TIP3  OH2           4.0260711455       -2.1450417059        5.0656242449  CLST         152          1.0000000000
       455       152  TIP3  H1            4.5500330461       -2.9483858218        5.4356483512  CLST         152          1.0000000000
       456       152  TIP3  H2            3.7826977723       -2.5103352163        4.1706023227  CLST         152          1.0000000000
       457       153  TIP3  OH2          -2.6973453776        4.8926106136      -14.2249013714  CLST         153          1.0000000000
       458       153  TIP3  H1           -1.7647671060        5.1371720809      -14.0769474891  CLST         153          1.0000000000
       459       153  TIP3  H2           -2.7726698874        4.3774707290      -13.4236817769  CLST         153          1.0000000000
       460       154  TIP3  OH2           4.5135456326       -6.9049475866        2.1046003099  CLST         154          1.0000000000
       461       154  TIP3  H1            5.4092224704       -6.5083011251        2.1474729498  CLST         154          1.0000000000
       462       154  TIP3  H2            4.0837042950       -6.2861725227        1.4395657936  CLST         154          1.0000000000
       463       155  TIP3  OH2           9.5432086374       -2.6876119448       10.1959835976  CLST         155          1.0000000000
       464       155  TIP3  H1            8.8415572069       -3.1524901553        9.6543170438  CLST         155          1.0000000000
       465       155  TIP3  H2            9.9549165516       -3.3810111273       10.6510422609  CLST         155          1.0000000000
       466       156  TIP3  OH2          -2.2195293324       11.4011287509       11.5986010475  CLST         156          1.0000000000
       467       156  TIP3  H1           -2.8794571800       12.1237414158       11.6523444479  CLST         156          1.0000000000
       468       156  TIP3  H2           -2.8769898384       10.6779349630       11.7387517615  CLST         156          1.0000000000
       469       157  TIP3  OH2           3.7570134874       -0.6777920981        7.1753861961  CLST         157          1.0000000000
       470       157  TIP3  H1            4.7035107627       -0.5745236884        7.2586417969  CLST         157          1.0000000000
       471       157  TIP3  H2            3.7551280273       -1.3530218333        6.4460936016  CLST         157          1.0000000000
       472       158  TIP3  OH2          10.6820948957        9.1442194099       13.2340927561  CLST         158          1.0000000000
       473       158  TIP3  H1            9.8660514950        8.7823851356       13.5768558865  CLST         158          1.0000000000
       474       158  TIP3  H2           10.2591691261        9.7149957129       12.5657101442  CLST         158          1.0000000000
       475       159  TIP3  OH2           0.3606638263      -12.2695708969        4.2435401721  CLST         159          1.0000000000
       476       159  TIP3  H1           -0.4514435160      -12.5206387512        4.8571096564  CLST         159          1.0000000000
       477       159  TIP3  H2            0.4207096906      -11.3511760257        4.6465187623  CLST         159          1.0000000000
       478       160  TIP3  OH2           7.3528267145       -3.5050600120        8.3300981918  CLST         160          1.0000000000
       479       160  TIP3  H1            6.7073052903       -3.7016155876        7.5661586622  CLST         160          1.0000000000
       480       160  TIP3  H2            7.0912233435       -2.5261642808        8.3141544811  CLST         160          1.0000000000
       481       161  TIP3  OH2          -2.5251971112       -2.2508928573        7.7548064626  CLST         161          1.0000000000
       482       161  TIP3  H1           -2.2582303704       -1.6763308429        8.5289267659  CLST         161          1.0000000000
       483       161  TIP3  H2           -3.4331005394       -2.4191549888        8.0993852696  CLST         161          1.0000000000
       484       162  TIP3  OH2          -0.6339773585        3.4701075126      -10.7011345642  CLST         162          1.0000000000
       485       162  TIP3  H1           -0.6045514762        4.1379247276      -11.4544416503  CLST         162          1.0000000000
       486       162  TIP3  H2           -0.2940939844        4.0687402705      -10.0178179103  CLST         162          1.0000000000
       487       163  TIP3  OH2         -10.0505788475        9.1505735064       11.2529036024  CLST         163          1.0000000000
       488       163  TIP3  H1          -11.2880703528        7.7800279793       11.5042491211  CLST         163          1.0000000000
       489       163  TIP3  H2          -10.5851093218        9.6222580160       11.7376485314  CLST         163          1.0000000000
       490       164  TIP3  OH2           4.0557481829      -10.4636522863       13.1873447863  CLST         164          1.0000000000
       491       164  TIP3  H1            4.6545920260       -9.8214092677       12.7720762273  CLST         164          1.0000000000
       492       164  TIP3  H2            4.7157518064      -11.1766220390       13.2103283324  CLST         164          1.0000000000
       493       165  TIP3  OH2         -12.1284865228       -5.3716826927        3.5427290486  CLST         165          1.0000000000
       494       165  TIP3  H1          -11.9210507807       -5.4632843142        4.5503473849  CLST         165          1.0000000000
       495       165  TIP3  H2          -13.0211786382       -5.4641080760        3.5040601042  CLST         165          1.0000000000
       496       166  TIP3  OH2          -1.5469244414       -6.2352297725      -10.3800037835  CLST         166          1.0000000000
       497       166  TIP3  H1           -0.6620726194       -6.5432870575      -10.5336205684  CLST         166          1.0000000000
       498       166  TIP3  H2           -2.0393158443       -7.0325950548      -10.4707980101  CLST         166          1.0000000000
       499       167  TIP3  OH2           8.1857192890       10.5954782817       -0.9542017381  CLST         167          1.0000000000
       500       167  TIP3  H1            8.5897757377       10.0906936463       -0.1612472611  CLST         167          1.0000000000
       501       167  TIP3  H2            8.5645026021        9.8899877488       -1.5687177201  CLST         167          1.0000000000
       502       168  TIP3  OH2          -0.7573547752      -13.4227083387        2.0549431930  CLST         168          1.0000000000
       503       168  TIP3  H1           -0.3205594565      -13.0898121862        2.8817067099  CLST         168          1.0000000000
       504       168  TIP3  H2            0.0462145854      -13.7864412878        1.6303704468  CLST         168          1.0000000000
       505       169  TIP3  OH2           5.0487427294        4.0694897338        3.3523127737  CLST         169          1.0000000000
       506       169  TIP3  H1            4.2156930585        3.5783395321        3.4445832042  CLST         169          1.0000000000
       507       169  TIP3  H2            5.0015529947        4.5492219779        2.4932034229  CLST         169          1.0000000000
       508       170  TIP3  OH2          -1.2243383566        4.2704472902        1.5230821436  CLST         170          1.0000000000
       509       170  TIP3  H1           -1.8982430276        4.9737559383        1.4159081855  CLST         170          1.0000000000
       510       170  TIP3  H2           -1.6892750091        3.4226169879        1.6227137120  CLST         170          1.0000000000
       511       171  TIP3  OH2          -2.9780884845        1.2034352742        7.3028993515  CLST         171          1.0000000000
       512       171  TIP3  H1           -2.3953398015        0.7928302400        6.5895876718  CLST         171          1.0000000000
       513       171  TIP3  H2           -2.2441535678        1.6667981285        7.7408150297  CLST         171          1.0000000000
       514       172  TIP3  OH2          -6.4218640039      -13.3147817356        8.1397193841  CLST         172          1.0000000000
       515       172  TIP3  H1           -6.7739952333      -14.1202452084        7.8650981128  CLST         172          1.0000000000
       516       172  TIP3  H2           -5.7663260065      -13.0511105530        7.4070503585  CLST         172          1.0000000000
       517       173  TIP3  OH2          10.2531831803      -12.6657819570        1.7666065401  CLST         173          1.0000000000
       518       173  TIP3  H1           10.5891438170      -12.7399906951        0.7877900206  CLST         173          1.0000000000
       519       173  TIP3  H2            9.4465029927      -12.1896294925        1.6240593810  CLST         173          1.0000000000
       520       174  TIP3  OH2           0.0969498742        5.4722597893        9.7475409929  CLST         174          1.0000000000
       521       174  TIP3  H1           -0.2241383292        4.8615709744       10.4491449299  CLST         174          1.0000000000
       522       174  TIP3  H2           -0.5730401368        6.1951327544        9.8397440370  CLST         174          1.0000000000
       523       175  TIP3  OH2          -5.6974595383       10.5079167300       -3.6331747405  CLST         175          1.0000000000
       524       175  TIP3  H1           -5.3508756402       10.2379858237       -4.4995285445  CLST         175          1.0000000000
       525       175  TIP3  H2           -6.6509748916       10.2669101299       -3.9156040120  CLST         175          1.0000000000
       526       176  TIP3  OH2           6.9172087891        9.3476315261       -7.7651447653  CLST         176          1.0000000000
       527       176  TIP3  H1            7.2858621946       10.2557799869       -8.0644442504  CLST         176          1.0000000000
       528       176  TIP3  H2            6.5808507567        9.6984089129       -6.9101044514  CLST         176          1.0000000000
       529       177  TIP3  OH2          -3.7532482495      -11.3910114533       -1.5203828659  CLST         177          1.0000000000
       530       177  TIP3  H1           -2.9038950784      -11.8322627851       -1.2909501350  CLST         177          1.0000000000
       531       177  TIP3  H2           -4.2640616506      -11.2683415760       -0.6473236340  CLST         177          1.0000000000
       532       178  TIP3  OH2          10.8309468124       -9.0538971434      -11.4515037436  CLST         178          1.0000000000
       533       178  TIP3  H1           10.9959176248       -8.9017006994      -10.5126955680  CLST         178          1.0000000000
       534       178  TIP3  H2           10.7624647451       -8.0962819071      -11.7004838858  CLST         178          1.0000000000
       535       179  TIP3  OH2           6.5917540320       -0.9755468618        8.3222504952  CLST         179          1.0000000000
       536       179  TIP3  H1            6.1956814056       -0.3962816890        9.0577542506  CLST         179          1.0000000000
       537       179  TIP3  H2            7.2489155054       -0.3383188847        7.9641364865  CLST         179          1.0000000000
       538       180  TIP3  OH2          -7.6139758706        8.0564641909        5.9841648185  CLST         180          1.0000000000
       539       180  TIP3  H1           -7.5082634206        7.5981284073        6.9306020301  CLST         180          1.0000000000
       540       180  TIP3  H2           -8.5246945180        8.3762444166        6.1330069655  CLST         180          1.0000000000
       541       181  TIP3  OH2           5.9726809305      -12.9746331944       -0.2845779409  CLST         181          1.0000000000
       542       181  TIP3  H1            6.8743982230      -12.7766684225       -0.6070957869  CLST         181          1.0000000000
       543       181  TIP3  H2            6.2113955793      -13.0408207853        0.6782445981  CLST         181          1.0000000000
       544       182  TIP3  OH2          -1.6271653292       10.5431287641      -10.5374001579  CLST         182          1.0000000000
       545       182  TIP3  H1           -0.8874090676       10.9040153215       -9.9312484070  CLST         182          1.0000000000
       546       182  TIP3  H2           -2.4024637673       10.6042736062       -9.9458628183  CLST         182          1.0000000000
       547       183  TIP3  OH2          -5.3168002886        3.4713093504      -12.4576026551  CLST         183          1.0000000000
       548       183  TIP3  H1           -5.1613122438        3.4596229294      -11.4634988655  CLST         183          1.0000000000
       549       183  TIP3  H2           -6.2334464774        3.0648658423      -12.3971707449  CLST         183          1.0000000000
       550       184  TIP3  OH2           3.0154942954        8.3213700715       -2.4865070284  CLST         184          1.0000000000
       551       184  TIP3  H1            3.1501268271        7.6767656046       -1.7588139093  CLST         184          1.0000000000
       552       184  TIP3  H2            2.0594465611        8.2215100606       -2.5009858115  CLST         184          1.0000000000
       553       185  TIP3  OH2           7.5092262275        4.6936441550       12.1205895201  CLST         185          1.0000000000
       554       185  TIP3  H1            7.8030012145        3.7185910169       12.1544146791  CLST         185          1.0000000000
       555       185  TIP3  H2            6.9783939684        4.8128802555       12.9466801732  CLST         185          1.0000000000
       556       186  TIP3  OH2           3.8109822127        5.9004373552       -5.1356899756  CLST         186          1.0000000000
       557       186  TIP3  H1            3.8954292021        6.8676010066       -4.9305329097  CLST         186          1.0000000000
       558       186  TIP3  H2            3.9899161029        5.9194275903       -6.0821515633  CLST         186          1.0000000000
       559       187  TIP3  OH2           4.0360961300        1.5090652534       -5.5555251994  CLST         187          1.0000000000
       560       187  TIP3  H1            4.1033190699        1.6788419671       -4.5796396040  CLST         187          1.0000000000
       561       187  TIP3  H2            3.6005683151        0.5821092944       -5.5683411213  CLST         187          1.0000000000
       562       188  TIP3  OH2          -4.4522838084       -1.5305343106        4.8177979253  CLST         188          1.0000000000
       563       188  TIP3  H1           -4.5674391697       -0.7226860267        4.2371075241  CLST         188          1.0000000000
       564       188  TIP3  H2           -4.8210463534       -1.1864586998        5.6741674501  CLST         188          1.0000000000
       565       189  TIP3  OH2          -5.0941865478        3.6755774603      -15.1333088499  CLST         189          1.0000000000
       566       189  TIP3  H1           -5.0791603347        3.4140418170      -14.1636590069  CLST         189          1.0000000000
       567       189  TIP3  H2           -4.2496732701        4.1400880938      -15.1069047892  CLST         189          1.0000000000
       568       190  TIP3  OH2           7.2335025533       -5.7837679440        5.1893733895  CLST         190          1.0000000000
       569       190  TIP3  H1            7.0857758383       -5.7046672836        4.2054250883  CLST         190          1.0000000000
       570       190  TIP3  H2            8.2030531166       -5.7535485816        5.1759252061  CLST         190          1.0000000000
       571       191  TIP3  OH2         -10.9772381793       -4.9647199340       -6.5524897967  CLST         191          1.0000000000
       572       191  TIP3  H1          -10.3620249234       -4.4323998034       -7.1190108546  CLST         191          1.0000000000
       573       191  TIP3  H2          -10.2667299779       -5.4110502438       -6.0287888647  CLST         191          1.0000000000
       574       192  TIP3  OH2           8.8687119171       14.3138728491        1.8850650416  CLST         192          1.0000000000
       575       192  TIP3  H1            8.1378425144       14.5291101861        2.4831495230  CLST         192          1.0000000000
       576       192  TIP3  H2            9.4630003211       15.0100147068        2.0198657383  CLST         192          1.0000000000
       577       193  TIP3  OH2           5.9794298114      -12.2779693155       11.7794774789  CLST         193          1.0000000000
       578       193  TIP3  H1            6.8146821094      -12.7833650784       11.6697772408  CLST         193          1.0000000000
       579       193  TIP3  H2            5.9751999721      -11.6811422956       11.0310308644  CLST         193          1.0000000000
       580       194  TIP3  OH2          -6.3488338774       -4.3204762829       11.2183237178  CLST         194          1.0000000000
       581       194  TIP3  H1           -6.7136864627       -4.2838857648       12.0749221929  CLST         194          1.0000000000
       582       194  TIP3  H2           -7.1648762809       -4.4108670315       10.6316485533  CLST         194          1.0000000000
       583       195  TIP3  OH2          -7.4908720629        9.1639592259       10.3391757326  CLST         195          1.0000000000
       584       195  TIP3  H1           -8.4314794693        8.9202615669       10.6701689815  CLST         195          1.0000000000
       585       195  TIP3  H2           -7.3728296823        8.1971056473        9.9497981216  CLST         195          1.0000000000
       586       196  TIP3  OH2           6.1342572970      -12.2350753630       -5.9675160117  CLST         196          1.0000000000
       587       196  TIP3  H1            6.3927114342      -11.4628468395       -6.5174884569  CLST         196          1.0000000000
       588       196  TIP3  H2            5.2361535966      -11.8552411964       -5.7286083346  CLST         196          1.0000000000
       589       197  TIP3  OH2           2.1039026272       -9.1717961214       -2.8764565859  CLST         197          1.0000000000
       590       197  TIP3  H1            1.8174236772       -8.2769137390       -2.5345078556  CLST         197          1.0000000000
       591       197  TIP3  H2            3.0318714423       -9.0429467605       -2.6091530334  CLST         197          1.0000000000
       592       198  TIP3  OH2          10.9614711229        1.8511779051        4.6410298736  CLST         198          1.0000000000
       593       198  TIP3  H1           10.0657523053        1.7670308887        4.2589117173  CLST         198          1.0000000000
       594       198  TIP3  H2           10.9914349763        2.8339206665        4.4772716566  CLST         198          1.0000000000
       595       199  TIP3  OH2          -0.0113020968        8.3686178221       -5.8403863989  CLST         199          1.0000000000
       596       199  TIP3  H1           -0.8703371357        8.5880200150       -5.4563122843  CLST         199          1.0000000000
       597       199  TIP3  H2           -0.0745362878        7.3762270389       -5.6913055774  CLST         199          1.0000000000
       598       200  TIP3  OH2          -7.4591760859       11.8241896856       10.8636108525  CLST         200          1.0000000000
       599       200  TIP3  H1           -7.5273297520       10.8769399392       10.5751539713  CLST         200          1.0000000000
       600       200  TIP3  H2           -7.0650733997       12.2070695820       10.0560024512  CLST         200          1.0000000000
       601       201  TIP3  OH2           4.3945986920        0.9219842760       -0.1296155499  CLST         201          1.0000000000
       602       201  TIP3  H1            4.1348210727        1.3743721106        0.6845443571  CLST         201          1.0000000000
       603       201  TIP3  H2            5.0429836527        0.3693063119        0.3592937839  CLST         201          1.0000000000
       604       202  TIP3  OH2          -1.9877668117       -4.2298458283      -12.4471794185  CLST         202          1.0000000000
       605       202  TIP3  H1           -1.7284490585       -4.7035919155      -11.6408005245  CLST         202          1.0000000000
       606       202  TIP3  H2           -2.3628545127       -3.4103130173      -12.0313419348  CLST         202          1.0000000000
       607       203  TIP3  OH2          -0.7192256104       11.3394023749        7.3712117255  CLST         203          1.0000000000
       608       203  TIP3  H1            0.0969605420       10.9855080927        7.7802303974  CLST         203          1.0000000000
       609       203  TIP3  H2           -1.3560748026       10.8984041036        7.9953546091  CLST         203          1.0000000000
       610       204  TIP3  OH2          -5.3793736707        6.3558248109      -13.0827746719  CLST         204          1.0000000000
       611       204  TIP3  H1           -4.6376563609        6.1021393816      -13.6670588724  CLST         204          1.0000000000
       612       204  TIP3  H2           -5.7518947308        5.4240960747      -13.0122655783  CLST         204          1.0000000000
       613       205  TIP3  OH2          -2.3383021120        7.2618373492       -2.5434361797  CLST         205          1.0000000000
       614       205  TIP3  H1           -2.2622986178        8.0044952948       -3.2261642926  CLST         205          1.0000000000
       615       205  TIP3  H2           -1.3654249704        7.0561941884       -2.4431781550  CLST         205          1.0000000000
       616       206  TIP3  OH2           5.0021761379      -11.1076551544       -9.6538081703  CLST         206          1.0000000000
       617       206  TIP3  H1            4.8617525676      -12.0504485711       -9.3435932565  CLST         206          1.0000000000
       618       206  TIP3  H2            5.7554711850      -10.8430044119       -9.0419742880  CLST         206          1.0000000000
       619       207  TIP3  OH2          12.9893306035       10.1663859692       12.2412714206  CLST         207          1.0000000000
       620       207  TIP3  H1           12.2718566127        9.8004987074       12.8364200876  CLST         207          1.0000000000
       621       207  TIP3  H2           13.5225902490       10.5837617996       12.7065837038  CLST         207          1.0000000000
       622       208  TIP3  OH2         -11.5492639558        2.3516966452        6.8521535899  CLST         208          1.0000000000
       623       208  TIP3  H1          -11.1236048398        2.2785503028        7.7401425918  CLST         208          1.0000000000
       624       208  TIP3  H2          -11.2345786141        3.2522870525        6.5095338910  CLST         208          1.0000000000
       625       209  TIP3  OH2           4.5330445709       -9.1849365587        7.5285928125  CLST         209          1.0000000000
       626       209  TIP3  H1            4.1282027992       -9.4526682270        6.6836090622  CLST         209          1.0000000000
       627       209  TIP3  H2            3.7066219089       -8.6777389404        7.7851460491  CLST         209          1.0000000000
       628       210  TIP3  OH2          12.2033025732      -11.1022551983        5.3806952813  CLST         210          1.0000000000
       629       210  TIP3  H1           12.5330554483      -11.1964158199        4.4340406863  CLST         210          1.0000000000
       630       210  TIP3  H2           12.4048233275      -10.1594913147        5.5199692449  CLST         210          1.0000000000
       631       211  TIP3  OH2          -0.2206213220       -9.3403906491       12.1963937301  CLST         211          1.0000000000
       632       211  TIP3  H1            0.1783261924       -9.9268589478       12.9051715108  CLST         211          1.0000000000
       633       211  TIP3  H2           -1.1092949212       -9.8214109011       12.1876484027  CLST         211          1.0000000000
       634       212  TIP3  OH2         -12.4450070846        3.5474055342       -2.5555487241  CLST         212          1.0000000000
       635       212  TIP3  H1          -11.8626955758        4.2074662735       -3.0207207410  CLST         212          1.0000000000
       636       212  TIP3  H2          -11.8497482756        2.7928019868       -2.4447046549  CLST         212          1.0000000000
       637       213  TIP3  OH2          -9.4356016416      -11.3849244806      -11.4760567207  CLST         213          1.0000000000
       638       213  TIP3  H1           -9.0093073130      -11.3056216914      -12.9120166565  CLST         213          1.0000000000
       639       213  TIP3  H2           -8.2720520959      -11.2600137214      -11.8930133470  CLST         213          1.0000000000
       640       214  TIP3  OH2          -6.6301761919        2.2104328059       -5.4421282588  CLST         214          1.0000000000
       641       214  TIP3  H1           -6.3790395326        1.3414490266       -5.0124566734  CLST         214          1.0000000000
       642       214  TIP3  H2           -7.2622679519        2.4982416667       -4.7268542405  CLST         214          1.0000000000
       643       215  TIP3  OH2         -11.8016868617      -12.7461030095        5.6267096997  CLST         215          1.0000000000
       644       215  TIP3  H1          -11.1245891510      -12.0821100636        5.4162691824  CLST         215          1.0000000000
       645       215  TIP3  H2          -11.9303108557      -13.0406258621        4.6934371730  CLST         215          1.0000000000
       646       216  TIP3  OH2         -11.9123556109       -2.2181054490        8.0949891330  CLST         216          1.0000000000
       647       216  TIP3  H1          -10.9628543840       -1.8984638772        8.2647703520  CLST         216          1.0000000000
       648       216  TIP3  H2          -11.7469261892       -3.1643371721        8.3233353772  CLST         216          1.0000000000
       649       217  TIP3  OH2           7.6621648525       -0.2340887097       -1.5137520167  CLST         217          1.0000000000
       650       217  TIP3  H1            7.8919944194       -1.1334806181       -1.8357847317  CLST         217          1.0000000000
       651       217  TIP3  H2            7.1715454297       -0.5423623722       -0.7060688760  CLST         217          1.0000000000
       652       218  TIP3  OH2          -8.3119652704       -3.9822725906        9.2088392693  CLST         218          1.0000000000
       653       218  TIP3  H1           -8.5374173799       -3.0429757856        8.9079959669  CLST         218          1.0000000000
       654       218  TIP3  H2           -7.6995199030       -4.2587636000        8.4802499926  CLST         218          1.0000000000
       655       219  TIP3  OH2         -12.5819715965       -4.5218788030       -2.7047660133  CLST         219          1.0000000000
       656       219  TIP3  H1          -12.6543073868       -3.5256152136       -2.6096625511  CLST         219          1.0000000000
       657       219  TIP3  H2          -12.8903472187       -4.5478621729       -3.6295030102  CLST         219          1.0000000000
       658       220  TIP3  OH2           6.4564326265        6.7878318376        7.7289983764  CLST         220          1.0000000000
       659       220  TIP3  H1            5.9228320952        6.7035649810        6.8937946622  CLST         220          1.0000000000
       660       220  TIP3  H2            5.7977662594        6.2142265506        8.1704856835  CLST         220          1.0000000000
       661       221  TIP3  OH2         -10.5926351111       -7.0385860971       10.1810218425  CLST         221          1.0000000000
       662       221  TIP3  H1           -9.7833532875       -7.0241899072       10.6083113392  CLST         221          1.0000000000
       663       221  TIP3  H2          -10.6503322457       -7.9829289553        9.8997949970  CLST         221          1.0000000000
       664       222  TIP3  OH2          -6.8992377078       -0.7083951902      -13.6605839072  CLST         222          1.0000000000
       665       222  TIP3  H1           -6.3711172853       -1.5772082516      -13.4812462769  CLST         222          1.0000000000
       666       222  TIP3  H2           -7.7870643802       -1.1137941894      -13.5836487969  CLST         222          1.0000000000
       667       223  TIP3  OH2           2.6234388403      -10.7019801872      -11.6858596606  CLST         223          1.0000000000
       668       223  TIP3  H1            2.0443108089      -11.5648728096      -11.6812124097  CLST         223          1.0000000000
       669       223  TIP3  H2            3.4380997501      -11.0656326883      -11.2818277835  CLST         223          1.0000000000
       670       224  TIP3  OH2           7.5356757826        4.6015575026        0.7396044578  CLST         224          1.0000000000
       671       224  TIP3  H1            8.1666944411        5.3336643267        0.5962032870  CLST         224          1.0000000000
       672       224  TIP3  H2            7.4043457562        4.1848563843       -0.1665954488  CLST         224          1.0000000000
       673       225  TIP3  OH2          -0.2745028951        4.5580431668       -1.1954572290  CLST         225          1.0000000000
       674       225  TIP3  H1           -0.5215684859        4.5315653875       -0.2507238387  CLST         225          1.0000000000
       675       225  TIP3  H2           -0.1798305593        3.5446305998       -1.3134795248  CLST         225          1.0000000000
       676       226  TIP3  OH2          -5.7841692597       -4.5354477463        7.6990382352  CLST         226          1.0000000000
       677       226  TIP3  H1           -5.6702495450       -5.5325401746        7.8706865782  CLST         226          1.0000000000
       678       226  TIP3  H2           -5.6014682034       -4.5452857450        6.7541931272  CLST         226          1.0000000000
       679       227  TIP3  OH2          11.4083646048       -4.0887941504       -9.8085898356  CLST         227          1.0000000000
       680       227  TIP3  H1           11.5947600903       -3.4854864748       -8.9911925247  CLST         227          1.0000000000
       681       227  TIP3  H2           11.1007439670       -3.3057554474      -10.3509588789  CLST         227          1.0000000000
       682       228  TIP3  OH2           3.4743777043       12.5867961125        3.2136456016  CLST         228          1.0000000000
       683       228  TIP3  H1            2.6704351068       12.1601273817        3.7231031349  CLST         228          1.0000000000
       684       228  TIP3  H2            3.0737048077       12.7421951865        2.4385069187  CLST         228          1.0000000000
       685       229  TIP3  OH2         -11.7500667161      -13.1935690578        2.8847148489  CLST         229          1.0000000000
       686       229  TIP3  H1          -12.1219487010      -13.6502238886        2.1642001097  CLST         229          1.0000000000
       687       229  TIP3  H2          -11.4735514468      -12.3501392383        2.4220061879  CLST         229          1.0000000000
       688       230  TIP3  OH2          12.2843788796        6.2087119002       -3.3477737973  CLST         230          1.0000000000
       689       230  TIP3  H1           13.2298629635        6.3592450021       -3.2522995109  CLST         230          1.0000000000
       690       230  TIP3  H2           12.2460503260        5.2163576185       -3.3823470293  CLST         230          1.0000000000
       691       231  TIP3  OH2           7.2600027941        3.2121112343        4.5941339135  CLST         231          1.0000000000
       692       231  TIP3  H1            7.7072430572        4.0956807255        4.7973786600  CLST         231          1.0000000000
       693       231  TIP3  H2            6.3619068539        3.5612620385        4.2617336078  CLST         231          1.0000000000
       694       232  TIP3  OH2         -10.3383322383        8.8239755838        7.3791806659  CLST         232          1.0000000000
       695       232  TIP3  H1          -10.6510907074        9.2821027566        8.2256796355  CLST         232          1.0000000000
       696       232  TIP3  H2           -9.8990593068        8.0313288899        7.7985963136  CLST         232          1.0000000000
       697       233  TIP3  OH2           3.6512792382       -5.1338664567        8.1540964365  CLST         233          1.0000000000
       698       233  TIP3  H1            4.1177222729       -5.5439851227        8.9033827834  CLST         233          1.0000000000
       699       233  TIP3  H2            3.3844918760       -4.2570089994        8.6018686775  CLST         233          1.0000000000
       700       234  TIP3  OH2          -3.6981895055        8.5010272160       -0.5645914072  CLST         234          1.0000000000
       701       234  TIP3  H1           -3.1267580908        8.2781659546       -1.3250820795  CLST         234          1.0000000000
       702       234  TIP3  H2           -3.6547820527        9.4876711551       -0.6331175353  CLST         234          1.0000000000
       703       235  TIP3  OH2          -1.8819122732       -3.9155463220       -9.0559344734  CLST         235          1.0000000000
       704       235  TIP3  H1           -1.7399614752       -4.8654116366       -9.4293581355  CLST         235          1.0000000000
       705       235  TIP3  H2           -0.8866280731       -3.6834337435       -9.0692594504  CLST         235          1.0000000000
       706       236  TIP3  OH2          -0.4473311984      -13.4991098169       -2.9494200017  CLST         236          1.0000000000
       707       236  TIP3  H1            0.2880982158      -12.8927704640       -2.6543773233  CLST         236          1.0000000000
       708       236  TIP3  H2           -1.0102910722      -13.3486259598       -2.1492715723  CLST         236          1.0000000000
       709       237  TIP3  OH2          -3.6614380705       -5.0705667451       10.8538302860  CLST         237          1.0000000000
       710       237  TIP3  H1           -4.5759762632       -4.7113823329       10.9813265694  CLST         237          1.0000000000
       711       237  TIP3  H2           -3.9595421532       -5.7515799015       10.1907802512  CLST         237          1.0000000000
       712       238  TIP3  OH2           0.5397522900        4.6757619316        7.1922670873  CLST         238          1.0000000000
       713       238  TIP3  H1           -0.1998378147        5.2531331499        6.7861012098  CLST         238          1.0000000000
       714       238  TIP3  H2            0.4224474334        4.9767870046        8.1253000031  CLST         238          1.0000000000
       715       239  TIP3  OH2         -13.9869837038        6.0514092581        3.3887945681  CLST         239          1.0000000000
       716       239  TIP3  H1          -14.0888502304        6.2764059380        2.4355888415  CLST         239          1.0000000000
       717       239  TIP3  H2          -13.4709571738        5.2268531655        3.2403617734  CLST         239          1.0000000000
       718       240  TIP3  OH2         -14.1064519026        8.9202144640       -0.3137232459  CLST         240          1.0000000000
       719       240  TIP3  H1          -14.7145251799        9.2838482721        0.3596706938  CLST         240          1.0000000000
       720       240  TIP3  H2          -13.9546665341        7.9262054449        0.0260267108  CLST         240          1.0000000000
       721       241  TIP3  OH2          -7.6989262794       -7.7784366634       -8.5520687335  CLST         241          1.0000000000
       722       241  TIP3  H1           -7.8718919778       -8.0766045983       -7.6228644798  CLST         241          1.0000000000
       723       241  TIP3  H2           -7.5956322141       -6.7934196104       -8.4542031446  CLST         241          1.0000000000
       724       242  TIP3  OH2           6.1511975990       -5.7122208574        9.7118674300  CLST         242          1.0000000000
       725       242  TIP3  H1            6.5898839307       -4.9067599310        9.3515333863  CLST         242          1.0000000000
       726       242  TIP3  H2            6.8840399683       -6.3597353508        9.4807808495  CLST         242          1.0000000000
       727       243  TIP3  OH2          -6.5288168310       -7.1336725717       -4.2304825524  CLST         243          1.0000000000
       728       243  TIP3  H1           -6.3148005422       -7.7261624624       -4.9637256161  CLST         243          1.0000000000
       729       243  TIP3  H2           -6.3380909466       -7.7583563155       -3.4886801655  CLST         243          1.0000000000
       730       244  TIP3  OH2           4.9036035461        5.6839997206        5.5219144202  CLST         244          1.0000000000
       731       244  TIP3  H1            5.0651950495        5.4119403936        4.5868560496  CLST         244          1.0000000000
       732       244  TIP3  H2            4.1974149762        5.0174175512        5.7177823629  CLST         244          1.0000000000
       733       245  TIP3  OH2          -7.1662525440        3.4869865471       -7.6505146516  CLST         245          1.0000000000
       734       245  TIP3  H1           -7.1230706850        2.8782792024       -6.8341275859  CLST         245          1.0000000000
       735       245  TIP3  H2           -7.4562929900        4.2664503450       -7.0988749120  CLST         245          1.0000000000
       736       246  TIP3  OH2           2.1532652858       -6.4937413687       -1.9661254032  CLST         246          1.0000000000
       737       246  TIP3  H1            2.0091254458       -5.7339748608       -2.5898020276  CLST         246          1.0000000000
       738       246  TIP3  H2            3.2022318490       -6.4818772169       -2.0005095446  CLST         246          1.0000000000
       739       247  TIP3  OH2           5.9948152732        8.0295616639        0.6143232377  CLST         247          1.0000000000
       740       247  TIP3  H1            6.4500517143        7.8233567701       -0.2341321796  CLST         247          1.0000000000
       741       247  TIP3  H2            5.3761978379        8.7425136208        0.3973972003  CLST         247          1.0000000000
       742       248  TIP3  OH2          -2.4569781562        8.3805576137      -11.9056706370  CLST         248          1.0000000000
       743       248  TIP3  H1           -2.4020178336        8.7614531914      -12.7886569135  CLST         248          1.0000000000
       744       248  TIP3  H2           -1.9647245694        9.0359988040      -11.3521856627  CLST         248          1.0000000000
       745       249  TIP3  OH2           8.9467086822        4.9131759252       -7.9193288949  CLST         249          1.0000000000
       746       249  TIP3  H1            8.2322891625        5.4496752103       -7.5087037915  CLST         249          1.0000000000
       747       249  TIP3  H2            8.6362904791        4.0340491949       -7.6554996100  CLST         249          1.0000000000
       748       250  TIP3  OH2          -7.6071235387        9.7201778917       -5.4289381988  CLST         250          1.0000000000
       749       250  TIP3  H1           -7.7833068918        8.8925334047       -5.9038229802  CLST         250          1.0000000000
       750       250  TIP3  H2           -7.5980679225       10.3985603146       -6.1130969151  CLST         250          1.0000000000
       751       251  TIP3  OH2          -3.5480387004       12.4529001563        3.1289453660  CLST         251          1.0000000000
       752       251  TIP3  H1           -3.0950045489       13.0689518699        2.7074262819  CLST         251          1.0000000000
       753       251  TIP3  H2           -3.0799993844       12.2919068068        4.0198333379  CLST         251          1.0000000000
       754       252  TIP3  OH2           5.9904073782        5.4803024470       14.5284562099  CLST         252          1.0000000000
       755       252  TIP3  H1            5.8301608222        6.4443048596       14.3776911177  CLST         252          1.0000000000
       756       252  TIP3  H2            5.7166427293        5.3061370177       15.3002154551  CLST         252          1.0000000000
       757       253  TIP3  OH2           6.0866446838       13.9552940799        3.3036271590  CLST         253          1.0000000000
       758       253  TIP3  H1            5.1408172255       13.6605446649        3.4679965988  CLST         253          1.0000000000
       759       253  TIP3  H2            6.2050063746       13.4576154952        2.4630574274  CLST         253          1.0000000000
       760       254  TIP3  OH2          -4.1803353008        8.0414613973        2.9216439739  CLST         254          1.0000000000
       761       254  TIP3  H1           -4.6551915845        8.7172687801        2.3403536370  CLST         254          1.0000000000
       762       254  TIP3  H2           -4.9245989934        7.4853897968        3.1694876514  CLST         254          1.0000000000
       763       255  TIP3  OH2          -7.0798153492       10.4903351787        4.2736821064  CLST         255          1.0000000000
       764       255  TIP3  H1           -7.9708968602       10.8484931215        4.4127558185  CLST         255          1.0000000000
       765       255  TIP3  H2           -7.0520062410        9.8840488636        5.0339354021  CLST         255          1.0000000000
       766       256  TIP3  OH2          11.3944999721        3.7249366109       -1.3827464723  CLST         256          1.0000000000
       767       256  TIP3  H1           11.9174565966        2.9772153389       -1.7234636092  CLST         256          1.0000000000
       768       256  TIP3  H2           11.3985012074        3.5177962895       -0.4296850805  CLST         256          1.0000000000
       769       257  TIP3  OH2          -8.5780171562       -1.2028617626       -5.0118738227  CLST         257          1.0000000000
       770       257  TIP3  H1           -7.7046259144       -0.8502735782       -4.6373682419  CLST         257          1.0000000000
       771       257  TIP3  H2           -8.4654046167       -1.0398948202       -5.9597705518  CLST         257          1.0000000000
       772       258  TIP3  OH2          -5.3987076352       10.1733777563        7.8184599707  CLST         258          1.0000000000
       773       258  TIP3  H1           -5.2131464682       10.7159834857        6.9843153042  CLST         258          1.0000000000
       774       258  TIP3  H2           -6.2034984122       10.6374738935        8.1374896826  CLST         258          1.0000000000
       775       259  TIP3  OH2          10.0784037747        6.1355123620        0.8657257051  CLST         259          1.0000000000
       776       259  TIP3  H1           10.9839688755        6.4957250145        0.7615487604  CLST         259          1.0000000000
       777       259  TIP3  H2            9.9272951454        6.4120725057        1.7965139770  CLST         259          1.0000000000
       778       260  TIP3  OH2          -5.0168758165        7.7705879582        8.9677536657  CLST         260          1.0000000000
       779       260  TIP3  H1           -5.0056545184        8.6422094460        8.4517144143  CLST         260          1.0000000000
       780       260  TIP3  H2           -5.8160144193        7.3692245295        8.5060580967  CLST         260          1.0000000000
       781       261  TIP3  OH2           0.7549937484       -4.3890993634       12.3528493287  CLST         261          1.0000000000
       782       261  TIP3  H1            0.2175056350       -5.2774429760       12.3902901758  CLST         261          1.0000000000
       783       261  TIP3  H2            1.4342328312       -4.6214495472       13.0285233549  CLST         261          1.0000000000
       784       262  TIP3  OH2         -10.9496605320        4.8182793139        6.0549134351  CLST         262          1.0000000000
       785       262  TIP3  H1          -10.1133807467        4.6679315930        5.4918697434  CLST         262          1.0000000000
       786       262  TIP3  H2          -11.5322225020        5.0824435074        5.3580262216  CLST         262          1.0000000000
       787       263  TIP3  OH2           1.7661797329        0.9920378361        6.6374161536  CLST         263          1.0000000000
       788       263  TIP3  H1            2.4577080108        1.6645552870        6.7280952468  CLST         263          1.0000000000
       789       263  TIP3  H2            2.3556068898        0.1939911853        6.8222296072  CLST         263          1.0000000000
       790       264  TIP3  OH2           5.1437957070       -4.3020833062       -9.6207406479  CLST         264          1.0000000000
       791       264  TIP3  H1            5.1803948019       -5.2278708654       -9.9058601775  CLST         264          1.0000000000
       792       264  TIP3  H2            4.2507703112       -4.1192697180      -10.0293550042  CLST         264          1.0000000000
       793       265  TIP3  OH2           7.6485547141        4.9232888720      -10.1877683910  CLST         265          1.0000000000
       794       265  TIP3  H1            7.7293393050        5.8071700665      -10.5794079457  CLST         265          1.0000000000
       795       265  TIP3  H2            8.3331979038        4.9900675769       -9.4751080692  CLST         265          1.0000000000
       796       266  TIP3  OH2          -8.0708400151       -8.8611353377       -0.0717563010  CLST         266          1.0000000000
       797       266  TIP3  H1           -8.0855295433       -9.2083739111        0.8332004358  CLST         266          1.0000000000
       798       266  TIP3  H2           -8.3514788972       -7.9305299069        0.0383138704  CLST         266          1.0000000000
       799       267  TIP3  OH2           1.1816956030        2.5983726676       -5.1123138185  CLST         267          1.0000000000
       800       267  TIP3  H1            1.4288154621        3.4185219033       -4.6510597812  CLST         267          1.0000000000
       801       267  TIP3  H2            2.0345282140        2.1019125338       -5.0037453975  CLST         267          1.0000000000
       802       268  TIP3  OH2           5.3464244471       -4.6325169931       -6.8496388592  CLST         268          1.0000000000
       803       268  TIP3  H1            5.1845511037       -4.2142114659       -7.7380004865  CLST         268          1.0000000000
       804       268  TIP3  H2            4.8572109781       -5.4612337391       -7.0326847820  CLST         268          1.0000000000
       805       269  TIP3  OH2           5.5421965143       10.8927235414       -0.0916677659  CLST         269          1.0000000000
       806       269  TIP3  H1            6.4299767139       10.7190218198       -0.5062355517  CLST         269          1.0000000000
       807       269  TIP3  H2            5.8844220657       11.7384895112        0.3427628286  CLST         269          1.0000000000
       808       270  TIP3  OH2           1.2817894082        9.3987453850       -7.8631486781  CLST         270          1.0000000000
       809       270  TIP3  H1            1.2313652288        8.5245950895       -8.3401063074  CLST         270          1.0000000000
       810       270  TIP3  H2            0.8844894994        9.0248694705       -6.9879678856  CLST         270          1.0000000000
       811       271  TIP3  OH2          -6.3997943354       -9.0625986396       -2.1787137085  CLST         271          1.0000000000
       812       271  TIP3  H1           -5.5857382774       -9.0816921114       -1.6658929801  CLST         271          1.0000000000
       813       271  TIP3  H2           -7.0214603354       -8.9946906306       -1.3922064425  CLST         271          1.0000000000
       814       272  TIP3  OH2           9.4296816856       -8.2613785126        5.7227300966  CLST         272          1.0000000000
       815       272  TIP3  H1            8.4731729562       -8.4157782809        5.9003199211  CLST         272          1.0000000000
       816       272  TIP3  H2            9.4872447640       -7.6888149684        4.9241414200  CLST         272          1.0000000000
       817       273  TIP3  OH2         -13.8113566809        9.4331275856        3.2035884500  CLST         273          1.0000000000
       818       273  TIP3  H1          -14.4406372861        9.6255356173        3.9447819891  CLST         273          1.0000000000
       819       273  TIP3  H2          -13.4064702634        8.6528687698        3.6394418169  CLST         273          1.0000000000
       820       274  TIP3  OH2           4.0099463556       12.8970677476       -4.1099219943  CLST         274          1.0000000000
       821       274  TIP3  H1            3.8484657292       12.1604522626       -3.2620911630  CLST         274          1.0000000000
       822       274  TIP3  H2            3.7895962697       13.6838951203       -3.6418501264  CLST         274          1.0000000000
       823       275  TIP3  OH2           8.7246823860      -11.2458257300        5.9193904000  CLST         275          1.0000000000
       824       275  TIP3  H1            9.2942133621      -10.4494413766        5.8647142005  CLST         275          1.0000000000
       825       275  TIP3  H2            9.3352817729      -11.9368434760        5.5980898201  CLST         275          1.0000000000
       826       276  TIP3  OH2          -0.3580109297       -5.8619650547        1.4267300338  CLST         276          1.0000000000
       827       276  TIP3  H1           -0.8705368505       -6.1127958930        0.6278270528  CLST         276          1.0000000000
       828       276  TIP3  H2           -0.8642560965       -5.1387473537        2.0037099450  CLST         276          1.0000000000
       829       277  TIP3  OH2           6.4958520070        6.2603136427       -7.0970590580  CLST         277          1.0000000000
       830       277  TIP3  H1            5.6649535011        5.8932355418       -7.4664341993  CLST         277          1.0000000000
       831       277  TIP3  H2            6.5584632754        7.0448976149       -7.6927502787  CLST         277          1.0000000000
       832       278  TIP3  OH2          -0.5921412359       -7.5624516230        3.5430713868  CLST         278          1.0000000000
       833       278  TIP3  H1           -0.4119256175       -6.9421646905        2.7652273757  CLST         278          1.0000000000
       834       278  TIP3  H2           -0.7689782116       -6.8008440963        4.1867272624  CLST         278          1.0000000000
       835       279  TIP3  OH2         -13.4963904975        6.4886921714        0.3773610252  CLST         279          1.0000000000
       836       279  TIP3  H1          -13.6314820244        5.5808696154        0.0508139267  CLST         279          1.0000000000
       837       279  TIP3  H2          -12.5408630472        6.5083216376        0.5874062184  CLST         279          1.0000000000
       838       280  TIP3  OH2          -3.3398502776      -10.1012245253        5.6358593120  CLST         280          1.0000000000
       839       280  TIP3  H1           -2.7335350441       -9.4819044207        6.0696667931  CLST         280          1.0000000000
       840       280  TIP3  H2           -3.9024413172       -9.3625252188        5.2025298734  CLST         280          1.0000000000
       841       281  TIP3  OH2           8.0617942120        7.8230804499      -10.8617212195  CLST         281          1.0000000000
       842       281  TIP3  H1            8.3763777125        8.7412414685      -10.6592251019  CLST         281          1.0000000000
       843       281  TIP3  H2            7.0857350953        7.9583413304      -10.7301753003  CLST         281          1.0000000000
       844       282  TIP3  OH2          -7.6840899229      -12.0139384332       10.0969928223  CLST         282          1.0000000000
       845       282  TIP3  H1           -8.4918091735      -11.7021477940        9.7307803042  CLST         282          1.0000000000
       846       282  TIP3  H2           -7.2586444698      -12.5471617401        9.3944275319  CLST         282          1.0000000000
       847       283  TIP3  OH2           4.5431893732        8.5617682165       -4.6757844174  CLST         283          1.0000000000
       848       283  TIP3  H1            4.7101082250        9.4801861545       -4.9790961552  CLST         283          1.0000000000
       849       283  TIP3  H2            3.8999297610        8.6905655619       -3.8805757863  CLST         283          1.0000000000
       850       284  TIP3  OH2          11.9268238150        8.3700340842       -1.3447641619  CLST         284          1.0000000000
       851       284  TIP3  H1           11.4967774557        7.5603250426       -1.7062126820  CLST         284          1.0000000000
       852       284  TIP3  H2           11.1640312070        8.9533180538       -1.5363822481  CLST         284          1.0000000000
       853       285  TIP3  OH2          -5.4361198690        1.7767856766        8.8318908939  CLST         285          1.0000000000
       854       285  TIP3  H1           -4.6485920131        1.4480545559        8.3291810440  CLST         285          1.0000000000
       855       285  TIP3  H2           -5.0200585653        2.6137893615        9.1899016331  CLST         285          1.0000000000
       856       286  TIP3  OH2           3.0513602083        5.8140433461       -0.4449707126  CLST         286          1.0000000000
       857       286  TIP3  H1            2.2508087258        5.5530892642        0.0893139155  CLST         286          1.0000000000
       858       286  TIP3  H2            3.7095090632        5.7029046496        0.3021813692  CLST         286          1.0000000000
       859       287  TIP3  OH2          -4.2120945095        9.5121674417       11.1925116435  CLST         287          1.0000000000
       860       287  TIP3  H1           -4.7693626105       10.2395947703       11.5776960652  CLST         287          1.0000000000
       861       287  TIP3  H2           -4.8792154128        8.9808095342       10.7141646198  CLST         287          1.0000000000
       862       288  TIP3  OH2           5.6293828908        3.7153944232       -9.4583731361  CLST         288          1.0000000000
       863       288  TIP3  H1            5.4279593873        3.0283298563       -9.9389096240  CLST         288          1.0000000000
       864       288  TIP3  H2            6.5043196215        4.1983119457       -9.9224263523  CLST         288          1.0000000000
       865       289  TIP3  OH2          -7.2128218074       -5.1760896423       -8.2561001003  CLST         289          1.0000000000
       866       289  TIP3  H1           -7.9095449650       -4.5384942287       -8.0155405666  CLST         289          1.0000000000
       867       289  TIP3  H2           -6.3562085833       -4.8937704816       -7.9584028788  CLST         289          1.0000000000
       868       290  TIP3  OH2           2.1372662051      -11.9531976119       11.3144061094  CLST         290          1.0000000000
       869       290  TIP3  H1            2.9296811937      -12.4822837315       11.1835887507  CLST         290          1.0000000000
       870       290  TIP3  H2            2.6101695457      -11.2913268169       11.8818860431  CLST         290          1.0000000000
       871       291  TIP3  OH2         -10.3113880552       -3.3928559354        2.7691427574  CLST         291          1.0000000000
       872       291  TIP3  H1          -10.9547015130       -4.0143063491        3.2155729049  CLST         291          1.0000000000
       873       291  TIP3  H2          -10.3990891569       -3.7415276499        1.8797156503  CLST         291          1.0000000000
       874       292  TIP3  OH2          12.1228729642        3.6022289757       -4.7673321386  CLST         292          1.0000000000
       875       292  TIP3  H1           11.2711156502        3.1231057518       -4.7420689590  CLST         292          1.0000000000
       876       292  TIP3  H2           11.9048598801        4.2932468230       -5.4494208355  CLST         292          1.0000000000
       877       293  TIP3  OH2           9.0482033354       10.6392667006       11.0910217276  CLST         293          1.0000000000
       878       293  TIP3  H1            8.5771684179       11.4135151119       11.3921321556  CLST         293          1.0000000000
       879       293  TIP3  H2            9.1728784326       11.0852693869       10.1569975992  CLST         293          1.0000000000
       880       294  TIP3  OH2           4.2491163900        4.5428494455       -2.3600390609  CLST         294          1.0000000000
       881       294  TIP3  H1            3.8110373232        5.1432667041       -1.6941986291  CLST         294          1.0000000000
       882       294  TIP3  H2            4.4483331439        5.1609677935       -3.0727579442  CLST         294          1.0000000000
       883       295  TIP3  OH2          -2.3335424342      -13.3470050423       -8.6294648689  CLST         295          1.0000000000
       884       295  TIP3  H1           -2.9830692741      -13.3198200457       -7.8769054697  CLST         295          1.0000000000
       885       295  TIP3  H2           -1.5211708485      -13.5551310553       -8.1671141252  CLST         295          1.0000000000
       886       296  TIP3  OH2          -1.5398360685       11.3148479538      -12.9610940869  CLST         296          1.0000000000
       887       296  TIP3  H1           -0.6474422968       11.1774026439      -13.3172867601  CLST         296          1.0000000000
       888       296  TIP3  H2           -1.5828609062       11.0712686788      -11.9888379606  CLST         296          1.0000000000
       889       297  TIP3  OH2           8.1447037809       -0.5391964234       11.3838305438  CLST         297          1.0000000000
       890       297  TIP3  H1            8.7832189038       -1.1693540296       10.9851900878  CLST         297          1.0000000000
       891       297  TIP3  H2            7.3582823648       -1.1364956457       11.4612631367  CLST         297          1.0000000000
       892       298  TIP3  OH2           1.1620447110       -1.3684860353       -7.5157014703  CLST         298          1.0000000000
       893       298  TIP3  H1            1.5173033818       -0.6922827975       -8.1887079913  CLST         298          1.0000000000
       894       298  TIP3  H2            1.0153696831       -2.1272320824       -8.1798477332  CLST         298          1.0000000000
       895       299  TIP3  OH2           3.0263260043       10.2218264034       12.8309842372  CLST         299          1.0000000000
       896       299  TIP3  H1            2.4234897414       10.7622449285       12.3199244988  CLST         299          1.0000000000
       897       299  TIP3  H2            2.3283397181        9.6303281336       13.0168381725  CLST         299          1.0000000000
       898       300  TIP3  OH2         -10.8585875698        5.2407114270       -3.6925031901  CLST         300          1.0000000000
       899       300  TIP3  H1          -10.8694847927        5.5596653052       -4.5976616072  CLST         300          1.0000000000
       900       300  TIP3  H2          -10.8409598070        6.1778441081       -3.2652916044  CLST         300          1.0000000000
       901       301  TIP3  OH2           9.6013429287       -8.2428965251       11.2450778365  CLST         301          1.0000000000
       902       301  TIP3  H1            9.2556379562       -7.8196087119       12.1182897733  CLST         301          1.0000000000
       903       301  TIP3  H2            9.5829252934       -9.1831739084       11.5126000448  CLST         301          1.0000000000
       904       302  TIP3  OH2           7.8825252367       12.8234343301        5.5279830504  CLST         302          1.0000000000
       905       302  TIP3  H1            7.2897650895       13.4044617510        5.0255889258  CLST         302          1.0000000000
       906       302  TIP3  H2            7.1566546191       12.2086804856        5.7760771178  CLST         302          1.0000000000
       907       303  TIP3  OH2         -10.9658661678        1.2689744425       -2.1018829018  CLST         303          1.0000000000
       908       303  TIP3  H1          -10.0043633032        1.0732614663       -1.9611874321  CLST         303          1.0000000000
       909       303  TIP3  H2          -10.9876170933        0.7280224626       -3.0034877984  CLST         303          1.0000000000
       910       304  TIP3  OH2          -8.0345274975        1.0968886932      -15.1196402302  CLST         304          1.0000000000
       911       304  TIP3  H1           -7.5853955277        0.3482506856      -14.6278702063  CLST         304          1.0000000000
       912       304  TIP3  H2           -7.2921380912        1.3385540653      -15.6413837787  CLST         304          1.0000000000
       913       305  TIP3  OH2           3.4256668423       -3.8869245340       13.9296825210  CLST         305          1.0000000000
       914       305  TIP3  H1            4.3305453491       -4.0378687469       13.6258501366  CLST         305          1.0000000000
       915       305  TIP3  H2            3.1999667001       -2.9483659784       13.7154805642  CLST         305          1.0000000000
       916       306  TIP3  OH2           8.7573417155      -11.9355820071      -11.1527910231  CLST         306          1.0000000000
       917       306  TIP3  H1            9.3374191956      -11.9450649066      -11.7364341386  CLST         306          1.0000000000
       918       306  TIP3  H2            8.7009642024      -12.5644928140      -10.5610494102  CLST         306          1.0000000000
       919       307  TIP3  OH2           9.3311253475        7.8585501298       -7.5744392760  CLST         307          1.0000000000
       920       307  TIP3  H1            8.4824431212        8.3036720411       -7.6320294836  CLST         307          1.0000000000
       921       307  TIP3  H2            9.6594685151        8.1221667882       -6.7132541383  CLST         307          1.0000000000
       922       308  TIP3  OH2         -10.8632535583       -4.8370816289        8.7125605179  CLST         308          1.0000000000
       923       308  TIP3  H1          -10.9676374452       -5.6645557912        9.2990232245  CLST         308          1.0000000000
       924       308  TIP3  H2           -9.9414589048       -4.5605850655        8.9759297809  CLST         308          1.0000000000
       925       309  TIP3  OH2          -2.0075806547       -0.6100009373        5.5689052227  CLST         309          1.0000000000
       926       309  TIP3  H1           -2.8708685251       -0.9048467379        5.1284632156  CLST         309          1.0000000000
       927       309  TIP3  H2           -2.1117145908       -1.2391136193        6.3405922467  CLST         309          1.0000000000
       928       310  TIP3  OH2          -5.0901859722       -0.4714766617        7.0442750727  CLST         310          1.0000000000
       929       310  TIP3  H1           -4.2452538404        0.0309858727        7.2563440571  CLST         310          1.0000000000
       930       310  TIP3  H2           -5.1894944409       -1.0117019376        7.8603564128  CLST         310          1.0000000000
       931       311  TIP3  OH2          -7.3466199245        8.4942432433      -12.3171070779  CLST         311          1.0000000000
       932       311  TIP3  H1           -6.8361665521        7.7494620570      -12.7186109209  CLST         311          1.0000000000
       933       311  TIP3  H2           -7.3039666912        8.2589544305      -11.3796006498  CLST         311          1.0000000000
       934       312  TIP3  OH2           6.5042605971       -0.8487861916       -6.3334904427  CLST         312          1.0000000000
       935       312  TIP3  H1            5.9940243433       -0.1617003801       -5.8887303602  CLST         312          1.0000000000
       936       312  TIP3  H2            6.6254965460       -1.5083255506       -5.6209297666  CLST         312          1.0000000000
       937       313  TIP3  OH2          -8.9245897759      -10.5138987012        7.1933896544  CLST         313          1.0000000000
       938       313  TIP3  H1           -8.4093242367       -9.6784015066        7.1180345990  CLST         313          1.0000000000
       939       313  TIP3  H2           -9.4378773577      -10.4436058688        6.3513458041  CLST         313          1.0000000000
       940       314  TIP3  OH2          -1.3958694446      -12.2258811929      -10.7984982115  CLST         314          1.0000000000
       941       314  TIP3  H1           -1.3778042746      -11.3912416824      -10.2331490030  CLST         314          1.0000000000
       942       314  TIP3  H2           -1.8703819753      -12.7551987245      -10.0707726725  CLST         314          1.0000000000
       943       315  TIP3  OH2          -1.3755550700       -0.6509677368       -6.4840825383  CLST         315          1.0000000000
       944       315  TIP3  H1           -0.4791024477       -0.9824664745       -6.7619513372  CLST         315          1.0000000000
       945       315  TIP3  H2           -1.1665958754       -0.3633123137       -5.5706933325  CLST         315          1.0000000000
       946       316  TIP3  OH2         -13.2216324615       -3.8989985213       -5.5193175806  CLST         316          1.0000000000
       947       316  TIP3  H1          -12.4052151049       -4.3240244356       -5.9456353204  CLST         316          1.0000000000
       948       316  TIP3  H2          -12.9186554296       -3.0489224043       -5.9628074743  CLST         316          1.0000000000
       949       317  TIP3  OH2          -6.3527492421       -0.0544120772       -3.7418043651  CLST         317          1.0000000000
       950       317  TIP3  H1           -5.4909848633       -0.0263998632       -3.2203098464  CLST         317          1.0000000000
       951       317  TIP3  H2           -6.8030062644        0.5139359528       -3.0701747370  CLST         317          1.0000000000
       952       318  TIP3  OH2          -3.9567544819       -9.5953039149       -9.2907309178  CLST         318          1.0000000000
       953       318  TIP3  H1           -4.2406661663       -9.8692686134       -8.3435394028  CLST         318          1.0000000000
       954       318  TIP3  H2           -2.9959508789       -9.7153224367       -9.1572266661  CLST         318          1.0000000000
       955       319  TIP3  OH2           5.4661617081       10.8021126639        8.7136313609  CLST         319          1.0000000000
       956       319  TIP3  H1            6.2261008735       10.2740323783        8.4287914806  CLST         319          1.0000000000
       957       319  TIP3  H2            5.8474118936       11.5660983096        9.1298332450  CLST         319          1.0000000000
       958       320  TIP3  OH2         -10.7048658169        1.0606460899      -14.5694382604  CLST         320          1.0000000000
       959       320  TIP3  H1           -9.8033651376        1.2793733052      -14.9366703931  CLST         320          1.0000000000
       960       320  TIP3  H2          -10.3741023222        0.2363059191      -14.1144595003  CLST         320          1.0000000000
       961       321  TIP3  OH2          -9.7641062633       10.1132837698       -9.7327512645  CLST         321          1.0000000000
       962       321  TIP3  H1          -10.6336681255       10.0094673576       -9.9019792203  CLST         321          1.0000000000
       963       321  TIP3  H2          -10.0803158876       10.1079596575      -10.9299167060  CLST         321          1.0000000000
       964       322  TIP3  OH2         -12.5655410781       -1.8971593970       -2.3402077195  CLST         322          1.0000000000
       965       322  TIP3  H1          -12.2395345084       -1.3732208256       -3.1064431529  CLST         322          1.0000000000
       966       322  TIP3  H2          -11.7150921959       -1.9734688344       -1.8220401992  CLST         322          1.0000000000
       967       323  TIP3  OH2          -1.0267783547        3.9172280134        4.4223070704  CLST         323          1.0000000000
       968       323  TIP3  H1           -0.7847148269        2.9861801729        4.6349784185  CLST         323          1.0000000000
       969       323  TIP3  H2           -0.9269989168        3.8585150106        3.4607530616  CLST         323          1.0000000000
       970       324  TIP3  OH2         -10.9495730675        6.2512416955        1.4175353753  CLST         324          1.0000000000
       971       324  TIP3  H1          -11.0147200837        5.4667634995        1.9928449269  CLST         324          1.0000000000
       972       324  TIP3  H2          -10.2155724416        6.7298603460        1.9867146672  CLST         324          1.0000000000
       973       325  TIP3  OH2          -4.6646148030        0.8526210503        3.5465167187  CLST         325          1.0000000000
       974       325  TIP3  H1           -5.6750219280        0.8563800580        3.5235193179  CLST         325          1.0000000000
       975       325  TIP3  H2           -4.4596506382        1.7884152921        3.5585164182  CLST         325          1.0000000000
       976       326  TIP3  OH2           9.0802223999        8.5974115656       -2.8521248819  CLST         326          1.0000000000
       977       326  TIP3  H1            8.7489943058        7.7977276269       -2.3618782022  CLST         326          1.0000000000
       978       326  TIP3  H2            8.3563545141        8.5718105769       -3.5247060977  CLST         326          1.0000000000
       979       327  TIP3  OH2          10.4641867718       -3.7721494506      -13.2425581115  CLST         327          1.0000000000
       980       327  TIP3  H1           10.6522846857       -3.1829478252      -13.9120296202  CLST         327          1.0000000000
       981       327  TIP3  H2           10.0708467502       -3.1391673770      -12.5015833771  CLST         327          1.0000000000
       982       328  TIP3  OH2           2.2414473386        7.1528786826       -9.8330108823  CLST         328          1.0000000000
       983       328  TIP3  H1            2.6118117350        6.3156103923       -9.4279836135  CLST         328          1.0000000000
       984       328  TIP3  H2            3.1684838090        7.4784622723      -10.0028758762  CLST         328          1.0000000000
       985       329  TIP3  OH2           1.4122969006      -11.6843478015       -2.3785862390  CLST         329          1.0000000000
       986       329  TIP3  H1            1.5903680138      -10.7958068895       -2.7846293593  CLST         329          1.0000000000
       987       329  TIP3  H2            2.1950303045      -11.6792805117       -1.7799157737  CLST         329          1.0000000000
       988       330  TIP3  OH2          -9.4559353862       -0.8909642297        3.4121387845  CLST         330          1.0000000000
       989       330  TIP3  H1           -9.8100784838       -1.7529488299        3.1171377295  CLST         330          1.0000000000
       990       330  TIP3  H2          -10.2168672634       -0.5271891483        3.9079664972  CLST         330          1.0000000000
       991       331  TIP3  OH2          12.3107897156        9.7622533897       -9.0856137107  CLST         331          1.0000000000
       992       331  TIP3  H1           13.0579303804        9.9977553285       -9.3711223115  CLST         331          1.0000000000
       993       331  TIP3  H2           12.1999265507        8.7759104082       -9.0031700929  CLST         331          1.0000000000
       994       332  TIP3  OH2          11.2684718521       -1.3564548033       -4.4903508430  CLST         332          1.0000000000
       995       332  TIP3  H1           12.6220058589       -1.4751526570       -5.1630946807  CLST         332          1.0000000000
       996       332  TIP3  H2           11.7814236502       -0.7663928263       -4.3230534236  CLST         332          1.0000000000
       997       333  TIP3  OH2          10.6440032902      -14.1720500555        8.0416417000  CLST         333          1.0000000000
       998       333  TIP3  H1            9.7698723224      -13.8214521710        8.2860856423  CLST         333          1.0000000000
       999       333  TIP3  H2           10.6543992492      -14.3523758278        7.1161618414  CLST         333          1.0000000000
      1000       334  TIP3  OH2         -10.6127429405       -9.6543743940        9.2682444587  CLST         334          1.0000000000
      1001       334  TIP3  H1          -11.4822870630       -9.9420127428        8.8168812936  CLST         334          1.0000000000
      1002       334  TIP3  H2          -10.0482023650      -10.1660003319        8.6374020842  CLST         334          1.0000000000
      1003       335  TIP3  OH2           6.8706621460      -10.0131829756        1.3922151151  CLST         335          1.0000000000
      1004       335  TIP3  H1            6.7738202331      -10.2354770755        2.3389887372  CLST         335          1.0000000000
      1005       335  TIP3  H2            5.9085044386       -9.9459851012        1.1675837534  CLST         335          1.0000000000
      1006       336  TIP3  OH2          -9.2128161367       -3.4541155973       -3.4609286127  CLST         336          1.0000000000
      1007       336  TIP3  H1           -9.6319479029       -3.9667755650       -4.1706834696  CLST         336          1.0000000000
      1008       336  TIP3  H2           -8.8241212135       -2.7014707465       -3.9921535305  CLST         336          1.0000000000
      1009       337  TIP3  OH2          -1.5871698596       -4.7735013707        7.9098651693  CLST         337          1.0000000000
      1010       337  TIP3  H1           -1.2069182866       -4.6505582705        8.7968062288  CLST         337          1.0000000000
      1011       337  TIP3  H2           -1.8925109559       -3.8453368637        7.8720451575  CLST         337          1.0000000000
      1012       338  TIP3  OH2          -0.4849505964        2.7121267597       10.7128055489  CLST         338          1.0000000000
      1013       338  TIP3  H1           -0.4817333561        2.5890188165        9.6956952085  CLST         338          1.0000000000
      1014       338  TIP3  H2            0.1494471440        2.0011517693       10.8392997401  CLST         338          1.0000000000
      1015       339  TIP3  OH2           7.8595152945        7.9453218747        2.7391019710  CLST         339          1.0000000000
      1016       339  TIP3  H1            7.6283114141        8.6635996816        3.3412725152  CLST         339          1.0000000000
      1017       339  TIP3  H2            7.1603995318        7.9853989447        1.9964927399  CLST         339          1.0000000000
      1018       340  TIP3  OH2          -4.5898526668      -11.6962898419      -11.3165278104  CLST         340          1.0000000000
      1019       340  TIP3  H1           -4.3524347220      -10.9996585357      -10.6561189000  CLST         340          1.0000000000
      1020       340  TIP3  H2           -4.3890197724      -12.4820952736      -10.7894587124  CLST         340          1.0000000000
      1021       341  TIP3  OH2          -6.9747344277        4.7876799642        9.3123002912  CLST         341          1.0000000000
      1022       341  TIP3  H1           -5.9417928608        4.6333184426        9.4666965456  CLST         341          1.0000000000
      1023       341  TIP3  H2           -7.3443990959        3.8448337879        9.4858021998  CLST         341          1.0000000000
      1024       342  TIP3  OH2          -4.5471951805      -11.0169931975       13.9266495171  CLST         342          1.0000000000
      1025       342  TIP3  H1           -5.2778395402      -10.9789745151       13.2640886746  CLST         342          1.0000000000
      1026       342  TIP3  H2           -4.7396607277      -10.9065024729       14.7477047299  CLST         342          1.0000000000
      1027       343  TIP3  OH2           1.5480800814       -9.0931545254       -9.8977804052  CLST         343          1.0000000000
      1028       343  TIP3  H1            1.3249918052       -8.1838471097      -10.2534618112  CLST         343          1.0000000000
      1029       343  TIP3  H2            1.8974562291       -9.5594369024      -10.7174152685  CLST         343          1.0000000000
      1030       344  TIP3  OH2           5.4460566811       -3.9798066393        6.3687505230  CLST         344          1.0000000000
      1031       344  TIP3  H1            4.7845749228       -4.5582938540        6.8590403038  CLST         344          1.0000000000
      1032       344  TIP3  H2            5.9936546655       -4.6605626440        5.8855923190  CLST         344          1.0000000000
      1033       345  TIP3  OH2          13.2236234709        7.1467367578        8.8788910575  CLST         345          1.0000000000
      1034       345  TIP3  H1           12.6075722645        6.7393039496        8.2949388472  CLST         345          1.0000000000
      1035       345  TIP3  H2           12.6262849271        7.3062737975        9.6569444319  CLST         345          1.0000000000
      1036       346  TIP3  OH2           9.3493111661        9.3912200806        0.9044899703  CLST         346          1.0000000000
      1037       346  TIP3  H1            9.6300535312       10.1679758777        1.5194885607  CLST         346          1.0000000000
      1038       346  TIP3  H2            9.0482414371        8.8092336772        1.6207057583  CLST         346          1.0000000000
      1039       347  TIP3  OH2          -5.1802323443        2.8220714128       -9.7093914295  CLST         347          1.0000000000
      1040       347  TIP3  H1           -5.9397406940        3.2223853942       -9.2175704692  CLST         347          1.0000000000
      1041       347  TIP3  H2           -4.5222869539        2.9604794758       -9.0106992515  CLST         347          1.0000000000
      1042       348  TIP3  OH2          -1.2785280227        6.1300675865        5.8302861252  CLST         348          1.0000000000
      1043       348  TIP3  H1           -1.4549225886        5.2695836728        5.3281178077  CLST         348          1.0000000000
      1044       348  TIP3  H2           -0.6356835622        6.4546251949        5.0968804269  CLST         348          1.0000000000
      1045       349  TIP3  OH2          -4.1508138326        5.2225805652       -2.5190579591  CLST         349          1.0000000000
      1046       349  TIP3  H1           -3.8261835440        4.8416228615       -3.3381895168  CLST         349          1.0000000000
      1047       349  TIP3  H2           -3.5068744798        5.9786765538       -2.4394962915  CLST         349          1.0000000000
      1048       350  TIP3  OH2          -2.6192120448        8.8069042956        5.1274638750  CLST         350          1.0000000000
      1049       350  TIP3  H1           -3.2212440951        8.5098830549        4.4351540308  CLST         350          1.0000000000
      1050       350  TIP3  H2           -2.4433270235        8.0361258383        5.6738810066  CLST         350          1.0000000000
      1051       351  TIP3  OH2           4.7570092221       -7.6847597354       -7.7424179110  CLST         351          1.0000000000
      1052       351  TIP3  H1            4.0399913710       -8.3359849140       -7.7811383945  CLST         351          1.0000000000
      1053       351  TIP3  H2            4.7253375402       -7.4546342291       -8.7328634118  CLST         351          1.0000000000
      1054       352  TIP3  OH2         -10.3349944553      -10.9787663041        1.8084394737  CLST         352          1.0000000000
      1055       352  TIP3  H1           -9.3339512312      -11.0747802414        1.7792791173  CLST         352          1.0000000000
      1056       352  TIP3  H2          -10.4386890812      -10.2565914074        1.1462701764  CLST         352          1.0000000000
      1057       353  TIP3  OH2          10.7071276640       -8.2382299993       -8.6910602187  CLST         353          1.0000000000
      1058       353  TIP3  H1            9.7928142072       -8.5878060796       -8.9209096704  CLST         353          1.0000000000
      1059       353  TIP3  H2           10.7140379871       -8.2889480715       -7.7277846454  CLST         353          1.0000000000
      1060       354  TIP3  OH2           6.7474091916      -10.6485271497        4.2111390926  CLST         354          1.0000000000
      1061       354  TIP3  H1            7.3434475566      -10.9535211741        4.9418738867  CLST         354          1.0000000000
      1062       354  TIP3  H2            6.5711859355       -9.7704450432        4.7066069362  CLST         354          1.0000000000
      1063       355  TIP3  OH2          -7.2516574224        8.8378466861       -8.8488199167  CLST         355          1.0000000000
      1064       355  TIP3  H1           -6.6878539069        9.6245874532       -8.7956757311  CLST         355          1.0000000000
      1065       355  TIP3  H2           -8.0544804954        9.2997370624       -9.2534150964  CLST         355          1.0000000000
      1066       356  TIP3  OH2          12.5249063506        1.0564113516       -1.9986858619  CLST         356          1.0000000000
      1067       356  TIP3  H1           11.5763460756        0.8026812745       -2.1476644821  CLST         356          1.0000000000
      1068       356  TIP3  H2           12.6972874126        0.8074961090       -1.0760175486  CLST         356          1.0000000000
      1069       357  TIP3  OH2          -0.5133670664       -0.4503512780       -1.9087240940  CLST         357          1.0000000000
      1070       357  TIP3  H1            0.2994694912       -0.9795814235       -2.1558600878  CLST         357          1.0000000000
      1071       357  TIP3  H2           -0.6976200715       -0.1068496160       -2.8151744883  CLST         357          1.0000000000
      1072       358  TIP3  OH2          -5.6128327094        6.9845550068       -7.4509334236  CLST         358          1.0000000000
      1073       358  TIP3  H1           -6.2677991462        7.4591246660       -8.0765912866  CLST         358          1.0000000000
      1074       358  TIP3  H2           -6.3217971882        6.5446665756       -6.9422534881  CLST         358          1.0000000000
      1075       359  TIP3  OH2          -4.9593599231       12.0454535304        6.0521788137  CLST         359          1.0000000000
      1076       359  TIP3  H1           -5.3032570665       12.0330205794        5.1508756395  CLST         359          1.0000000000
      1077       359  TIP3  H2           -3.9892577176       12.1128775471        5.8800510768  CLST         359          1.0000000000
      1078       360  TIP3  OH2          -6.9586645500        5.7468545601       -3.4259289105  CLST         360          1.0000000000
      1079       360  TIP3  H1           -7.2463461038        6.5164236797       -2.8750196916  CLST         360          1.0000000000
      1080       360  TIP3  H2           -6.0165265295        5.6430914091       -3.1287390094  CLST         360          1.0000000000
      1081       361  TIP3  OH2          -1.5618988139       -1.1546776279       10.0115341806  CLST         361          1.0000000000
      1082       361  TIP3  H1           -1.4300323399       -0.6373344756       10.8599801257  CLST         361          1.0000000000
      1083       361  TIP3  H2           -1.6493484773       -2.0682414877       10.4185070373  CLST         361          1.0000000000
      1084       362  TIP3  OH2         -10.4847694203        2.8372877475        0.6273569092  CLST         362          1.0000000000
      1085       362  TIP3  H1          -10.3643691479        3.5813349905        0.0091961230  CLST         362          1.0000000000
      1086       362  TIP3  H2          -11.1271752370        2.2623315818        0.1633947846  CLST         362          1.0000000000
      1087       363  TIP3  OH2          10.8877558077        2.0611338334       10.1805056803  CLST         363          1.0000000000
      1088       363  TIP3  H1           10.8480867356        1.2093008082        9.7654184764  CLST         363          1.0000000000
      1089       363  TIP3  H2           11.6739505017        2.1037900135       10.7578127746  CLST         363          1.0000000000
      1090       364  TIP3  OH2           7.6167783528       -5.7540300377       -6.3248225732  CLST         364          1.0000000000
      1091       364  TIP3  H1            6.8354576515       -5.2461260642       -6.6627254152  CLST         364          1.0000000000
      1092       364  TIP3  H2            8.1856900003       -5.8000553397       -7.1522225081  CLST         364          1.0000000000
      1093       365  TIP3  OH2          -6.1744596269       -6.8642623506        2.5936765599  CLST         365          1.0000000000
      1094       365  TIP3  H1           -6.6349563360       -6.1082529449        2.2013937116  CLST         365          1.0000000000
      1095       365  TIP3  H2           -6.9490736414       -7.4482314621        2.8643445668  CLST         365          1.0000000000
      1096       366  TIP3  OH2           1.7080033167       -1.4758586202       -2.8336717136  CLST         366          1.0000000000
      1097       366  TIP3  H1            2.6162468860       -1.4583432981       -2.4780111195  CLST         366          1.0000000000
      1098       366  TIP3  H2            1.8361840360       -1.1170489862       -3.7332114771  CLST         366          1.0000000000
      1099       367  TIP3  OH2          -5.3120498961       11.7409915166       12.4953911715  CLST         367          1.0000000000
      1100       367  TIP3  H1           -6.2486141903       11.7856050261       12.0914506710  CLST         367          1.0000000000
      1101       367  TIP3  H2           -5.3278234230       11.9527078883       13.3081767050  CLST         367          1.0000000000
      1102       368  TIP3  OH2          -2.7132677586        6.3800948012        1.1436748255  CLST         368          1.0000000000
      1103       368  TIP3  H1           -2.6253967310        7.0441274562        0.4418075252  CLST         368          1.0000000000
      1104       368  TIP3  H2           -2.9855558720        6.9980246010        1.8556157821  CLST         368          1.0000000000
      1105       369  TIP3  OH2         -11.7044007811       -1.7800184117       -6.4649192090  CLST         369          1.0000000000
      1106       369  TIP3  H1          -10.7921565346       -2.1131000104       -6.3792188166  CLST         369          1.0000000000
      1107       369  TIP3  H2          -11.8514961028       -1.8718566808       -7.4473438915  CLST         369          1.0000000000
      1108       370  TIP3  OH2         -11.8917676389        5.6696904078      -11.4536741686  CLST         370          1.0000000000
      1109       370  TIP3  H1          -12.7425178041        4.2804411275      -13.0657537512  CLST         370          1.0000000000
      1110       370  TIP3  H2          -12.8202027419        5.7650345094      -11.4522001276  CLST         370          1.0000000000
      1111       371  TIP3  OH2           2.0521551203        7.8695094020        5.7711161473  CLST         371          1.0000000000
      1112       371  TIP3  H1            1.8016357623        7.5164756750        6.6521442976  CLST         371          1.0000000000
      1113       371  TIP3  H2            2.9933582981        8.0108541042        5.9364961381  CLST         371          1.0000000000
      1114       372  TIP3  OH2           8.1009082948       -7.6298870119        9.0444729637  CLST         372          1.0000000000
      1115       372  TIP3  H1            8.6428386802       -7.5300481637        8.2443254000  CLST         372          1.0000000000
      1116       372  TIP3  H2            8.8232879889       -7.8902461167        9.7097189626  CLST         372          1.0000000000
      1117       373  TIP3  OH2          11.1080442906       -0.3415177951        6.6311500897  CLST         373          1.0000000000
      1118       373  TIP3  H1           11.4075254947        0.3428123064        5.9554092093  CLST         373          1.0000000000
      1119       373  TIP3  H2           10.2096528274       -0.4076216474        6.2775443938  CLST         373          1.0000000000
      1120       374  TIP3  OH2          -9.5092358063        4.8260003758      -12.3506814076  CLST         374          1.0000000000
      1121       374  TIP3  H1          -10.0898311265        5.3930962861      -12.8976725982  CLST         374          1.0000000000
      1122       374  TIP3  H2          -10.3630501213        4.8630483063      -11.6671008312  CLST         374          1.0000000000
      1123       375  TIP3  OH2           9.7774524267       -5.4313892921       -2.6873141708  CLST         375          1.0000000000
      1124       375  TIP3  H1           10.2523574581       -4.9866588300       -3.4154029106  CLST         375          1.0000000000
      1125       375  TIP3  H2            9.9026667291       -6.3536613964       -2.9565065967  CLST         375          1.0000000000
      1126       376  TIP3  OH2          -2.2545027379      -11.0999571610       12.1465777449  CLST         376          1.0000000000
      1127       376  TIP3  H1           -2.9683672967      -11.1696995114       12.8344876760  CLST         376          1.0000000000
      1128       376  TIP3  H2           -2.8727879321      -11.3952498089       11.4171011954  CLST         376          1.0000000000
      1129       377  TIP3  OH2         -10.0740615161       12.8884593439       10.5971251756  CLST         377          1.0000000000
      1130       377  TIP3  H1           -9.1182299224       12.5354912994       10.5827738975  CLST         377          1.0000000000
      1131       377  TIP3  H2           -9.9699845488       13.4049920745        9.7451158148  CLST         377          1.0000000000
      1132       378  TIP3  OH2           2.2558789920       -7.8934009473        7.4160944341  CLST         378          1.0000000000
      1133       378  TIP3  H1            2.2420320319       -6.9297903524        7.3097513691  CLST         378          1.0000000000
      1134       378  TIP3  H2            1.4508411719       -8.1797323630        7.8819883927  CLST         378          1.0000000000
      1135       379  TIP3  OH2          -9.5184329406        9.2786462237       -1.1057038418  CLST         379          1.0000000000
      1136       379  TIP3  H1           -9.0109030417        9.4810891739       -0.2805247119  CLST         379          1.0000000000
      1137       379  TIP3  H2           -9.7181142645       10.1793749039       -1.4724112445  CLST         379          1.0000000000
      1138       380  TIP3  OH2           2.9080145920       -4.2117657990      -11.2973345078  CLST         380          1.0000000000
      1139       380  TIP3  H1            2.3965215259       -3.3944822886      -11.7306674977  CLST         380          1.0000000000
      1140       380  TIP3  H2            3.2168333424       -4.5165372613      -12.1636950439  CLST         380          1.0000000000
      1141       381  TIP3  OH2          10.2611994645        4.3750086967        3.4578864157  CLST         381          1.0000000000
      1142       381  TIP3  H1            9.4955312501        4.9123667805        3.8033837152  CLST         381          1.0000000000
      1143       381  TIP3  H2           10.9684317048        5.0890807601        3.4739489558  CLST         381          1.0000000000
      1144       382  TIP3  OH2           1.9651738307       -5.2742058782        5.7660724831  CLST         382          1.0000000000
      1145       382  TIP3  H1            2.6088585744       -5.0440879542        6.4735939277  CLST         382          1.0000000000
      1146       382  TIP3  H2            2.6017778468       -5.8377248305        5.2072847998  CLST         382          1.0000000000
      1147       383  TIP3  OH2          10.2787853659        8.8081299747        4.8689604259  CLST         383          1.0000000000
      1148       383  TIP3  H1            9.4731397126        8.8770956672        4.3146843600  CLST         383          1.0000000000
      1149       383  TIP3  H2           10.3374277188        9.7764805491        5.0800830403  CLST         383          1.0000000000
      1150       384  TIP3  OH2          -3.3194313495       -1.7122850916       -8.2376909708  CLST         384          1.0000000000
      1151       384  TIP3  H1           -2.7170332285       -2.5202574080       -8.3090780991  CLST         384          1.0000000000
      1152       384  TIP3  H2           -2.7497632042       -1.2205722648       -7.5726567874  CLST         384          1.0000000000
      1153       385  TIP3  OH2           3.7017157672      -11.8145755969       -0.7568725937  CLST         385          1.0000000000
      1154       385  TIP3  H1            4.5918708401      -12.2533642066       -0.5711318160  CLST         385          1.0000000000
      1155       385  TIP3  H2            3.8614143493      -10.9936121415       -0.2337913885  CLST         385          1.0000000000
      1156       386  TIP3  OH2          -4.3199713009        9.4365564110       -6.0893281674  CLST         386          1.0000000000
      1157       386  TIP3  H1           -4.5807194361        8.5101021982       -6.2716389957  CLST         386          1.0000000000
      1158       386  TIP3  H2           -4.3996487538        9.6989643830       -7.0358360724  CLST         386          1.0000000000
      1159       387  TIP3  OH2          -9.9043631912       10.7044722597        2.7660904784  CLST         387          1.0000000000
      1160       387  TIP3  H1          -10.6924286551       10.4285286287        2.2757805927  CLST         387          1.0000000000
      1161       387  TIP3  H2           -9.1948654707       10.3142574185        2.1916168878  CLST         387          1.0000000000
      1162       388  TIP3  OH2          -1.7484973805      -12.3086470081        6.0041911884  CLST         388          1.0000000000
      1163       388  TIP3  H1           -2.2172418995      -11.5208770470        5.6552430810  CLST         388          1.0000000000
      1164       388  TIP3  H2           -1.8297503632      -12.1434953532        6.9846222866  CLST         388          1.0000000000
      1165       389  TIP3  OH2          -8.1568374518        3.3978889748       -3.5687909572  CLST         389          1.0000000000
      1166       389  TIP3  H1           -7.6577090606        4.2624171430       -3.4411742805  CLST         389          1.0000000000
      1167       389  TIP3  H2           -9.0529136018        3.7900518818       -3.4259222941  CLST         389          1.0000000000
      1168       390  TIP3  OH2          -5.8791814975       -4.0621539890        4.5983756323  CLST         390          1.0000000000
      1169       390  TIP3  H1           -5.3947834649       -3.2028736333        4.6392042394  CLST         390          1.0000000000
      1170       390  TIP3  H2           -5.2459241540       -4.5293750731        4.0160525123  CLST         390          1.0000000000
      1171       391  TIP3  OH2          -8.5021810453       -8.9025562484       -6.1176275546  CLST         391          1.0000000000
      1172       391  TIP3  H1           -8.9042724560       -9.7091327491       -6.5259138615  CLST         391          1.0000000000
      1173       391  TIP3  H2           -7.7447542498       -9.4236873098       -5.6645621371  CLST         391          1.0000000000
      1174       392  TIP3  OH2           0.9016166668       -2.0044552815       10.0849494271  CLST         392          1.0000000000
      1175       392  TIP3  H1            0.4717623246       -2.8458413773       10.3599098521  CLST         392          1.0000000000
      1176       392  TIP3  H2            0.0595270811       -1.5052866423        9.8807484019  CLST         392          1.0000000000
      1177       393  TIP3  OH2          11.0353999641      -12.3547788012       -0.6772253536  CLST         393          1.0000000000
      1178       393  TIP3  H1           11.7744821274      -10.7701366350       -0.8503539331  CLST         393          1.0000000000
      1179       393  TIP3  H2           11.6088080332      -12.7084534417       -1.2561046884  CLST         393          1.0000000000
      1180       394  TIP3  OH2           0.6585234636       11.8681703236       -8.5947648650  CLST         394          1.0000000000
      1181       394  TIP3  H1            1.1502141044       12.2281688404       -7.8114220596  CLST         394          1.0000000000
      1182       394  TIP3  H2            0.7648385655       10.9159752126       -8.3060621864  CLST         394          1.0000000000
      1183       395  TIP3  OH2           6.9664190737        7.6414494216       -4.6205889979  CLST         395          1.0000000000
      1184       395  TIP3  H1            6.1576183769        8.2049838306       -4.5923353273  CLST         395          1.0000000000
      1185       395  TIP3  H2            6.7440207108        7.1351458649       -5.4443784071  CLST         395          1.0000000000
      1186       396  TIP3  OH2          -1.1250342670       -9.8940393362       -9.1089557023  CLST         396          1.0000000000
      1187       396  TIP3  H1           -1.1344212015       -9.8796327424       -8.1002143248  CLST         396          1.0000000000
      1188       396  TIP3  H2           -0.1702855826       -9.5913234580       -9.2205043172  CLST         396          1.0000000000
      1189       397  TIP3  OH2          11.4409842992        7.2451120896       -9.0479663314  CLST         397          1.0000000000
      1190       397  TIP3  H1           11.4958205696        6.4425496588       -8.5088835686  CLST         397          1.0000000000
      1191       397  TIP3  H2           10.5043098007        7.4718178362       -8.6709780043  CLST         397          1.0000000000
      1192       398  TIP3  OH2          10.6229262367        7.7451748436       -4.9518485410  CLST         398          1.0000000000
      1193       398  TIP3  H1           10.2814708457        8.2220564521       -4.1224297675  CLST         398          1.0000000000
      1194       398  TIP3  H2           11.2835003052        7.1882870367       -4.3820314994  CLST         398          1.0000000000
      1195       399  TIP3  OH2           1.8922360485       11.2424664609        4.8097665857  CLST         399          1.0000000000
      1196       399  TIP3  H1            1.1548016416       10.6626807173        5.0398474018  CLST         399          1.0000000000
      1197       399  TIP3  H2            2.3812439870       10.9998898302        5.6591976928  CLST         399          1.0000000000
      1198       400  TIP3  OH2           3.9735162777       -3.0686681871       -5.0778673523  CLST         400          1.0000000000
      1199       400  TIP3  H1            4.8394394895       -2.8964563262       -4.5799539175  CLST         400          1.0000000000
      1200       400  TIP3  H2            4.3724558905       -3.6174233319       -5.7971959327  CLST         400          1.0000000000
      1201       401  TIP3  OH2         -15.2703779097       10.0557315345        5.5256201004  CLST         401          1.0000000000
      1202       401  TIP3  H1          -14.6338367065       10.5136166585        6.1667411964  CLST         401          1.0000000000
      1203       401  TIP3  H2          -15.6348477495        9.4618998171        6.2171400147  CLST         401          1.0000000000
      1204       402  TIP3  OH2           1.8515063363       -1.6053803950       13.0018343012  CLST         402          1.0000000000
      1205       402  TIP3  H1            1.4035038592       -2.5058177791       12.9665137902  CLST         402          1.0000000000
      1206       402  TIP3  H2            1.9366064399       -1.6334225736       12.0116250102  CLST         402          1.0000000000
      1207       403  TIP3  OH2          -1.9340019719       -6.9354281261       -0.7833139722  CLST         403          1.0000000000
      1208       403  TIP3  H1           -1.8671048100       -6.7549300425       -1.7439350901  CLST         403          1.0000000000
      1209       403  TIP3  H2           -1.7420819333       -8.4238658003       -1.6733914369  CLST         403          1.0000000000
      1210       404  TIP3  OH2          -5.0601113925       -2.2286582034        9.2353934363  CLST         404          1.0000000000
      1211       404  TIP3  H1           -5.2939729688       -2.5119229846       10.1371862470  CLST         404          1.0000000000
      1212       404  TIP3  H2           -5.4954305060       -3.0329225908        8.8341909441  CLST         404          1.0000000000
      1213       405  TIP3  OH2         -11.8735962249        7.2351228875       11.3163533365  CLST         405          1.0000000000
      1214       405  TIP3  H1          -11.8020039233        6.2703420272       10.9688947853  CLST         405          1.0000000000
      1215       405  TIP3  H2          -12.6360376101        7.0546010397       11.9142192857  CLST         405          1.0000000000
      1216       406  TIP3  OH2           1.0486381542        7.7621086033      -12.2095709804  CLST         406          1.0000000000
      1217       406  TIP3  H1            1.3838759494        8.5548355660      -12.6736115090  CLST         406          1.0000000000
      1218       406  TIP3  H2            1.4688906005        7.7699870516      -11.3319834764  CLST         406          1.0000000000
      1219       407  TIP3  OH2          10.3625928937      -13.2772493618        5.1277814305  CLST         407          1.0000000000
      1220       407  TIP3  H1           10.3224021660      -13.3888012182        4.1560358538  CLST         407          1.0000000000
      1221       407  TIP3  H2           11.2609219563      -12.9099011719        5.1640915938  CLST         407          1.0000000000
      1222       408  TIP3  OH2          -2.9503776895      -11.5803237911        1.9384383227  CLST         408          1.0000000000
      1223       408  TIP3  H1           -2.1818610799      -10.9553370279        1.9723779294  CLST         408          1.0000000000
      1224       408  TIP3  H2           -2.5374874388      -12.3639628767        2.3850001495  CLST         408          1.0000000000
      1225       409  TIP3  OH2           1.1882486784       -9.6178366686        9.7760952280  CLST         409          1.0000000000
      1226       409  TIP3  H1            0.7600926101       -9.1761236431       10.5149937885  CLST         409          1.0000000000
      1227       409  TIP3  H2            1.5404589098      -10.3772248453       10.3110823389  CLST         409          1.0000000000
      1228       410  TIP3  OH2           9.8778720408       -7.0806704742       -5.2593615135  CLST         410          1.0000000000
      1229       410  TIP3  H1            8.9326735678       -6.9054904736       -5.4746335530  CLST         410          1.0000000000
      1230       410  TIP3  H2           10.1716922687       -6.1874794999       -5.5476473207  CLST         410          1.0000000000
      1231       411  TIP3  OH2         -10.0458734031       -2.2217898853       -1.3741227883  CLST         411          1.0000000000
      1232       411  TIP3  H1           -9.3814669446       -2.0731292858       -0.7259303746  CLST         411          1.0000000000
      1233       411  TIP3  H2           -9.6648647573       -2.8714250662       -2.0532187329  CLST         411          1.0000000000
      1234       412  TIP3  OH2           6.6080182286      -10.5108333220      -11.9565539382  CLST         412          1.0000000000
      1235       412  TIP3  H1            5.9825776037      -10.8287878174      -11.3056450908  CLST         412          1.0000000000
      1236       412  TIP3  H2            7.4205140828      -10.9976894633      -11.7231164500  CLST         412          1.0000000000
      1237       413  TIP3  OH2           7.0834375001       13.0662226498        0.4487446025  CLST         413          1.0000000000
      1238       413  TIP3  H1            7.5709470572       12.4685687550       -0.1178838998  CLST         413          1.0000000000
      1239       413  TIP3  H2            7.8819839740       13.5185151299        0.8427389418  CLST         413          1.0000000000
      1240       414  TIP3  OH2           1.4579276495       -2.3307407627      -12.4457746154  CLST         414          1.0000000000
      1241       414  TIP3  H1            0.5774263545       -1.9500848932      -12.2562195186  CLST         414          1.0000000000
      1242       414  TIP3  H2            1.4553371597       -2.5160244578      -13.3491019801  CLST         414          1.0000000000
      1243       415  TIP3  OH2           4.0852592165        5.3413607791       -8.2018422444  CLST         415          1.0000000000
      1244       415  TIP3  H1            3.4159008848        4.6236022278       -7.9647866062  CLST         415          1.0000000000
      1245       415  TIP3  H2            4.6672311834        4.6479323548       -8.7411700830  CLST         415          1.0000000000
      1246       416  TIP3  OH2           5.6316844569       12.4465163244       -7.7228605021  CLST         416          1.0000000000
      1247       416  TIP3  H1            5.3776681806       13.2860653111       -7.6955159036  CLST         416          1.0000000000
      1248       416  TIP3  H2            6.5044149685       12.3381377260       -8.1936891301  CLST         416          1.0000000000
      1249       417  TIP3  OH2          12.6221049629      -11.2197708737        2.7908557521  CLST         417          1.0000000000
      1250       417  TIP3  H1           11.8430069198      -11.7049879673        2.4366811985  CLST         417          1.0000000000
      1251       417  TIP3  H2           12.7116291941      -10.4271363038        2.2109167964  CLST         417          1.0000000000
      1252       418  TIP3  OH2          -9.2281819354       -1.5949295297        8.3045039347  CLST         418          1.0000000000
      1253       418  TIP3  H1           -8.7725851741       -1.2149229848        7.5275847809  CLST         418          1.0000000000
      1254       418  TIP3  H2           -9.0601464015       -0.9054733621        8.9616962633  CLST         418          1.0000000000
      1255       419  TIP3  OH2          15.0082463777        0.1423134228       -6.2374664082  CLST         419          1.0000000000
      1256       419  TIP3  H1           15.3108503036        1.1537545082       -4.8643556984  CLST         419          1.0000000000
      1257       419  TIP3  H2           15.6520953799        0.8338176705       -6.2981940957  CLST         419          1.0000000000
      1258       420  TIP3  OH2          -8.2750964523       -8.2417341055        3.6886964134  CLST         420          1.0000000000
      1259       420  TIP3  H1           -9.0507527961       -7.7852512690        3.2506357475  CLST         420          1.0000000000
      1260       420  TIP3  H2           -8.6395315359       -9.1532679758        3.6227170582  CLST         420          1.0000000000
      1261       421  TIP3  OH2           3.4384683890       -6.3624619265      -13.3102669879  CLST         421          1.0000000000
      1262       421  TIP3  H1            4.3787599087       -6.5915434614      -13.2688080898  CLST         421          1.0000000000
      1263       421  TIP3  H2            3.0846341632       -7.3097075275      -13.4173148011  CLST         421          1.0000000000
      1264       422  TIP3  OH2          -1.8989128496       -9.3892698021       -1.6119257826  CLST         422          1.0000000000
      1265       422  TIP3  H1           -1.2026760985      -10.0795064641       -1.7763206522  CLST         422          1.0000000000
      1266       422  TIP3  H2           -2.7428326794       -9.9227736410       -1.6858753622  CLST         422          1.0000000000
      1267       423  TIP3  OH2           1.8095641488        4.8177908178       -3.9277528021  CLST         423          1.0000000000
      1268       423  TIP3  H1            2.5813418092        5.2192259858       -4.4453164219  CLST         423          1.0000000000
      1269       423  TIP3  H2            2.2930578300        4.4410217060       -3.1721890490  CLST         423          1.0000000000
      1270       424  TIP3  OH2          -8.9891710234        4.4290742196        4.3428648253  CLST         424          1.0000000000
      1271       424  TIP3  H1           -8.8393350901        3.6963123559        3.7093697711  CLST         424          1.0000000000
      1272       424  TIP3  H2           -8.1620147082        4.9137787806        4.3041817913  CLST         424          1.0000000000
      1273       425  TIP3  OH2           8.2158971045      -12.6159669788        8.5041329608  CLST         425          1.0000000000
      1274       425  TIP3  H1            8.3626896182      -12.3712438269        7.5121635759  CLST         425          1.0000000000
      1275       425  TIP3  H2            7.8022989843      -11.7563444736        8.7228028910  CLST         425          1.0000000000
      1276       426  TIP3  OH2           8.2297612953        2.3125565962        8.2218367373  CLST         426          1.0000000000
      1277       426  TIP3  H1            8.9472164862        2.1588618276        8.9301093713  CLST         426          1.0000000000
      1278       426  TIP3  H2            8.4790409532        3.2829678837        8.1302028055  CLST         426          1.0000000000
      1279       427  TIP3  OH2          11.4486563867        7.4920284463       10.7948054318  CLST         427          1.0000000000
      1280       427  TIP3  H1           11.4157167124        7.7725391730       11.7259793891  CLST         427          1.0000000000
      1281       427  TIP3  H2           10.6438766350        6.8663648225       10.7661930355  CLST         427          1.0000000000
      1282       428  TIP3  OH2          12.5572359084        7.4921990295        1.0789680711  CLST         428          1.0000000000
      1283       428  TIP3  H1           12.3389805924        8.1143191983        0.3150148393  CLST         428          1.0000000000
      1284       428  TIP3  H2           13.4509368132        7.6451273030        1.0212800769  CLST         428          1.0000000000
      1285       429  TIP3  OH2          11.8602709521      -10.0070057620       -0.9004231021  CLST         429          1.0000000000
      1286       429  TIP3  H1           12.2165168812       -9.4853757520       -0.0868688864  CLST         429          1.0000000000
      1287       429  TIP3  H2           11.5706167626       -9.2849431909       -1.5357486288  CLST         429          1.0000000000
      1288       430  TIP3  OH2           9.9337682700       -6.6906274021        3.7321355241  CLST         430          1.0000000000
      1289       430  TIP3  H1            9.8880860754       -7.2076836341        2.8664614136  CLST         430          1.0000000000
      1290       430  TIP3  H2           10.9548198081       -6.5930201534        3.7004988918  CLST         430          1.0000000000
      1291       431  TIP3  OH2         -12.8174062868        9.4794930652       -2.1340204253  CLST         431          1.0000000000
      1292       431  TIP3  H1          -13.6214338551        9.8513642846       -2.3885351503  CLST         431          1.0000000000
      1293       431  TIP3  H2          -13.0361125618        9.0317071280       -1.3314132125  CLST         431          1.0000000000
      1294       432  TIP3  OH2           5.3769298005        8.6278503502       -9.9656582395  CLST         432          1.0000000000
      1295       432  TIP3  H1            5.6812355320        9.0511421819       -9.1377432105  CLST         432          1.0000000000
      1296       432  TIP3  H2            4.6364434453        9.2901855021      -10.0346998112  CLST         432          1.0000000000
      1297       433  TIP3  OH2          -0.7264607821        8.1348847803        7.9250921659  CLST         433          1.0000000000
      1298       433  TIP3  H1           -1.5074560596        8.5847737617        8.2879746794  CLST         433          1.0000000000
      1299       433  TIP3  H2           -1.0632822677        7.4202659475        7.3737562182  CLST         433          1.0000000000
      1300       434  TIP3  OH2          -7.4506332328        0.6513165823        3.8070575445  CLST         434          1.0000000000
      1301       434  TIP3  H1           -7.7568974306        1.3469879637        3.1415506396  CLST         434          1.0000000000
      1302       434  TIP3  H2           -8.1823762776       -0.0310349945        3.4832682244  CLST         434          1.0000000000
      1303       435  TIP3  OH2           9.9345705763       -0.4250350170       -7.2859783506  CLST         435          1.0000000000
      1304       435  TIP3  H1            9.9931066208       -0.4770826307       -6.2993820355  CLST         435          1.0000000000
      1305       435  TIP3  H2           10.3842592343        0.3735206654       -7.5031962099  CLST         435          1.0000000000
      1306       436  TIP3  OH2           3.6902710744       10.4773277469       -9.1336448097  CLST         436          1.0000000000
      1307       436  TIP3  H1            4.0540453317       11.1692125198       -8.5694458873  CLST         436          1.0000000000
      1308       436  TIP3  H2            2.8885983082       10.1811090195       -8.6752112702  CLST         436          1.0000000000
      1309       437  TIP3  OH2          -8.3475773613       -0.8838136117       -8.0318655257  CLST         437          1.0000000000
      1310       437  TIP3  H1           -8.5036745359       -0.4930096367       -8.9290177397  CLST         437          1.0000000000
      1311       437  TIP3  H2           -7.3632672868       -0.6540606187       -7.9585661307  CLST         437          1.0000000000
      1312       438  TIP3  OH2          -3.3740430457        5.5290979189       -8.1280593606  CLST         438          1.0000000000
      1313       438  TIP3  H1           -4.2158161090        5.9752105528       -7.8569579803  CLST         438          1.0000000000
      1314       438  TIP3  H2           -3.4300661721        5.8432474959       -9.0792865263  CLST         438          1.0000000000
      1315       439  TIP3  OH2          14.2343975217        1.6549612523       -3.9941177483  CLST         439          1.0000000000
      1316       439  TIP3  H1           13.5768632067        2.3639907726       -4.1880884831  CLST         439          1.0000000000
      1317       439  TIP3  H2           13.7948437087        1.2817435538       -3.1515558208  CLST         439          1.0000000000
      1318       440  TIP3  OH2           1.0750335267      -12.8957895824      -11.4521766902  CLST         440          1.0000000000
      1319       440  TIP3  H1            0.1224663135      -12.5835556222      -11.1794004301  CLST         440          1.0000000000
      1320       440  TIP3  H2            0.9836366804      -13.6775527963      -11.7299480520  CLST         440          1.0000000000
      1321       441  TIP3  OH2          -1.5541814321       -4.2731485313        3.2534401263  CLST         441          1.0000000000
      1322       441  TIP3  H1           -2.0609881369       -3.5310411956        3.4072858036  CLST         441          1.0000000000
      1323       441  TIP3  H2           -1.2761187349       -4.6097405189        4.1364049952  CLST         441          1.0000000000
      1324       442  TIP3  OH2           3.2946048931       -9.9408090639       -8.0070783316  CLST         442          1.0000000000
      1325       442  TIP3  H1            3.9431611915      -10.3123164272       -8.6647936434  CLST         442          1.0000000000
      1326       442  TIP3  H2            2.5568793923       -9.6298857124       -8.5753698311  CLST         442          1.0000000000
      1327       443  TIP3  OH2           0.6793427382       10.4084580985      -12.5674460070  CLST         443          1.0000000000
      1328       443  TIP3  H1            1.0933539752       11.2681844220      -12.2707875000  CLST         443          1.0000000000
      1329       443  TIP3  H2            1.5341698578        9.9072045902      -12.6385167077  CLST         443          1.0000000000
      1330       444  TIP3  OH2          -7.9551360901        1.4750261094       -1.9054135703  CLST         444          1.0000000000
      1331       444  TIP3  H1           -7.9279671763        2.2935370661       -2.4453839176  CLST         444          1.0000000000
      1332       444  TIP3  H2           -7.4927690777        1.8864863340       -1.1215490098  CLST         444          1.0000000000
      1333       445  TIP3  OH2         -11.5958575888       -5.2636917439        6.1613014203  CLST         445          1.0000000000
      1334       445  TIP3  H1          -11.7346126572       -4.2625277891        6.0417050072  CLST         445          1.0000000000
      1335       445  TIP3  H2          -11.4079429552       -5.1434152072        7.1400369696  CLST         445          1.0000000000
      1336       446  TIP3  OH2          -2.9395649688        4.5705713677       -5.2079572213  CLST         446          1.0000000000
      1337       446  TIP3  H1           -3.1637496717        4.7529887154       -6.1367583097  CLST         446          1.0000000000
      1338       446  TIP3  H2           -2.0336192232        4.9628392523       -5.1735377924  CLST         446          1.0000000000
      1339       447  TIP3  OH2          -5.0202927475      -12.7366718964       -3.8511009208  CLST         447          1.0000000000
      1340       447  TIP3  H1           -5.3886228624      -13.4581368957       -3.3640062522  CLST         447          1.0000000000
      1341       447  TIP3  H2           -4.5747148032      -12.2668739100       -3.1207717180  CLST         447          1.0000000000
      1342       448  TIP3  OH2           7.3685340673        9.5939251919        4.6936342696  CLST         448          1.0000000000
      1343       448  TIP3  H1            7.4647339957        9.5578706656        5.7050256113  CLST         448          1.0000000000
      1344       448  TIP3  H2            6.5867478517       10.1940174066        4.7623182774  CLST         448          1.0000000000
      1345       449  TIP3  OH2           4.3237272022        5.2260352693        8.5889866618  CLST         449          1.0000000000
      1346       449  TIP3  H1            4.9297846374        4.6186361637        9.1449567042  CLST         449          1.0000000000
      1347       449  TIP3  H2            4.1943087211        4.7158219581        7.7759217974  CLST         449          1.0000000000
      1348       450  TIP3  OH2          -3.9909704538        0.4538580456       -2.0867288315  CLST         450          1.0000000000
      1349       450  TIP3  H1           -3.6671971222        1.1602064793       -2.6633005471  CLST         450          1.0000000000
      1350       450  TIP3  H2           -3.1513288495        0.1585560630       -1.7027599000  CLST         450          1.0000000000
      1351       451  TIP3  OH2          13.5618458528       -1.8031494726       -5.7485901584  CLST         451          1.0000000000
      1352       451  TIP3  H1           15.7054843255       -1.7376096285       -5.8914436750  CLST         451          1.0000000000
      1353       451  TIP3  H2           14.5120322074       -0.6212678375       -5.8608200953  CLST         451          1.0000000000
      1354       452  TIP3  OH2           8.5562839155        4.9576439856        7.9343033386  CLST         452          1.0000000000
      1355       452  TIP3  H1            7.8061235985        5.6240241421        7.8382546280  CLST         452          1.0000000000
      1356       452  TIP3  H2            9.2167724975        5.6054014603        7.5499906844  CLST         452          1.0000000000
      1357       453  TIP3  OH2           7.0644875198        2.7603638623       -5.9862639286  CLST         453          1.0000000000
      1358       453  TIP3  H1            6.2960783491        2.3052663822       -5.5855764668  CLST         453          1.0000000000
      1359       453  TIP3  H2            6.6152260235        3.0491914262       -6.7955567110  CLST         453          1.0000000000
      1360       454  TIP3  OH2           1.2024749844        5.3480776714        1.8446571017  CLST         454          1.0000000000
      1361       454  TIP3  H1            0.2459030489        4.9958471048        1.8315579046  CLST         454          1.0000000000
      1362       454  TIP3  H2            1.0150660859        6.0354183771        2.5395131130  CLST         454          1.0000000000
      1363       455  TIP3  OH2          -1.0856042444        0.7937501974      -10.3016747929  CLST         455          1.0000000000
      1364       455  TIP3  H1           -1.5372744512        1.0312439222       -9.4743170922  CLST         455          1.0000000000
      1365       455  TIP3  H2           -0.8273062686        1.7742430152      -10.5547800194  CLST         455          1.0000000000
      1366       456  TIP3  OH2           5.2858148154       11.2287033784        5.1696924039  CLST         456          1.0000000000
      1367       456  TIP3  H1            4.6989758723       11.4836161324        4.4169049796  CLST         456          1.0000000000
      1368       456  TIP3  H2            4.6686710701       11.1471478061        5.9190180987  CLST         456          1.0000000000
      1369       457  TIP3  OH2          -4.8216455140       -7.6743769650        4.7878244308  CLST         457          1.0000000000
      1370       457  TIP3  H1           -5.6432824234       -7.8982009933        5.3221572893  CLST         457          1.0000000000
      1371       457  TIP3  H2           -5.2702818626       -7.2132787439        4.0142712657  CLST         457          1.0000000000
      1372       458  TIP3  OH2           7.9757699815       -6.5670147293      -11.3584130869  CLST         458          1.0000000000
      1373       458  TIP3  H1            8.9088148926       -6.3919158738      -11.6927359617  CLST         458          1.0000000000
      1374       458  TIP3  H2            7.9817532707       -5.7198399722      -10.8341700984  CLST         458          1.0000000000
      1375       459  TIP3  OH2           6.6003510972      -10.0799069953       -7.8522977409  CLST         459          1.0000000000
      1376       459  TIP3  H1            6.1228777100       -9.2545610532       -7.5631227255  CLST         459          1.0000000000
      1377       459  TIP3  H2            7.3828486025       -9.6450782566       -8.2769194061  CLST         459          1.0000000000
      1378       460  TIP3  OH2           9.1569255436       -2.2866476336       -2.8546282149  CLST         460          1.0000000000
      1379       460  TIP3  H1            9.7059974357       -2.8707825191       -2.3086418266  CLST         460          1.0000000000
      1380       460  TIP3  H2            9.9160595509       -1.7850231178       -3.3378614783  CLST         460          1.0000000000
      1381       461  TIP3  OH2          -1.2415892543      -12.8039858992       -5.3634470153  CLST         461          1.0000000000
      1382       461  TIP3  H1           -0.5943826291      -12.9070331839       -6.0878409926  CLST         461          1.0000000000
      1383       461  TIP3  H2           -0.8369146310      -13.1308339161       -4.5132066279  CLST         461          1.0000000000
      1384       462  TIP3  OH2          -0.0166457940        5.3679084513      -12.5770562550  CLST         462          1.0000000000
      1385       462  TIP3  H1            0.2757810719        6.3337933440      -12.4906331403  CLST         462          1.0000000000
      1386       462  TIP3  H2            0.8802370298        5.0892652304      -12.9179059224  CLST         462          1.0000000000
      1387       463  TIP3  OH2          -1.8059836722        1.8900892678       -7.7104281573  CLST         463          1.0000000000
      1388       463  TIP3  H1           -1.6029329055        1.0225546094       -7.2977096834  CLST         463          1.0000000000
      1389       463  TIP3  H2           -2.7341940712        1.9860537059       -7.3937710461  CLST         463          1.0000000000
      1390       464  TIP3  OH2          -6.6011235919        6.2693265356        4.2994169466  CLST         464          1.0000000000
      1391       464  TIP3  H1           -6.1671995235        5.7183257105        4.9546961538  CLST         464          1.0000000000
      1392       464  TIP3  H2           -7.0407070183        6.9108354521        4.9412886405  CLST         464          1.0000000000
      1393       465  TIP3  OH2          -4.6301043822      -12.5827920564        6.4131661956  CLST         465          1.0000000000
      1394       465  TIP3  H1           -3.7532560037      -13.0173979184        6.4027098917  CLST         465          1.0000000000
      1395       465  TIP3  H2           -4.3021765542      -11.6687425619        6.4936643901  CLST         465          1.0000000000
      1396       466  TIP3  OH2          -2.3915337402        9.2182565954       -4.2785350770  CLST         466          1.0000000000
      1397       466  TIP3  H1           -3.0843793705        9.3668104533       -4.9648541719  CLST         466          1.0000000000
      1398       466  TIP3  H2           -2.5588310162        9.9917628029       -3.7149056616  CLST         466          1.0000000000
      1399       467  TIP3  OH2           8.2221771080        5.9210467220        4.4656113272  CLST         467          1.0000000000
      1400       467  TIP3  H1            8.3776644969        6.4890201502        5.2517195508  CLST         467          1.0000000000
      1401       467  TIP3  H2            7.9984512274        6.6211449851        3.8052159024  CLST         467          1.0000000000
      1402       468  TIP3  OH2          -0.5082512831      -12.3682299267       10.3860356004  CLST         468          1.0000000000
      1403       468  TIP3  H1           -0.8798207282      -11.9806376757       11.1942721914  CLST         468          1.0000000000
      1404       468  TIP3  H2            0.4539204658      -12.3095768704       10.5875898348  CLST         468          1.0000000000
      1405       469  TIP3  OH2           5.5945581885        8.2521385606       14.2045163208  CLST         469          1.0000000000
      1406       469  TIP3  H1            6.4369591221        8.5253396081       13.7991597598  CLST         469          1.0000000000
      1407       469  TIP3  H2            5.0923860079        8.9445145229       13.8671239912  CLST         469          1.0000000000
      1408       470  TIP3  OH2         -11.2512402745       12.8944938018        0.4704075898  CLST         470          1.0000000000
      1409       470  TIP3  H1          -10.9616999216       12.8506413468       -0.4041124829  CLST         470          1.0000000000
      1410       470  TIP3  H2          -11.6387699710       12.0007894065        0.6566190234  CLST         470          1.0000000000
      1411       471  TIP3  OH2          -4.3528940785        9.5872740949       -9.0451650996  CLST         471          1.0000000000
      1412       471  TIP3  H1           -4.2823717638        8.6227682064       -9.1287538941  CLST         471          1.0000000000
      1413       471  TIP3  H2           -4.6377691979        9.7802582480       -9.9510736570  CLST         471          1.0000000000
      1414       472  TIP3  OH2         -11.9941778866        3.7278379047        2.8606660489  CLST         472          1.0000000000
      1415       472  TIP3  H1          -12.2991303631        2.8336284416        3.1889683955  CLST         472          1.0000000000
      1416       472  TIP3  H2          -11.6779617291        3.3853576133        1.9802397328  CLST         472          1.0000000000
      1417       473  TIP3  OH2           5.3978930054        0.7463189471       10.1921491484  CLST         473          1.0000000000
      1418       473  TIP3  H1            6.1126316540        1.3352415467       10.4936059180  CLST         473          1.0000000000
      1419       473  TIP3  H2            4.6755492237        1.3150097395       10.4899571511  CLST         473          1.0000000000
      1420       474  TIP3  OH2           1.3146261498        1.7016245135        1.4372235759  CLST         474          1.0000000000
      1421       474  TIP3  H1            0.3569564350        1.6521076463        1.2196048840  CLST         474          1.0000000000
      1422       474  TIP3  H2            1.6010337154        1.4364586150        0.5379038828  CLST         474          1.0000000000
      1423       475  TIP3  OH2           6.0590979588       -8.6401077153       12.0112592796  CLST         475          1.0000000000
      1424       475  TIP3  H1            6.9118117474       -8.8560623416       12.4354521440  CLST         475          1.0000000000
      1425       475  TIP3  H2            6.1747604581       -8.9088609205       11.0701825315  CLST         475          1.0000000000
      1426       476  TIP3  OH2         -11.4599297737       -8.8513185221       -0.0998911532  CLST         476          1.0000000000
      1427       476  TIP3  H1          -11.6677373050       -7.9777756631       -0.6086430377  CLST         476          1.0000000000
      1428       476  TIP3  H2          -11.1825878001       -9.3253184145       -0.8717025114  CLST         476          1.0000000000
      1429       477  TIP3  OH2         -12.5298341810        3.6235887268      -13.4044218200  CLST         477          1.0000000000
      1430       477  TIP3  H1          -12.8625260502        2.6711343869      -13.4745949512  CLST         477          1.0000000000
      1431       477  TIP3  H2          -11.6453532860        3.2882064232      -13.7423810946  CLST         477          1.0000000000
      1432       478  TIP3  OH2          -3.9394792925        6.4789887233      -10.6449326791  CLST         478          1.0000000000
      1433       478  TIP3  H1           -4.5298684106        6.4432090331      -11.4431496069  CLST         478          1.0000000000
      1434       478  TIP3  H2           -3.2874354324        7.0934447203      -11.1047625025  CLST         478          1.0000000000
      1435       479  TIP3  OH2           7.8056195811       -1.6514890375       -8.5161539325  CLST         479          1.0000000000
      1436       479  TIP3  H1            8.5723676118       -1.3792307459       -7.9524283598  CLST         479          1.0000000000
      1437       479  TIP3  H2            7.1307331519       -1.2328610620       -7.9129087664  CLST         479          1.0000000000
      1438       480  TIP3  OH2          -6.0398605436        7.6157958524       -0.0606488063  CLST         480          1.0000000000
      1439       480  TIP3  H1           -5.1252051219        7.9049798769       -0.3627820534  CLST         480          1.0000000000
      1440       480  TIP3  H2           -5.8878698113        6.6480171793        0.0707413274  CLST         480          1.0000000000
      1441       481  TIP3  OH2          -2.9666641873        2.5061875904       11.8924407924  CLST         481          1.0000000000
      1442       481  TIP3  H1           -2.0274828726        2.4225427206       11.5849236233  CLST         481          1.0000000000
      1443       481  TIP3  H2           -3.0584179316        1.5845308835       12.1941697216  CLST         481          1.0000000000
      1444       482  TIP3  OH2          -8.1058102674       11.6732098783       -7.5521031062  CLST         482          1.0000000000
      1445       482  TIP3  H1           -8.7206729814       11.3628315938       -8.2812198994  CLST         482          1.0000000000
      1446       482  TIP3  H2           -7.2938466567       11.8557803288       -8.1471166622  CLST         482          1.0000000000
      1447       483  TIP3  OH2           6.3321269700       -5.8645915024       12.5702057607  CLST         483          1.0000000000
      1448       483  TIP3  H1            6.2554415742       -6.8299858063       12.4678847864  CLST         483          1.0000000000
      1449       483  TIP3  H2            6.1241674194       -5.7066667054       11.6122916289  CLST         483          1.0000000000
      1450       484  TIP3  OH2           6.7861686462       -3.0160211898        3.0326011358  CLST         484          1.0000000000
      1451       484  TIP3  H1            5.8136433285       -3.2365769207        3.1497571958  CLST         484          1.0000000000
      1452       484  TIP3  H2            6.7685779061       -2.1956136297        3.6029489811  CLST         484          1.0000000000
      1453       485  TIP3  OH2         -11.7015574221        4.6535598261       10.0365628867  CLST         485          1.0000000000
      1454       485  TIP3  H1          -11.2366422170        3.7727880671        9.8693118317  CLST         485          1.0000000000
      1455       485  TIP3  H2          -12.4811841968        4.4713608620        9.3834455012  CLST         485          1.0000000000
      1456       486  TIP3  OH2           8.4704022577       -7.1506279096       13.6076656663  CLST         486          1.0000000000
      1457       486  TIP3  H1            8.6677055157       -6.9056981046       14.5099893051  CLST         486          1.0000000000
      1458       486  TIP3  H2            7.7769993194       -6.4757847548       13.4548827820  CLST         486          1.0000000000
      1459       487  TIP3  OH2          12.1920866899       -8.2608393181        6.2028696361  CLST         487          1.0000000000
      1460       487  TIP3  H1           11.2134802218       -8.3004863033        6.0122575429  CLST         487          1.0000000000
      1461       487  TIP3  H2           12.0284977152       -8.4810041260        7.1785644638  CLST         487          1.0000000000
      1462       488  TIP3  OH2          15.2992435325        8.4290500818        7.8014919407  CLST         488          1.0000000000
      1463       488  TIP3  H1           15.8092688321        7.7366112066        7.3885415381  CLST         488          1.0000000000
      1464       488  TIP3  H2           14.6053758294        7.8203821930        8.2557330982  CLST         488          1.0000000000
      1465       489  TIP3  OH2          -6.0867265956      -10.8867422444       11.7657489574  CLST         489          1.0000000000
      1466       489  TIP3  H1           -6.4010112604       -9.9946146235       11.7232167576  CLST         489          1.0000000000
      1467       489  TIP3  H2           -6.8257012679      -11.3434498758       11.2129751521  CLST         489          1.0000000000
      1468       490  TIP3  OH2           6.7297443188      -13.1038902659        2.3211412510  CLST         490          1.0000000000
      1469       490  TIP3  H1            6.5676809783      -12.2272509833        2.7251679004  CLST         490          1.0000000000
      1470       490  TIP3  H2            6.6474311646      -13.6829781170        3.0843186916  CLST         490          1.0000000000
      1471       491  TIP3  OH2           3.1915480140       -9.3238197889        5.0775710098  CLST         491          1.0000000000
      1472       491  TIP3  H1            2.2316288146       -9.2929948796        5.2432209947  CLST         491          1.0000000000
      1473       491  TIP3  H2            3.1457798953       -9.9180669490        4.3169300321  CLST         491          1.0000000000
      1474       492  TIP3  OH2          -0.7564044142       -6.4846096201       12.2723691414  CLST         492          1.0000000000
      1475       492  TIP3  H1           -0.5552086528       -7.4554523628       12.2866922870  CLST         492          1.0000000000
      1476       492  TIP3  H2           -1.6843585773       -6.4566494727       12.0959300143  CLST         492          1.0000000000
      1477       493  TIP3  OH2           3.3197470641       10.6291622134        7.1351434577  CLST         493          1.0000000000
      1478       493  TIP3  H1            4.0429821438       10.6026925265        7.8266509895  CLST         493          1.0000000000
      1479       493  TIP3  H2            2.5686426822       10.2851589206        7.7621236550  CLST         493          1.0000000000
      1480       494  TIP3  OH2          -8.9985001722        5.4847440924       -0.7695536763  CLST         494          1.0000000000
      1481       494  TIP3  H1           -9.5175976557        5.7835519860       -1.5203773805  CLST         494          1.0000000000
      1482       494  TIP3  H2           -9.4348579840        6.0671732145       -0.0962248832  CLST         494          1.0000000000
      1483       495  TIP3  OH2           4.9807854104       -6.7668151028       -1.9159206648  CLST         495          1.0000000000
      1484       495  TIP3  H1            5.6841186684       -6.2149477233       -2.3651845123  CLST         495          1.0000000000
      1485       495  TIP3  H2            5.6793329258       -7.3744579708       -1.5563676800  CLST         495          1.0000000000
      1486       496  TIP3  OH2         -12.6889796103      -10.8856690814        7.6041080060  CLST         496          1.0000000000
      1487       496  TIP3  H1          -13.5869465662      -10.9505824746        7.5422048306  CLST         496          1.0000000000
      1488       496  TIP3  H2          -12.3996159848      -11.5140896437        6.9299042908  CLST         496          1.0000000000
      1489       497  TIP3  OH2          -9.7454381053      -13.4680647499       -7.2628434060  CLST         497          1.0000000000
      1490       497  TIP3  H1          -10.0557779280      -14.0259779199       -7.9069294871  CLST         497          1.0000000000
      1491       497  TIP3  H2          -10.1770579574      -12.6639006730       -7.5435210090  CLST         497          1.0000000000
      1492       498  TIP3  OH2          -5.6151399146        0.3582179898      -11.0584124054  CLST         498          1.0000000000
      1493       498  TIP3  H1           -5.9188448605        0.3179118030      -11.9943519611  CLST         498          1.0000000000
      1494       498  TIP3  H2           -5.5119614207        1.3069387359      -10.8564875784  CLST         498          1.0000000000
      1495       499  TIP3  OH2          11.5767714037        6.6594067460        3.5948647239  CLST         499          1.0000000000
      1496       499  TIP3  H1           11.9969606351        7.0955682448        2.8184034553  CLST         499          1.0000000000
      1497       499  TIP3  H2           11.4236013798        7.4071077196        4.2193675091  CLST         499          1.0000000000
      1498       500  TIP3  OH2           2.3937016564       -8.6473383876      -13.3369219173  CLST         500          1.0000000000
      1499       500  TIP3  H1            1.8560961113       -9.0278992581      -13.9350051045  CLST         500          1.0000000000
      1500       500  TIP3  H2            2.6179562545       -9.4830753899      -12.7747780851  CLST         500          1.0000000000
      1501       501  TIP3  OH2           1.1755115889      -10.9986861526       14.0107791804  CLST         501          1.0000000000
      1502       501  TIP3  H1            1.1506045287      -11.8183421384       13.5429966153  CLST         501          1.0000000000
      1503       501  TIP3  H2            2.1524386574      -10.8345850343       14.0633243554  CLST         501          1.0000000000
      1504       502  TIP3  OH2           6.1350007800        3.8278015169        9.7724012434  CLST         502          1.0000000000
      1505       502  TIP3  H1            6.5939129397        4.1657981638       10.5864428337  CLST         502          1.0000000000
      1506       502  TIP3  H2            6.8751108389        3.3029018097        9.3449838305  CLST         502          1.0000000000
      1507       503  TIP3  OH2          10.3729232546       -0.9304629146        0.3371242006  CLST         503          1.0000000000
      1508       503  TIP3  H1           11.2524682655       -0.5899855952        0.5756771799  CLST         503          1.0000000000
      1509       503  TIP3  H2           10.0763898142       -0.1109422649       -0.0917148545  CLST         503          1.0000000000
      1510       504  TIP3  OH2           8.2944645976      -13.7369032233       10.8687553233  CLST         504          1.0000000000
      1511       504  TIP3  H1            8.4015779712      -13.5071286741        9.8925065368  CLST         504          1.0000000000
      1512       504  TIP3  H2            8.4853691842      -14.5989441232       11.0401731090  CLST         504          1.0000000000
      1513       505  TIP3  OH2           3.6004795062      -10.9408926121       -5.6384349968  CLST         505          1.0000000000
      1514       505  TIP3  H1            3.4730072665      -10.4434889248       -6.5085163991  CLST         505          1.0000000000
      1515       505  TIP3  H2            3.2244444776      -10.2817650211       -5.0517524706  CLST         505          1.0000000000
      1516       506  TIP3  OH2          -9.2752687123       -3.3549550846       -7.9762515842  CLST         506          1.0000000000
      1517       506  TIP3  H1           -8.8798059307       -2.4207765377       -8.0070523394  CLST         506          1.0000000000
      1518       506  TIP3  H2          -10.0475310229       -3.1834492886       -8.5799248230  CLST         506          1.0000000000
      1519       507  TIP3  OH2          11.0847719067        9.7218022126      -12.7561756486  CLST         507          1.0000000000
      1520       507  TIP3  H1           11.2342340297        9.7877743528      -13.5659790588  CLST         507          1.0000000000
      1521       507  TIP3  H2           10.8946109508        8.7211948878      -12.4320782038  CLST         507          1.0000000000
      1522       508  TIP3  OH2           9.1796789944       12.2572945654        8.9006392418  CLST         508          1.0000000000
      1523       508  TIP3  H1            8.9552838735       12.1694051835        7.9604196975  CLST         508          1.0000000000
      1524       508  TIP3  H2           10.1106614063       12.5249200005        8.6994682171  CLST         508          1.0000000000
      1525       509  TIP3  OH2          -0.7851749336       -1.5291384695      -11.3003502952  CLST         509          1.0000000000
      1526       509  TIP3  H1           -1.7624972434       -1.6171916867      -11.3761270780  CLST         509          1.0000000000
      1527       509  TIP3  H2           -0.7525491502       -0.5897065075      -10.9161647126  CLST         509          1.0000000000
      1528       510  TIP3  OH2           8.1750541939        2.2047414872       11.6444885390  CLST         510          1.0000000000
      1529       510  TIP3  H1            8.2094214616        1.1521299613       11.6226998739  CLST         510          1.0000000000
      1530       510  TIP3  H2            9.1288688534        2.2984280859       11.1786028150  CLST         510          1.0000000000
      1531       511  TIP3  OH2          -8.7450917799       -5.9204009672       -0.7228888232  CLST         511          1.0000000000
      1532       511  TIP3  H1           -9.6610699132       -6.0806004240       -1.0684161900  CLST         511          1.0000000000
      1533       511  TIP3  H2           -8.4153803808       -5.5017330332       -1.5200296100  CLST         511          1.0000000000
      1534       512  TIP3  OH2          10.0541124042        7.0865770597        6.8455900464  CLST         512          1.0000000000
      1535       512  TIP3  H1           10.0982894388        7.8174088727        7.5219370424  CLST         512          1.0000000000
      1536       512  TIP3  H2           10.3073509655        7.6593578408        6.0674259736  CLST         512          1.0000000000
      1537       513  TIP3  OH2         -11.8549127873       10.4360540706        9.1985590537  CLST         513          1.0000000000
      1538       513  TIP3  H1          -11.3522092319       11.2383462300        9.5238252945  CLST         513          1.0000000000
      1539       513  TIP3  H2          -11.7745399330        9.9393922289       10.0625563693  CLST         513          1.0000000000
      1540       514  TIP3  OH2          -4.8346390873        5.0508493051        0.1333019084  CLST         514          1.0000000000
      1541       514  TIP3  H1           -4.0252898103        5.4246877884        0.5444313195  CLST         514          1.0000000000
      1542       514  TIP3  H2           -4.5626627672        5.0621545305       -0.8366368581  CLST         514          1.0000000000
      1543       515  TIP3  OH2          -0.7027401943        0.9946916352       -4.3956148609  CLST         515          1.0000000000
      1544       515  TIP3  H1           -1.4875135279        1.5812239960       -4.4708879538  CLST         515          1.0000000000
      1545       515  TIP3  H2            0.0062571149        1.6271389532       -4.7161772290  CLST         515          1.0000000000
      1546       516  TIP3  OH2          -7.2037449574       -8.4478402108        6.3021888734  CLST         516          1.0000000000
      1547       516  TIP3  H1           -7.4852888287       -8.5371783686        5.3618107667  CLST         516          1.0000000000
      1548       516  TIP3  H2           -7.7753762639       -7.6530927043        6.5009705784  CLST         516          1.0000000000
      1549       517  TIP3  OH2           0.6483331170       11.1938320708       11.3933573831  CLST         517          1.0000000000
      1550       517  TIP3  H1            0.6259043740       10.8816180129       10.4765257922  CLST         517          1.0000000000
      1551       517  TIP3  H2           -0.2959775927       11.3880965046       11.4191883046  CLST         517          1.0000000000
      1552       518  TIP3  OH2         -11.7434833914       -3.5031907320      -11.3562931493  CLST         518          1.0000000000
      1553       518  TIP3  H1          -11.9968444380       -3.0062889766      -12.1440336324  CLST         518          1.0000000000
      1554       518  TIP3  H2          -10.8979633897       -3.8139703072      -11.7238260606  CLST         518          1.0000000000
      1555       519  TIP3  OH2           2.2276369398        3.3130126035        3.2884799766  CLST         519          1.0000000000
      1556       519  TIP3  H1            1.9963470129        4.1036117156        2.7106713498  CLST         519          1.0000000000
      1557       519  TIP3  H2            1.8368681413        2.6181122682        2.6715925196  CLST         519          1.0000000000
      1558       520  TIP3  OH2          -9.9129328713        6.2388356502        8.1837987887  CLST         520          1.0000000000
      1559       520  TIP3  H1          -10.1855351797        5.9145680780        7.2935614609  CLST         520          1.0000000000
      1560       520  TIP3  H2          -10.7298080994        6.1166091240        8.6764109902  CLST         520          1.0000000000
      1561       521  TIP3  OH2           8.4215191989       -8.9775158774       -9.3598380591  CLST         521          1.0000000000
      1562       521  TIP3  H1            8.6206921983       -9.6390693161      -10.0687583370  CLST         521          1.0000000000
      1563       521  TIP3  H2            8.2188750518       -8.1617244857       -9.8523660523  CLST         521          1.0000000000
      1564       522  TIP3  OH2          -5.5021969502       -7.0836237477        8.1979173722  CLST         522          1.0000000000
      1565       522  TIP3  H1           -6.0093341547       -7.7962698018        7.7933317471  CLST         522          1.0000000000
      1566       522  TIP3  H2           -4.5365739246       -7.3436073416        8.1869168702  CLST         522          1.0000000000
      1567       523  TIP3  OH2          -4.0247072987       12.0766066678      -13.5780439388  CLST         523          1.0000000000
      1568       523  TIP3  H1           -2.1454313984       11.8135768135      -13.7661481398  CLST         523          1.0000000000
      1569       523  TIP3  H2           -3.5386170296       12.5785665175      -14.2422110822  CLST         523          1.0000000000
      1570       524  TIP3  OH2           6.8768323146        3.8444062532       -1.7156240470  CLST         524          1.0000000000
      1571       524  TIP3  H1            7.2079973411        3.1468402817       -2.2996011369  CLST         524          1.0000000000
      1572       524  TIP3  H2            5.8999274519        3.8360625521       -1.9020679502  CLST         524          1.0000000000
      1573       525  TIP3  OH2           0.4014368374        6.8380183883       -2.3842442417  CLST         525          1.0000000000
      1574       525  TIP3  H1            0.8227883318        6.4133332690       -3.1679888835  CLST         525          1.0000000000
      1575       525  TIP3  H2            0.2444592350        5.9707579160       -1.9111103703  CLST         525          1.0000000000
      1576       526  TIP3  OH2           7.1312243233       -5.3761415449       -3.7129813301  CLST         526          1.0000000000
      1577       526  TIP3  H1            7.3173119596       -5.7214696412       -4.6296807288  CLST         526          1.0000000000
      1578       526  TIP3  H2            8.0416460788       -5.3830993527       -3.3590308926  CLST         526          1.0000000000
      1579       527  TIP3  OH2           0.3309273100        7.1970020642        3.9790785941  CLST         527          1.0000000000
      1580       527  TIP3  H1            1.1021117255        7.4167611607        4.5935323100  CLST         527          1.0000000000
      1581       527  TIP3  H2            0.0612343224        8.1215482032        3.8984570898  CLST         527          1.0000000000
      1582       528  TIP3  OH2          -2.8097739524        9.9041169308        8.7384254969  CLST         528          1.0000000000
      1583       528  TIP3  H1           -3.1457820103        9.6832639334        9.6469184853  CLST         528          1.0000000000
      1584       528  TIP3  H2           -3.6615136094       10.1557592299        8.3320419296  CLST         528          1.0000000000
      1585       529  TIP3  OH2          -6.1728578220       12.1604017722       -9.3180371495  CLST         529          1.0000000000
      1586       529  TIP3  H1           -5.3106105814       12.1163502723       -9.0312656044  CLST         529          1.0000000000
      1587       529  TIP3  H2           -6.0054829551       12.0015226464      -10.2700378570  CLST         529          1.0000000000
      1588       530  TIP3  OH2          -4.3644794198       -5.6412818484      -13.1842635647  CLST         530          1.0000000000
      1589       530  TIP3  H1           -4.2918421049       -6.6327445290      -13.1264193002  CLST         530          1.0000000000
      1590       530  TIP3  H2           -3.4461328160       -5.2859342675      -13.1584196565  CLST         530          1.0000000000
      1591       531  TIP3  OH2         -11.6432556731       -0.1243898163       10.3947369679  CLST         531          1.0000000000
      1592       531  TIP3  H1          -11.9247053118       -0.4518188803       11.2278107291  CLST         531          1.0000000000
      1593       531  TIP3  H2          -12.1316747608       -0.7024302291        9.8223531061  CLST         531          1.0000000000
      1594       532  TIP3  OH2         -12.0362745272       -3.0275713242       -8.8294992619  CLST         532          1.0000000000
      1595       532  TIP3  H1          -12.3457316775       -3.8855247447       -8.4887900751  CLST         532          1.0000000000
      1596       532  TIP3  H2          -12.0427272207       -3.2388655482       -9.8291854683  CLST         532          1.0000000000
      1597       533  TIP3  OH2          -2.8919166093       -7.1611241590        8.6606349890  CLST         533          1.0000000000
      1598       533  TIP3  H1           -2.1135192738       -7.7577395016        8.5337414096  CLST         533          1.0000000000
      1599       533  TIP3  H2           -2.4623226826       -6.3309237103        8.3289415465  CLST         533          1.0000000000
      1600       534  TIP3  OH2           0.3421358467      -13.1728371599       -7.6223950714  CLST         534          1.0000000000
      1601       534  TIP3  H1            0.7425514980      -12.7615053977       -8.4144357703  CLST         534          1.0000000000
      1602       534  TIP3  H2            1.2269825254      -13.3987324203       -7.2211919353  CLST         534          1.0000000000
      1603       535  TIP3  OH2           2.7936110464        3.0405881467       -7.4461752962  CLST         535          1.0000000000
      1604       535  TIP3  H1            3.3670853213        2.5395589390       -6.8290417893  CLST         535          1.0000000000
      1605       535  TIP3  H2            1.9713508228        3.0182962738       -6.9432914724  CLST         535          1.0000000000
      1606       536  TIP3  OH2           8.0222468798      -12.6760365232       -3.5383207711  CLST         536          1.0000000000
      1607       536  TIP3  H1            7.4029509520      -12.5580616525       -4.2531031394  CLST         536          1.0000000000
      1608       536  TIP3  H2            8.1375542642      -13.5854970213       -3.5580435310  CLST         536          1.0000000000
      1609       537  TIP3  OH2          11.8247966533       -2.6890296570       -7.6172072515  CLST         537          1.0000000000
      1610       537  TIP3  H1           11.4048617338       -1.8350994002       -7.2180711620  CLST         537          1.0000000000
      1611       537  TIP3  H2           12.6952370036       -2.4575740797       -7.1809996334  CLST         537          1.0000000000
      1612       538  TIP3  OH2          -5.0898601487      -10.8949977540        0.7765936087  CLST         538          1.0000000000
      1613       538  TIP3  H1           -4.3087770014      -11.0531921222        1.3726451752  CLST         538          1.0000000000
      1614       538  TIP3  H2           -4.9310583149       -9.9005214517        0.6814133416  CLST         538          1.0000000000
      1615       539  TIP3  OH2           2.4673078663       -5.1691593009        1.0166827717  CLST         539          1.0000000000
      1616       539  TIP3  H1            1.5318620220       -5.3633006988        1.3966439575  CLST         539          1.0000000000
      1617       539  TIP3  H2            2.2011500389       -5.4344831880        0.1376450469  CLST         539          1.0000000000
      1618       540  TIP3  OH2           3.9504667814       -6.7371279372        4.6875226681  CLST         540          1.0000000000
      1619       540  TIP3  H1            3.7230007245       -7.6564121561        4.9643410109  CLST         540          1.0000000000
      1620       540  TIP3  H2            4.1098638757       -6.9089130401        3.7277317457  CLST         540          1.0000000000
      1621       541  TIP3  OH2          -5.4958942954       10.4213072957        2.2329741230  CLST         541          1.0000000000
      1622       541  TIP3  H1           -5.9899073992       10.4850015041        3.1051467165  CLST         541          1.0000000000
      1623       541  TIP3  H2           -4.8195157462       11.1174388392        2.4492007445  CLST         541          1.0000000000
      1624       542  TIP3  OH2         -10.6561382678       14.5429235176        5.5323539392  CLST         542          1.0000000000
      1625       542  TIP3  H1          -10.8753231985       15.3631140181        5.1979215630  CLST         542          1.0000000000
      1626       542  TIP3  H2          -10.4051153891       14.0401678490        4.6364720362  CLST         542          1.0000000000
      1627       543  TIP3  OH2         -10.6614269745       11.3370979336       -2.4340953006  CLST         543          1.0000000000
      1628       543  TIP3  H1          -11.6166701433       11.1398969839       -2.6447704746  CLST         543          1.0000000000
      1629       543  TIP3  H2          -10.4625046419       11.5415451822       -3.3837184700  CLST         543          1.0000000000
      1630       544  TIP3  OH2          -0.3807619466        5.5701730815       -5.6809061255  CLST         544          1.0000000000
      1631       544  TIP3  H1           -0.4915502106        5.1782658883       -6.6102764255  CLST         544          1.0000000000
      1632       544  TIP3  H2            0.3713613930        5.0395406803       -5.3431354796  CLST         544          1.0000000000
      1633       545  TIP3  OH2          -7.8385934972        2.4245121982      -12.6722098988  CLST         545          1.0000000000
      1634       545  TIP3  H1           -8.0074301511        2.1440911544      -13.6119444106  CLST         545          1.0000000000
      1635       545  TIP3  H2           -8.4191740476        3.2222918091      -12.5911670837  CLST         545          1.0000000000
      1636       546  TIP3  OH2           3.7817809104       11.1549141151       -2.1794880584  CLST         546          1.0000000000
      1637       546  TIP3  H1            3.4352334888       10.2418556617       -2.3007905483  CLST         546          1.0000000000
      1638       546  TIP3  H2            4.3204074190       11.0367231243       -1.3285983458  CLST         546          1.0000000000
      1639       547  TIP3  OH2          -3.4335765153       -2.1505653832      -11.2100411094  CLST         547          1.0000000000
      1640       547  TIP3  H1           -3.4174538247       -2.3462078261      -10.2324921747  CLST         547          1.0000000000
      1641       547  TIP3  H2           -3.9476174423       -1.3044769235      -11.1995718566  CLST         547          1.0000000000
      1642       548  TIP3  OH2          10.6725115295        2.3921320892        1.4110860128  CLST         548          1.0000000000
      1643       548  TIP3  H1            9.6798429480        2.3390036122        1.4875752953  CLST         548          1.0000000000
      1644       548  TIP3  H2           10.7041028326        3.1213404221        2.1104714788  CLST         548          1.0000000000
