* Geometry rescue: heat segment 6/8 at step 1500
*
        1644  EXT
         1         1  TIP3  OH2           4.5916205045       -1.5044343774       -2.2286289434  CLST           1          1.0000000000
         2         1  TIP3  H1            4.8278354009       -1.7516173492       -1.2861588158  CLST           1          1.0000000000
         3         1  TIP3  H2            5.2548239755       -2.0914825319       -2.6585029908  CLST           1          1.0000000000
         4         2  TIP3  OH2          10.7058126128        7.4660567098      -11.7599829753  CLST           2          1.0000000000
         5         2  TIP3  H1           10.9164580408        7.5677808745      -10.7339088243  CLST           2          1.0000000000
         6         2  TIP3  H2            9.6645725815        7.4989688759      -11.4701570674  CLST           2          1.0000000000
         7         3  TIP3  OH2           8.9299758690        5.1851250301       -4.1291818512  CLST           3          1.0000000000
         8         3  TIP3  H1            9.1684223769        5.4749070301       -3.2119409454  CLST           3          1.0000000000
         9         3  TIP3  H2            8.7864562170        6.0527593002       -4.5530912005  CLST           3          1.0000000000
        10         4  TIP3  OH2          -3.0634852504        6.5919117198       10.1597565523  CLST           4          1.0000000000
        11         4  TIP3  H1           -3.8522940483        6.8514284284        9.5184609455  CLST           4          1.0000000000
        12         4  TIP3  H2           -3.3298014844        7.3112352559       10.7754119788  CLST           4          1.0000000000
        13         5  TIP3  OH2           9.1319327705        6.1558122736       10.5824106037  CLST           5          1.0000000000
        14         5  TIP3  H1            8.4753769335        5.5959965800       11.1459816762  CLST           5          1.0000000000
        15         5  TIP3  H2            9.0532870489        5.5773498414        9.7990208444  CLST           5          1.0000000000
        16         6  TIP3  OH2          10.5787337315       -6.0178978158      -11.7669200998  CLST           6          1.0000000000
        17         6  TIP3  H1           11.1329103481       -5.6043233500      -11.0515724426  CLST           6          1.0000000000
        18         6  TIP3  H2           10.7050442222       -5.3024116890      -12.4591753520  CLST           6          1.0000000000
        19         7  TIP3  OH2         -12.2493591321        8.4515774548        5.6628661181  CLST           7          1.0000000000
        20         7  TIP3  H1          -12.6043106346        9.2979063451        6.1080202663  CLST           7          1.0000000000
        21         7  TIP3  H2          -11.4943060699        8.3670896453        6.2722924113  CLST           7          1.0000000000
        22         8  TIP3  OH2          -4.5799722384       -8.2723084081        0.5694052160  CLST           8          1.0000000000
        23         8  TIP3  H1           -4.8238727316       -7.7562273784        1.3368061023  CLST           8          1.0000000000
        24         8  TIP3  H2           -3.8512578625       -7.7294460207        0.2263534594  CLST           8          1.0000000000
        25         9  TIP3  OH2           2.5967502390      -14.3182601252       -4.1434119656  CLST           9          1.0000000000
        26         9  TIP3  H1            1.7194532449      -14.6328231755       -3.8768638238  CLST           9          1.0000000000
        27         9  TIP3  H2            2.5594160248      -13.6039143674       -3.4539894280  CLST           9          1.0000000000
        28        10  TIP3  OH2         -14.3815958242       -1.0946064796       -0.3395962151  CLST          10          1.0000000000
        29        10  TIP3  H1          -13.8303050317       -1.5085620836       -1.1100816141  CLST          10          1.0000000000
        30        10  TIP3  H2          -14.5532230527       -1.6886712273        0.2615276707  CLST          10          1.0000000000
        31        11  TIP3  OH2           6.9065689648        6.7285154206       -1.7513502140  CLST          11          1.0000000000
        32        11  TIP3  H1            7.1899614830        5.8245162497       -1.5154050879  CLST          11          1.0000000000
        33        11  TIP3  H2            6.7825173263        6.6664486592       -2.7352059769  CLST          11          1.0000000000
        34        12  TIP3  OH2          -8.2720436373        2.7875678641        2.0468087275  CLST          12          1.0000000000
        35        12  TIP3  H1           -7.7264198787        2.9166896183        1.2119998259  CLST          12          1.0000000000
        36        12  TIP3  H2           -9.1388759744        2.7831155912        1.5347191184  CLST          12          1.0000000000
        37        13  TIP3  OH2           7.8371006434        2.5094328120        2.1162130440  CLST          13          1.0000000000
        38        13  TIP3  H1            7.7204195218        3.3955270789        1.6756192613  CLST          13          1.0000000000
        39        13  TIP3  H2            7.6743060432        2.7920892350        3.0268510798  CLST          13          1.0000000000
        40        14  TIP3  OH2          -0.4487048573        2.0863482600        7.9472666236  CLST          14          1.0000000000
        41        14  TIP3  H1           -0.1922762493        2.9781428350        7.6105340774  CLST          14          1.0000000000
        42        14  TIP3  H2            0.2500988226        1.5735035697        7.4220699620  CLST          14          1.0000000000
        43        15  TIP3  OH2          -8.8260138865       -3.9317790046      -12.6745262102  CLST          15          1.0000000000
        44        15  TIP3  H1           -8.0437611860       -4.0248201272      -13.2307547058  CLST          15          1.0000000000
        45        15  TIP3  H2           -8.4369510445       -4.5311406637      -11.9738053525  CLST          15          1.0000000000
        46        16  TIP3  OH2          -3.8671853427      -12.9191045218       -6.2985474295  CLST          16          1.0000000000
        47        16  TIP3  H1           -4.4611733180      -12.8706164594       -5.5120826659  CLST          16          1.0000000000
        48        16  TIP3  H2           -2.9525599692      -12.8980247388       -5.8981660745  CLST          16          1.0000000000
        49        17  TIP3  OH2           4.8402139658      -13.3998883795       -8.4536119244  CLST          17          1.0000000000
        50        17  TIP3  H1            5.5047274308      -13.1933794866       -7.7644085161  CLST          17          1.0000000000
        51        17  TIP3  H2            4.0719834859      -13.4234810920       -7.7825264626  CLST          17          1.0000000000
        52        18  TIP3  OH2         -11.7196402659       -6.8413169565       -1.6547941356  CLST          18          1.0000000000
        53        18  TIP3  H1          -12.1402730088       -5.9826126428       -1.9163511401  CLST          18          1.0000000000
        54        18  TIP3  H2          -11.7262276985       -7.1986893983       -2.5935552888  CLST          18          1.0000000000
        55        19  TIP3  OH2          10.8508232101       -0.0115581848        9.4691505893  CLST          19          1.0000000000
        56        19  TIP3  H1           10.5911840122       -0.9268478608        9.7943695229  CLST          19          1.0000000000
        57        19  TIP3  H2           11.0766190110       -0.2909790155        8.5382232066  CLST          19          1.0000000000
        58        20  TIP3  OH2         -13.2879405056        1.3510024855        2.8247140697  CLST          20          1.0000000000
        59        20  TIP3  H1          -13.0109559802        1.1081784479        1.9336456538  CLST          20          1.0000000000
        60        20  TIP3  H2          -14.2493293792        1.2483925133        2.8020573238  CLST          20          1.0000000000
        61        21  TIP3  OH2         -10.0740584483       12.5970048353       -5.4370156059  CLST          21          1.0000000000
        62        21  TIP3  H1          -10.5112878031       13.1797693130       -5.8456842645  CLST          21          1.0000000000
        63        21  TIP3  H2           -9.4626058392       12.1287235814       -6.0554157871  CLST          21          1.0000000000
        64        22  TIP3  OH2           2.9279297205       12.2428896694       -6.5875132077  CLST          22          1.0000000000
        65        22  TIP3  H1            3.2533321090       11.7097527650       -5.9939413009  CLST          22          1.0000000000
        66        22  TIP3  H2            3.2347805928       13.1606438342       -4.9285842105  CLST          22          1.0000000000
        67        23  TIP3  OH2           5.7067942745       -1.6473605132       11.4607963985  CLST          23          1.0000000000
        68        23  TIP3  H1            5.1861431750       -2.1737780705       10.8189842276  CLST          23          1.0000000000
        69        23  TIP3  H2            5.2538460795       -0.7992924720       11.2043863607  CLST          23          1.0000000000
        70        24  TIP3  OH2          -0.2067286938        1.0849501765        4.4527288083  CLST          24          1.0000000000
        71        24  TIP3  H1            0.6523304510        0.9583094730        4.8721422161  CLST          24          1.0000000000
        72        24  TIP3  H2           -0.7590993789        0.4091937958        4.9168584924  CLST          24          1.0000000000
        73        25  TIP3  OH2           3.2764551460        2.1479417043       -2.5104670840  CLST          25          1.0000000000
        74        25  TIP3  H1            3.7149707765        1.5411149479       -1.8177164001  CLST          25          1.0000000000
        75        25  TIP3  H2            3.7449554485        2.9516231696       -2.2822634676  CLST          25          1.0000000000
        76        26  TIP3  OH2          11.2239880778        5.3766664946       -6.4658763291  CLST          26          1.0000000000
        77        26  TIP3  H1           10.3707175037        5.1980168198       -6.9758020430  CLST          26          1.0000000000
        78        26  TIP3  H2           10.9161329934        6.2468400947       -6.0546456026  CLST          26          1.0000000000
        79        27  TIP3  OH2         -10.2703194113        7.2274151068       -5.4753295780  CLST          27          1.0000000000
        80        27  TIP3  H1          -10.1844849837        7.9385264221       -4.7965987333  CLST          27          1.0000000000
        81        27  TIP3  H2          -10.9617475574        7.5165085211       -5.9835839008  CLST          27          1.0000000000
        82        28  TIP3  OH2          -4.4149622280      -10.3576208332       -6.7854394634  CLST          28          1.0000000000
        83        28  TIP3  H1           -4.3380968578      -11.3532024718       -6.8233422882  CLST          28          1.0000000000
        84        28  TIP3  H2           -5.1811066650      -10.2517497035       -6.1872906001  CLST          28          1.0000000000
        85        29  TIP3  OH2         -10.7595156280        7.7242267616       -2.6712504312  CLST          29          1.0000000000
        86        29  TIP3  H1          -10.1967905583        8.3003313222       -2.0298116736  CLST          29          1.0000000000
        87        29  TIP3  H2          -11.5386701617        8.3208605153       -2.6754513596  CLST          29          1.0000000000
        88        30  TIP3  OH2           8.8640695555      -10.5319168186       -2.2185789763  CLST          30          1.0000000000
        89        30  TIP3  H1            9.4855820786      -11.0292570879       -1.6096140848  CLST          30          1.0000000000
        90        30  TIP3  H2            8.5241191651      -11.3425410120       -2.7724300271  CLST          30          1.0000000000
        91        31  TIP3  OH2          -9.8114809654       -1.2653513175      -12.9382999698  CLST          31          1.0000000000
        92        31  TIP3  H1           -9.7063031003       -2.1823874236      -12.7611538402  CLST          31          1.0000000000
        93        31  TIP3  H2           -9.5414208038       -0.8658054727      -12.0677460721  CLST          31          1.0000000000
        94        32  TIP3  OH2          -8.8274559265       -6.5431068421        6.9775520149  CLST          32          1.0000000000
        95        32  TIP3  H1           -9.8204584031       -6.4314358349        6.8760931870  CLST          32          1.0000000000
        96        32  TIP3  H2           -8.6015368415       -5.8880569228        6.2359103045  CLST          32          1.0000000000
        97        33  TIP3  OH2          11.7476223615       -8.9590492465        8.8344184441  CLST          33          1.0000000000
        98        33  TIP3  H1           11.7689005629       -9.9293429737        8.9857347728  CLST          33          1.0000000000
        99        33  TIP3  H2           11.2305104493       -8.7651671442        9.6221038717  CLST          33          1.0000000000
       100        34  TIP3  OH2           4.1816079731       -3.8006428927        2.8862358604  CLST          34          1.0000000000
       101        34  TIP3  H1            3.6679000645       -4.0687171983        2.0721880821  CLST          34          1.0000000000
       102        34  TIP3  H2            4.2482554455       -4.6473067004        3.3595435451  CLST          34          1.0000000000
       103        35  TIP3  OH2           6.2622777553       -0.8207885877        4.4216226417  CLST          35          1.0000000000
       104        35  TIP3  H1            5.3670969687       -1.1177951208        4.7588744574  CLST          35          1.0000000000
       105        35  TIP3  H2            6.6030155899       -0.2642471597        5.1808745446  CLST          35          1.0000000000
       106        36  TIP3  OH2          -1.3680753926        1.2707617261        2.1167695635  CLST          36          1.0000000000
       107        36  TIP3  H1           -2.2765823786        0.9525721785        2.1498334259  CLST          36          1.0000000000
       108        36  TIP3  H2           -1.0840702124        1.0657227531        3.0332115231  CLST          36          1.0000000000
       109        37  TIP3  OH2          -4.4207450511       -8.1523633251      -13.0700214397  CLST          37          1.0000000000
       110        37  TIP3  H1           -4.9655395361       -8.4509730520      -12.3153225484  CLST          37          1.0000000000
       111        37  TIP3  H2           -4.0204768788       -9.0324092648      -13.3165981156  CLST          37          1.0000000000
       112        38  TIP3  OH2          -3.0731684557        2.1168754445       -4.3241696376  CLST          38          1.0000000000
       113        38  TIP3  H1           -2.9443394752        3.0637520568       -4.6058636872  CLST          38          1.0000000000
       114        38  TIP3  H2           -3.7531459323        1.8676755226       -4.9824461694  CLST          38          1.0000000000
       115        39  TIP3  OH2           1.6089049111      -10.9627322582        2.0494084467  CLST          39          1.0000000000
       116        39  TIP3  H1            1.4511857516      -11.5251366966        2.8395215336  CLST          39          1.0000000000
       117        39  TIP3  H2            0.6706261889      -10.6579405003        1.9213252387  CLST          39          1.0000000000
       118        40  TIP3  OH2          -7.0186797815       12.4315339648        8.1815079792  CLST          40          1.0000000000
       119        40  TIP3  H1           -7.8853185304       12.6912883975        7.8301224036  CLST          40          1.0000000000
       120        40  TIP3  H2           -6.3631942044       12.4909508963        7.4619336695  CLST          40          1.0000000000
       121        41  TIP3  OH2           9.7574625051       -2.3901035497      -11.2135258832  CLST          41          1.0000000000
       122        41  TIP3  H1            9.0064032073       -2.9432486808      -10.8306686174  CLST          41          1.0000000000
       123        41  TIP3  H2            9.5645070070       -1.5581215682      -10.8105451498  CLST          41          1.0000000000
       124        42  TIP3  OH2           9.6949326316       10.2038010159      -10.5466614570  CLST          42          1.0000000000
       125        42  TIP3  H1           10.6231093085       10.2698417618      -10.5656962590  CLST          42          1.0000000000
       126        42  TIP3  H2           10.4455177426       10.1003853292      -11.8091366059  CLST          42          1.0000000000
       127        43  TIP3  OH2          11.8883630634       12.5990614977        7.8562513666  CLST          43          1.0000000000
       128        43  TIP3  H1           12.3270248450       13.3132713315        8.0703133976  CLST          43          1.0000000000
       129        43  TIP3  H2           12.3734170532       11.8462533853        8.3388753089  CLST          43          1.0000000000
       130        44  TIP3  OH2           7.7442938135        0.9476013276        6.0145884714  CLST          44          1.0000000000
       131        44  TIP3  H1            8.0715608306        1.4358218632        6.8263646148  CLST          44          1.0000000000
       132        44  TIP3  H2            7.4816571726        1.7879738981        5.5658360078  CLST          44          1.0000000000
       133        45  TIP3  OH2           7.9050454152        9.3218862212        7.4106860351  CLST          45          1.0000000000
       134        45  TIP3  H1            7.8201874361        8.3453452851        7.5772880712  CLST          45          1.0000000000
       135        45  TIP3  H2            8.8313669471        9.4900250947        7.7194175645  CLST          45          1.0000000000
       136        46  TIP3  OH2          -5.6511664892       -3.0721952382      -12.9960832489  CLST          46          1.0000000000
       137        46  TIP3  H1           -5.3668079689       -4.0793167229      -13.2006140845  CLST          46          1.0000000000
       138        46  TIP3  H2           -5.0079011080       -3.0021017144      -12.2727418850  CLST          46          1.0000000000
       139        47  TIP3  OH2           1.3324437343       -6.4318130027      -11.0926572914  CLST          47          1.0000000000
       140        47  TIP3  H1            1.8101422089       -5.5544450302      -11.0465650831  CLST          47          1.0000000000
       141        47  TIP3  H2            1.3514262387       -6.5346671875      -12.0680276068  CLST          47          1.0000000000
       142        48  TIP3  OH2           5.1943518196        5.6450175434        1.1520048839  CLST          48          1.0000000000
       143        48  TIP3  H1            6.1721266739        5.3949412000        1.0307973360  CLST          48          1.0000000000
       144        48  TIP3  H2            5.3134072896        6.6382849205        1.0080346215  CLST          48          1.0000000000
       145        49  TIP3  OH2          -3.4164397014      -10.6711146452      -13.5881956588  CLST          49          1.0000000000
       146        49  TIP3  H1           -2.5209713074      -11.0015499836      -13.7417594355  CLST          49          1.0000000000
       147        49  TIP3  H2           -3.7496476712      -11.3366406121      -12.8964926042  CLST          49          1.0000000000
       148        50  TIP3  OH2           2.7929559934        3.8131123189        6.0386084783  CLST          50          1.0000000000
       149        50  TIP3  H1            1.9717919191        4.1765012323        6.4767578048  CLST          50          1.0000000000
       150        50  TIP3  H2            2.4169115318        3.5937926353        5.1340622801  CLST          50          1.0000000000
       151        51  TIP3  OH2          -6.3974470730      -10.1436377726       -4.6070291123  CLST          51          1.0000000000
       152        51  TIP3  H1           -6.4975793909       -9.8365259377       -3.6695677286  CLST          51          1.0000000000
       153        51  TIP3  H2           -5.9794228249      -11.0254983728       -4.4387648959  CLST          51          1.0000000000
       154        52  TIP3  OH2           9.1279086223       -5.5399379815       -0.0050621775  CLST          52          1.0000000000
       155        52  TIP3  H1            9.4532755592       -5.4500559137       -0.9564954140  CLST          52          1.0000000000
       156        52  TIP3  H2            9.1449281257       -4.5559239862        0.1177755842  CLST          52          1.0000000000
       157        53  TIP3  OH2          -9.6855494782        9.9238682559      -12.2701471827  CLST          53          1.0000000000
       158        53  TIP3  H1           -9.9811287738       10.3156646630      -12.9136743059  CLST          53          1.0000000000
       159        53  TIP3  H2           -8.3791668390        9.0426576506      -12.6772217043  CLST          53          1.0000000000
       160        54  TIP3  OH2           0.4821839569       -2.9884797653       -9.4135265270  CLST          54          1.0000000000
       161        54  TIP3  H1            1.2081228518       -3.4019584976       -9.9035270635  CLST          54          1.0000000000
       162        54  TIP3  H2            0.0430575537       -2.3975598375      -10.1057915449  CLST          54          1.0000000000
       163        55  TIP3  OH2           2.8981198738       -4.0664206113      -14.8405808426  CLST          55          1.0000000000
       164        55  TIP3  H1            3.0181581521       -4.9316399018      -14.4248642217  CLST          55          1.0000000000
       165        55  TIP3  H2            2.9352946711       -4.2684533664      -15.7675823600  CLST          55          1.0000000000
       166        56  TIP3  OH2         -10.0208516819       11.0808865473        5.9608150317  CLST          56          1.0000000000
       167        56  TIP3  H1          -10.1856441653       10.2134731365        6.4080037260  CLST          56          1.0000000000
       168        56  TIP3  H2          -10.3421272504       10.9248254481        5.0427558687  CLST          56          1.0000000000
       169        57  TIP3  OH2           1.7618145045      -13.2520133896        0.4611596206  CLST          57          1.0000000000
       170        57  TIP3  H1            1.9115247893      -12.4405948375        1.0161701994  CLST          57          1.0000000000
       171        57  TIP3  H2            2.5550934692      -13.0799941487       -0.1080534915  CLST          57          1.0000000000
       172        58  TIP3  OH2         -13.0635317881       10.7345956283        7.0029482115  CLST          58          1.0000000000
       173        58  TIP3  H1          -12.7524939664       11.6427727280        6.9459881338  CLST          58          1.0000000000
       174        58  TIP3  H2          -12.6322405269       10.5334236130        7.8790654633  CLST          58          1.0000000000
       175        59  TIP3  OH2         -11.6223020486       -2.6749377033        5.5167811100  CLST          59          1.0000000000
       176        59  TIP3  H1          -11.7743588452       -2.2743450555        6.4135095034  CLST          59          1.0000000000
       177        59  TIP3  H2          -11.7565845692       -1.8838889183        4.9603426905  CLST          59          1.0000000000
       178        60  TIP3  OH2           1.3454507565        9.4447427520        8.4467818193  CLST          60          1.0000000000
       179        60  TIP3  H1            0.6276593156        8.8715422636        8.0356139310  CLST          60          1.0000000000
       180        60  TIP3  H2            1.8473757007        8.6446227457        8.7859197009  CLST          60          1.0000000000
       181        61  TIP3  OH2           2.6928790416       -0.6442540237       -5.4678659721  CLST          61          1.0000000000
       182        61  TIP3  H1            3.2572460885       -1.4972721212       -5.3915338971  CLST          61          1.0000000000
       183        61  TIP3  H2            2.0288769065       -0.9703810094       -6.1310841936  CLST          61          1.0000000000
       184        62  TIP3  OH2           8.0668565427        8.4151388454       12.4438099755  CLST          62          1.0000000000
       185        62  TIP3  H1            8.1942867152        7.6794766147       11.8205882196  CLST          62          1.0000000000
       186        62  TIP3  H2            8.1720882747        9.1862751411       11.8451482468  CLST          62          1.0000000000
       187        63  TIP3  OH2           4.6925391204       -7.0475741109      -10.2485419458  CLST          63          1.0000000000
       188        63  TIP3  H1            3.8020904597       -7.0659283475      -10.6658288770  CLST          63          1.0000000000
       189        63  TIP3  H2            5.1911649740       -7.5201353874      -10.9727263186  CLST          63          1.0000000000
       190        64  TIP3  OH2          -2.4840429248       11.6529189524        5.4253911931  CLST          64          1.0000000000
       191        64  TIP3  H1           -2.5003931966       10.6457738141        5.3535679803  CLST          64          1.0000000000
       192        64  TIP3  H2           -1.8900037216       11.6548228486        6.2524999175  CLST          64          1.0000000000
       193        65  TIP3  OH2          10.9042010620       -4.3747766008       -5.3789602910  CLST          65          1.0000000000
       194        65  TIP3  H1           11.1604860398       -4.0291515708       -6.3177511388  CLST          65          1.0000000000
       195        65  TIP3  H2           11.3280651362       -3.5900485726       -4.9802339413  CLST          65          1.0000000000
       196        66  TIP3  OH2           6.2599391506       -9.9869816566        9.3658416041  CLST          66          1.0000000000
       197        66  TIP3  H1            5.5248953612       -9.9803600909        8.6921578154  CLST          66          1.0000000000
       198        66  TIP3  H2            6.6373566326       -9.1417363935        9.0475355139  CLST          66          1.0000000000
       199        67  TIP3  OH2         -11.7007607879       -7.7361958413       -3.9680616429  CLST          67          1.0000000000
       200        67  TIP3  H1          -10.9272393058       -7.2680827259       -4.3556029654  CLST          67          1.0000000000
       201        67  TIP3  H2          -11.9454556885       -8.3082875658       -4.6738823751  CLST          67          1.0000000000
       202        68  TIP3  OH2          -0.6905342837       -5.4040725018        5.2893174152  CLST          68          1.0000000000
       203        68  TIP3  H1            0.2387014827       -5.2458376955        5.5217801997  CLST          68          1.0000000000
       204        68  TIP3  H2           -1.0245713771       -5.2358232933        6.2383459287  CLST          68          1.0000000000
       205        69  TIP3  OH2           8.0494407493       11.5712276743       -8.6029490627  CLST          69          1.0000000000
       206        69  TIP3  H1            8.3793864386       11.2855558164       -9.5508244122  CLST          69          1.0000000000
       207        69  TIP3  H2            9.0501289633       11.6401686951       -8.2894484331  CLST          69          1.0000000000
       208        70  TIP3  OH2          -0.8356980156      -12.4669735680       -0.4383927810  CLST          70          1.0000000000
       209        70  TIP3  H1            0.1503272292      -12.3897370456       -0.4352442472  CLST          70          1.0000000000
       210        70  TIP3  H2           -0.9528962453      -12.6875776183        0.5222111385  CLST          70          1.0000000000
       211        71  TIP3  OH2         -10.2640315719       -7.3612051256        2.1364699008  CLST          71          1.0000000000
       212        71  TIP3  H1          -10.9436448132       -6.7226464674        2.4676338737  CLST          71          1.0000000000
       213        71  TIP3  H2          -10.7803716836       -7.8451293046        1.4540785737  CLST          71          1.0000000000
       214        72  TIP3  OH2           0.3528021513        1.8959993823       -1.5749302845  CLST          72          1.0000000000
       215        72  TIP3  H1            0.0106091675        0.9289345043       -1.6363319751  CLST          72          1.0000000000
       216        72  TIP3  H2            0.9712991716        1.7834566652       -2.3228269779  CLST          72          1.0000000000
       217        73  TIP3  OH2          -9.6927641325       13.1822787986        7.5268983053  CLST          73          1.0000000000
       218        73  TIP3  H1           -9.9040328504       12.4290863641        6.9538987077  CLST          73          1.0000000000
       219        73  TIP3  H2          -10.0841241835       13.8557308908        6.8899321771  CLST          73          1.0000000000
       220        74  TIP3  OH2           6.4692734559       -2.8243031783       -3.6720404184  CLST          74          1.0000000000
       221        74  TIP3  H1            6.8050692950       -3.7228757116       -3.9509939464  CLST          74          1.0000000000
       222        74  TIP3  H2            7.3802940080       -2.4656578197       -3.5318748594  CLST          74          1.0000000000
       223        75  TIP3  OH2           2.7832490453      -13.1813093761       -6.5915423757  CLST          75          1.0000000000
       224        75  TIP3  H1            3.0226253433      -12.2562046481       -6.2518915876  CLST          75          1.0000000000
       225        75  TIP3  H2            2.7426788682      -13.6274289283       -5.7214774263  CLST          75          1.0000000000
       226        76  TIP3  OH2           3.8617361210       -9.7350648875        1.2444198221  CLST          76          1.0000000000
       227        76  TIP3  H1            3.8059405503       -8.7880919501        1.5838821610  CLST          76          1.0000000000
       228        76  TIP3  H2            3.0264035883      -10.1528713356        1.6228119262  CLST          76          1.0000000000
       229        77  TIP3  OH2          10.2460936714       -8.2356307035       -2.7023723401  CLST          77          1.0000000000
       230        77  TIP3  H1            9.7519468802       -9.0924700325       -2.6113292231  CLST          77          1.0000000000
       231        77  TIP3  H2           10.2987217397       -8.1677751033       -3.7133711844  CLST          77          1.0000000000
       232        78  TIP3  OH2          10.6376959197       11.7720534706       -7.8476368590  CLST          78          1.0000000000
       233        78  TIP3  H1           11.2328807947       11.0639026296       -8.0935377202  CLST          78          1.0000000000
       234        78  TIP3  H2           10.9649239776       12.5628350435       -8.0098532329  CLST          78          1.0000000000
       235        79  TIP3  OH2          12.6659862289        0.7549943425        1.0572281569  CLST          79          1.0000000000
       236        79  TIP3  H1           13.2856933838        0.8395150463        1.6821479898  CLST          79          1.0000000000
       237        79  TIP3  H2           11.9712994987        1.4638193659        1.2890686044  CLST          79          1.0000000000
       238        80  TIP3  OH2          -7.4378668158        0.1693120890        6.5938836648  CLST          80          1.0000000000
       239        80  TIP3  H1           -7.3760185546        0.0999635437        5.6108780059  CLST          80          1.0000000000
       240        80  TIP3  H2           -6.4524464040        0.1713135028        6.7605997475  CLST          80          1.0000000000
       241        81  TIP3  OH2          -7.5439765479      -10.8142174976        2.2344245226  CLST          81          1.0000000000
       242        81  TIP3  H1           -6.6944302170      -11.0039698042        1.6724205069  CLST          81          1.0000000000
       243        81  TIP3  H2           -7.0530483542      -11.0149713089        3.0726935179  CLST          81          1.0000000000
       244        82  TIP3  OH2          -1.6281924234      -10.0161546995       -6.4414697147  CLST          82          1.0000000000
       245        82  TIP3  H1           -2.6159432583      -10.0362232456       -6.4131291190  CLST          82          1.0000000000
       246        82  TIP3  H2           -1.4644915116      -10.7624657197       -5.8211438006  CLST          82          1.0000000000
       247        83  TIP3  OH2          12.3216095934       -8.5370308863        1.5116972219  CLST          83          1.0000000000
       248        83  TIP3  H1           12.5331837875       -7.9527432783        2.2708450658  CLST          83          1.0000000000
       249        83  TIP3  H2           11.3428447536       -8.4517499426        1.5421415994  CLST          83          1.0000000000
       250        84  TIP3  OH2          -3.6798857757       10.9392199975       -2.1489542883  CLST          84          1.0000000000
       251        84  TIP3  H1           -4.5824458017       10.8591799354       -2.6140560282  CLST          84          1.0000000000
       252        84  TIP3  H2           -3.5339753094       11.7751507284       -2.1647361764  CLST          84          1.0000000000
       253        85  TIP3  OH2           5.7705391240       -2.0597424083       -0.0016422091  CLST          85          1.0000000000
       254        85  TIP3  H1            5.8718593488       -1.6290209258        0.8640478765  CLST          85          1.0000000000
       255        85  TIP3  H2            6.5338367567       -2.6697236730        0.0889973599  CLST          85          1.0000000000
       256        86  TIP3  OH2           6.6639949653       -8.3857307277        5.7978450008  CLST          86          1.0000000000
       257        86  TIP3  H1            5.8555227903       -8.3819177599        6.3694285336  CLST          86          1.0000000000
       258        86  TIP3  H2            6.6566846291       -7.4535282912        5.4274877211  CLST          86          1.0000000000
       259        87  TIP3  OH2          -1.3580070577       -3.6759359371       10.7270694261  CLST          87          1.0000000000
       260        87  TIP3  H1           -0.8445945319       -4.3123461847       11.4687728499  CLST          87          1.0000000000
       261        87  TIP3  H2           -2.3787317233       -4.5180459014       11.0613069866  CLST          87          1.0000000000
       262        88  TIP3  OH2          -0.7429332304        4.4212364045       -7.9523088741  CLST          88          1.0000000000
       263        88  TIP3  H1           -0.8537956993        3.4408305566       -7.9673778781  CLST          88          1.0000000000
       264        88  TIP3  H2           -1.6859270222        4.6552648481       -8.1380441376  CLST          88          1.0000000000
       265        89  TIP3  OH2           3.5552474426        0.8355145856      -11.7173442816  CLST          89          1.0000000000
       266        89  TIP3  H1            3.5868063573        1.4049015816      -12.4339476140  CLST          89          1.0000000000
       267        89  TIP3  H2            3.6259315206       -0.0109911121      -12.1370939304  CLST          89          1.0000000000
       268        90  TIP3  OH2           5.3842841109       11.1414390323       -5.4726552631  CLST          90          1.0000000000
       269        90  TIP3  H1            4.7692837918       12.4894450467       -5.5440879432  CLST          90          1.0000000000
       270        90  TIP3  H2            5.2434806776       12.1483996956       -6.2769450202  CLST          90          1.0000000000
       271        91  TIP3  OH2           6.0719087900       -7.8613748609      -12.3488728209  CLST          91          1.0000000000
       272        91  TIP3  H1            6.3447897371       -8.8365734701      -12.3486813784  CLST          91          1.0000000000
       273        91  TIP3  H2            6.9320083636       -7.4130128267      -12.1673255979  CLST          91          1.0000000000
       274        92  TIP3  OH2           9.8647956784       11.5823769197        2.6217954177  CLST          92          1.0000000000
       275        92  TIP3  H1           10.2949706449       11.6821169419        3.5205391430  CLST          92          1.0000000000
       276        92  TIP3  H2            9.6465691133       12.5726322254        2.5443052811  CLST          92          1.0000000000
       277        93  TIP3  OH2          -8.8281601617        7.2345109298        2.6834305286  CLST          93          1.0000000000
       278        93  TIP3  H1           -8.6185231199        8.0982345477        2.3068779191  CLST          93          1.0000000000
       279        93  TIP3  H2           -7.9273296177        6.8933575663        2.9464082783  CLST          93          1.0000000000
       280        94  TIP3  OH2         -14.0923516643        6.4279261948        6.5138781021  CLST          94          1.0000000000
       281        94  TIP3  H1          -13.3877761733        7.0474644862        6.2261795769  CLST          94          1.0000000000
       282        94  TIP3  H2          -14.3371995504        6.0954326912        5.6153473217  CLST          94          1.0000000000
       283        95  TIP3  OH2           9.8884447238        5.8307766978       -1.7938761915  CLST          95          1.0000000000
       284        95  TIP3  H1            9.8161594955        6.0400242512       -0.8334672017  CLST          95          1.0000000000
       285        95  TIP3  H2           10.5120532077        5.0351360812       -1.7489792495  CLST          95          1.0000000000
       286        96  TIP3  OH2           9.7781554246      -10.9457027109       11.0910912152  CLST          96          1.0000000000
       287        96  TIP3  H1           10.5744489552      -11.3433238102       10.5867568001  CLST          96          1.0000000000
       288        96  TIP3  H2            9.2287840374      -11.7424240995       11.3370276504  CLST          96          1.0000000000
       289        97  TIP3  OH2          -7.8518708415        7.4584720870        8.7415590152  CLST          97          1.0000000000
       290        97  TIP3  H1           -7.7031655368        6.1296976286        8.9271455758  CLST          97          1.0000000000
       291        97  TIP3  H2           -8.6923370394        6.5951581933        8.5862023601  CLST          97          1.0000000000
       292        98  TIP3  OH2           6.0129350304        0.7541088358       -3.3638131608  CLST          98          1.0000000000
       293        98  TIP3  H1            6.7564583930        0.5043754753       -2.7080618499  CLST          98          1.0000000000
       294        98  TIP3  H2            5.3919757870        0.1052810919       -2.9832633405  CLST          98          1.0000000000
       295        99  TIP3  OH2          -6.7870613260      -11.4695358691        4.7338460088  CLST          99          1.0000000000
       296        99  TIP3  H1           -6.9705510712      -11.0118105841        5.5801722440  CLST          99          1.0000000000
       297        99  TIP3  H2           -6.0202985041      -12.0174878283        4.9932667324  CLST          99          1.0000000000
       298       100  TIP3  OH2           2.3278704668        0.4766216777       -9.2584595069  CLST         100          1.0000000000
       299       100  TIP3  H1            2.7522201590        0.6235339923      -10.1592960766  CLST         100          1.0000000000
       300       100  TIP3  H2            2.3887191774        1.3872114419       -8.9367676702  CLST         100          1.0000000000
       301       101  TIP3  OH2          12.7807333318       -6.9034106838        3.9564861615  CLST         101          1.0000000000
       302       101  TIP3  H1           12.7574116220       -7.4006329240        4.8624972509  CLST         101          1.0000000000
       303       101  TIP3  H2           13.4157613690       -6.3077171921        3.9596139029  CLST         101          1.0000000000
       304       102  TIP3  OH2         -12.2966381596       10.3671605548        1.2592820139  CLST         102          1.0000000000
       305       102  TIP3  H1          -12.9638391632       10.2689125726        2.0320185335  CLST         102          1.0000000000
       306       102  TIP3  H2          -12.7836528116        9.6920199842        0.7068613787  CLST         102          1.0000000000
       307       103  TIP3  OH2          -0.7327264049       -9.2319727976        7.8543759793  CLST         103          1.0000000000
       308       103  TIP3  H1            0.0367494224       -9.5099694246        8.4299157862  CLST         103          1.0000000000
       309       103  TIP3  H2           -1.2667621138      -10.0582038041        7.9905583988  CLST         103          1.0000000000
       310       104  TIP3  OH2          -4.3125235864      -12.1296478161        9.8354105841  CLST         104          1.0000000000
       311       104  TIP3  H1           -4.9354644937      -11.7178036078       10.5275446914  CLST         104          1.0000000000
       312       104  TIP3  H2           -4.9995051220      -12.5550817247        9.2719093875  CLST         104          1.0000000000
       313       105  TIP3  OH2          -5.1222154834       10.5694478309      -11.4260412392  CLST         105          1.0000000000
       314       105  TIP3  H1           -4.6512390501       11.0298483861      -12.1484036762  CLST         105          1.0000000000
       315       105  TIP3  H2           -5.7027586791        9.9925984224      -11.9415786439  CLST         105          1.0000000000
       316       106  TIP3  OH2           7.4033663133       -8.1080997943       -1.5414793193  CLST         106          1.0000000000
       317       106  TIP3  H1            8.2714924055       -7.6608238057       -1.5305869459  CLST         106          1.0000000000
       318       106  TIP3  H2            7.6221832561       -9.0494331375       -1.7609742672  CLST         106          1.0000000000
       319       107  TIP3  OH2          -8.3747675079       -4.7784958599        4.9871243959  CLST         107          1.0000000000
       320       107  TIP3  H1           -9.0796800808       -4.3014584598        4.5097401618  CLST         107          1.0000000000
       321       107  TIP3  H2           -7.5330443546       -4.3049516298        4.7416193072  CLST         107          1.0000000000
       322       108  TIP3  OH2         -10.4154239575        2.0796730447        9.4253633768  CLST         108          1.0000000000
       323       108  TIP3  H1           -9.4573395237        1.8542422803        9.3062811839  CLST         108          1.0000000000
       324       108  TIP3  H2          -10.7685744808        1.2401736176        9.8642645273  CLST         108          1.0000000000
       325       109  TIP3  OH2           2.4161835473        7.0488779677        8.8148143247  CLST         109          1.0000000000
       326       109  TIP3  H1            1.6688084244        6.5386754305        9.1206223239  CLST         109          1.0000000000
       327       109  TIP3  H2            3.1259077348        6.3405271906        8.8069038718  CLST         109          1.0000000000
       328       110  TIP3  OH2           1.5617368891       12.3986749547      -11.1026455189  CLST         110          1.0000000000
       329       110  TIP3  H1            2.3384870765       12.9023095199      -10.8649005610  CLST         110          1.0000000000
       330       110  TIP3  H2            1.1521122673       12.2626258470      -10.1855865877  CLST         110          1.0000000000
       331       111  TIP3  OH2          11.8109804810      -11.8343634717        9.6250062575  CLST         111          1.0000000000
       332       111  TIP3  H1           12.5570606346      -12.3213894520        9.9975150951  CLST         111          1.0000000000
       333       111  TIP3  H2           11.6168378533      -12.3349321773        8.8172070753  CLST         111          1.0000000000
       334       112  TIP3  OH2           6.3605672341        0.0024561090        1.7801646127  CLST         112          1.0000000000
       335       112  TIP3  H1            6.8297544337        0.8666612084        1.8282548229  CLST         112          1.0000000000
       336       112  TIP3  H2            6.3917495863       -0.2334646580        2.7730100869  CLST         112          1.0000000000
       337       113  TIP3  OH2         -12.8581172292        0.8761479206        0.0244666799  CLST         113          1.0000000000
       338       113  TIP3  H1          -13.5993641143        0.1777406314       -0.1476565963  CLST         113          1.0000000000
       339       113  TIP3  H2          -12.2779861071        0.7015361617       -0.7369907434  CLST         113          1.0000000000
       340       114  TIP3  OH2         -13.6182467174        3.4409138549       -0.1969377762  CLST         114          1.0000000000
       341       114  TIP3  H1          -13.5415407878        2.4408852579       -0.1809337825  CLST         114          1.0000000000
       342       114  TIP3  H2          -13.2502614079        3.5105750690       -1.1234638876  CLST         114          1.0000000000
       343       115  TIP3  OH2          -8.7259974173        0.3240358691      -10.8857319223  CLST         115          1.0000000000
       344       115  TIP3  H1           -7.9708914329        0.7394397696      -11.3772284060  CLST         115          1.0000000000
       345       115  TIP3  H2           -9.2246811404        1.1677350990      -10.8976152534  CLST         115          1.0000000000
       346       116  TIP3  OH2           6.9591864185       -5.6646882488        2.2150450510  CLST         116          1.0000000000
       347       116  TIP3  H1            7.5445149521       -6.0909626583        1.5542959906  CLST         116          1.0000000000
       348       116  TIP3  H2            7.2484781407       -4.7438583871        2.0555279469  CLST         116          1.0000000000
       349       117  TIP3  OH2          -0.6796021987        0.0116686184       12.5402912369  CLST         117          1.0000000000
       350       117  TIP3  H1            0.0016608431       -0.6885105958       12.6625988528  CLST         117          1.0000000000
       351       117  TIP3  H2           -0.5632805855        0.4432082438       13.4089691874  CLST         117          1.0000000000
       352       118  TIP3  OH2           0.2184005950       -9.6357909200        4.9549430177  CLST         118          1.0000000000
       353       118  TIP3  H1           -0.0862401652       -9.1822494874        5.7540315637  CLST         118          1.0000000000
       354       118  TIP3  H2           -0.0274342771       -8.8945907450        4.3031491522  CLST         118          1.0000000000
       355       119  TIP3  OH2          -9.0934426632      -10.4730203869       -8.7233011340  CLST         119          1.0000000000
       356       119  TIP3  H1           -9.2573491015      -10.8273943007       -9.6571268106  CLST         119          1.0000000000
       357       119  TIP3  H2           -8.9080472843       -9.5343609869       -8.9732704895  CLST         119          1.0000000000
       358       120  TIP3  OH2           9.6277229689       -8.0058814165        1.3959729362  CLST         120          1.0000000000
       359       120  TIP3  H1            8.8728330188       -8.5842602955        1.2270521138  CLST         120          1.0000000000
       360       120  TIP3  H2            9.3565833367       -7.2822114792        0.7981450863  CLST         120          1.0000000000
       361       121  TIP3  OH2          -5.6925440448       -0.2243175993       -8.2204510007  CLST         121          1.0000000000
       362       121  TIP3  H1           -5.6906366780        0.0546672133       -9.1741971089  CLST         121          1.0000000000
       363       121  TIP3  H2           -4.9972380923       -0.9123672931       -8.1873791520  CLST         121          1.0000000000
       364       122  TIP3  OH2          10.5100362941       12.0616990659        5.2197691570  CLST         122          1.0000000000
       365       122  TIP3  H1            9.5896579214       12.3989746361        5.4452068813  CLST         122          1.0000000000
       366       122  TIP3  H2           10.9764187535       12.4310590641        6.0338493223  CLST         122          1.0000000000
       367       123  TIP3  OH2          -7.3813377586       -5.5162690711      -11.1278330780  CLST         123          1.0000000000
       368       123  TIP3  H1           -6.9996739549       -6.3391109088      -11.4320736879  CLST         123          1.0000000000
       369       123  TIP3  H2           -7.0521358691       -5.3546874510      -10.2172083951  CLST         123          1.0000000000
       370       124  TIP3  OH2          -6.1447071741       -8.7030048064      -10.8008082475  CLST         124          1.0000000000
       371       124  TIP3  H1           -5.3852281005       -8.8800171174      -10.1696646259  CLST         124          1.0000000000
       372       124  TIP3  H2           -6.7293005597       -8.3549516433      -10.0544105750  CLST         124          1.0000000000
       373       125  TIP3  OH2         -13.3399489221        4.1356783792        8.0392254240  CLST         125          1.0000000000
       374       125  TIP3  H1          -12.8446542916        3.5582088333        7.4663338215  CLST         125          1.0000000000
       375       125  TIP3  H2          -13.5893446920        4.8569658881        7.4737868769  CLST         125          1.0000000000
       376       126  TIP3  OH2          -7.0336108135      -10.7875575370      -12.2091500487  CLST         126          1.0000000000
       377       126  TIP3  H1           -6.1099001779      -11.1157663536      -11.8630085303  CLST         126          1.0000000000
       378       126  TIP3  H2           -6.8413874612       -9.8480056323      -11.7584753323  CLST         126          1.0000000000
       379       127  TIP3  OH2          -7.3513117729      -11.6727604623       -6.9489533699  CLST         127          1.0000000000
       380       127  TIP3  H1           -7.8839829146      -12.4772333966       -6.7735585261  CLST         127          1.0000000000
       381       127  TIP3  H2           -7.9123757644      -11.2384298215       -7.7011124261  CLST         127          1.0000000000
       382       128  TIP3  OH2          10.0813572098        0.7226804501       -2.6545600629  CLST         128          1.0000000000
       383       128  TIP3  H1            9.2707514171        0.3475599467       -2.3075226614  CLST         128          1.0000000000
       384       128  TIP3  H2            9.8218990649        1.5438878784       -3.2076608961  CLST         128          1.0000000000
       385       129  TIP3  OH2          -7.7453922744        9.5423578964        1.1141813507  CLST         129          1.0000000000
       386       129  TIP3  H1           -6.9436001586       10.0329732274        1.4797080714  CLST         129          1.0000000000
       387       129  TIP3  H2           -7.1582868470        8.8773846367        0.5968890453  CLST         129          1.0000000000
       388       130  TIP3  OH2          -4.0455995878        4.0143061690       10.0862046035  CLST         130          1.0000000000
       389       130  TIP3  H1           -3.6639977443        4.8855584179       10.1928717541  CLST         130          1.0000000000
       390       130  TIP3  H2           -3.5248973075        3.4785884956       10.8085811068  CLST         130          1.0000000000
       391       131  TIP3  OH2           7.8506633680       -3.8178437343       -9.8771395215  CLST         131          1.0000000000
       392       131  TIP3  H1            7.9117026664       -2.9999607322       -9.2956495289  CLST         131          1.0000000000
       393       131  TIP3  H2            6.8395691009       -3.9058293794       -9.7760024719  CLST         131          1.0000000000
       394       132  TIP3  OH2         -11.5375663105       11.3595527564       12.3458765308  CLST         132          1.0000000000
       395       132  TIP3  H1          -11.0700253190       11.9558749309       11.7413502313  CLST         132          1.0000000000
       396       132  TIP3  H2          -11.8043004013       11.8520922704       13.0677100186  CLST         132          1.0000000000
       397       133  TIP3  OH2          10.3637936397        9.4561081491        8.6000151469  CLST         133          1.0000000000
       398       133  TIP3  H1           10.2445350025        9.3475136214        9.5630115848  CLST         133          1.0000000000
       399       133  TIP3  H2           11.3191269932        9.7315954457        8.6347579360  CLST         133          1.0000000000
       400       134  TIP3  OH2          -7.7047347996        5.8769073031       -6.0572906651  CLST         134          1.0000000000
       401       134  TIP3  H1           -8.6304319082        6.0750848059       -5.9774064239  CLST         134          1.0000000000
       402       134  TIP3  H2           -7.4467522227        5.7959484218       -5.0923208802  CLST         134          1.0000000000
       403       135  TIP3  OH2          10.8009285025      -11.2079828470      -13.0831115409  CLST         135          1.0000000000
       404       135  TIP3  H1           10.8533471553      -10.3375178462      -12.5785421010  CLST         135          1.0000000000
       405       135  TIP3  H2           11.0396262060      -11.0087235804      -13.9172963440  CLST         135          1.0000000000
       406       136  TIP3  OH2          -4.3648775101        1.9942741528       -6.9426730889  CLST         136          1.0000000000
       407       136  TIP3  H1           -4.8478240006        1.2262706576       -7.3324033100  CLST         136          1.0000000000
       408       136  TIP3  H2           -5.1415665481        2.3766769011       -6.5142873266  CLST         136          1.0000000000
       409       137  TIP3  OH2          12.8936862780       10.3747990776        9.1166224295  CLST         137          1.0000000000
       410       137  TIP3  H1           13.1073569065       10.2486665063       10.0622570784  CLST         137          1.0000000000
       411       137  TIP3  H2           13.4795324143        9.6910055090        8.7093096961  CLST         137          1.0000000000
       412       138  TIP3  OH2          -0.8534566305      -10.0170398692        1.6455495304  CLST         138          1.0000000000
       413       138  TIP3  H1           -0.8263982452       -9.6197571965        0.7665304875  CLST         138          1.0000000000
       414       138  TIP3  H2           -0.9749722548       -9.2673485334        2.2596652720  CLST         138          1.0000000000
       415       139  TIP3  OH2          -9.4660264213      -10.7239181973        4.4556980096  CLST         139          1.0000000000
       416       139  TIP3  H1          -10.0662929208      -10.8409777246        3.7016644968  CLST         139          1.0000000000
       417       139  TIP3  H2           -8.7012840309      -11.2366114926        4.1479410417  CLST         139          1.0000000000
       418       140  TIP3  OH2          -7.1109592240        3.4557455885       -0.3631875324  CLST         140          1.0000000000
       419       140  TIP3  H1           -6.3257294419        3.9792630636       -0.2239470368  CLST         140          1.0000000000
       420       140  TIP3  H2           -7.7923457360        4.1710568143       -0.4964161354  CLST         140          1.0000000000
       421       141  TIP3  OH2           2.0245402063       -4.5964974709       -3.6754445176  CLST         141          1.0000000000
       422       141  TIP3  H1            1.6469445113       -3.7717701969       -3.3347342067  CLST         141          1.0000000000
       423       141  TIP3  H2            2.6945749206       -4.0684242552       -4.1901002560  CLST         141          1.0000000000
       424       142  TIP3  OH2         -11.5768547501       -0.0236087433        4.6775315474  CLST         142          1.0000000000
       425       142  TIP3  H1          -11.4033373853        0.6982812152        5.3051346512  CLST         142          1.0000000000
       426       142  TIP3  H2          -12.4057560515        0.3585464203        4.2782047872  CLST         142          1.0000000000
       427       143  TIP3  OH2           9.4031682908       -5.7256740362       -8.1507779786  CLST         143          1.0000000000
       428       143  TIP3  H1            9.5504760162       -5.1683869362       -8.9180138263  CLST         143          1.0000000000
       429       143  TIP3  H2           10.0614262171       -6.4410259029       -8.2673169270  CLST         143          1.0000000000
       430       144  TIP3  OH2           3.2595196168       -2.7958858692        8.9787947284  CLST         144          1.0000000000
       431       144  TIP3  H1            2.3421137003       -2.5117046020        9.3008696348  CLST         144          1.0000000000
       432       144  TIP3  H2            3.5338919179       -1.9734646882        8.5041340002  CLST         144          1.0000000000
       433       145  TIP3  OH2         -10.5192942858       13.3316037490        3.1635406021  CLST         145          1.0000000000
       434       145  TIP3  H1          -10.7484590846       13.5271786123        2.2046857413  CLST         145          1.0000000000
       435       145  TIP3  H2          -10.3162999006       12.3790522876        2.9650969461  CLST         145          1.0000000000
       436       146  TIP3  OH2           9.2719442837        2.7052868223       -4.2163483648  CLST         146          1.0000000000
       437       146  TIP3  H1            9.2048927727        3.7264807548       -4.2362889804  CLST         146          1.0000000000
       438       146  TIP3  H2            8.4705093235        2.5193190095       -4.8006178879  CLST         146          1.0000000000
       439       147  TIP3  OH2         -11.0873530037       -0.4352388603       -4.1958731229  CLST         147          1.0000000000
       440       147  TIP3  H1          -10.1326963165       -0.6655905530       -4.3031772087  CLST         147          1.0000000000
       441       147  TIP3  H2          -11.4464421432       -0.9135833528       -5.0277140258  CLST         147          1.0000000000
       442       148  TIP3  OH2          -7.9345228521        1.3945321875        8.8845143602  CLST         148          1.0000000000
       443       148  TIP3  H1           -7.7511172956        0.9724183668        8.0069629779  CLST         148          1.0000000000
       444       148  TIP3  H2           -6.9367153218        1.6718064132        8.9969908364  CLST         148          1.0000000000
       445       149  TIP3  OH2           8.7349233637       -2.8577467849        0.6861183039  CLST         149          1.0000000000
       446       149  TIP3  H1            9.3567682675       -2.0941586874        0.5014381890  CLST         149          1.0000000000
       447       149  TIP3  H2            8.6485998477       -2.6690534767        1.6620823669  CLST         149          1.0000000000
       448       150  TIP3  OH2          -2.1237701263      -11.4177979003        8.5603610425  CLST         150          1.0000000000
       449       150  TIP3  H1           -3.0092578826      -11.6113182912        9.0463480555  CLST         150          1.0000000000
       450       150  TIP3  H2           -1.5424615167      -11.8499841808        9.2465006710  CLST         150          1.0000000000
       451       151  TIP3  OH2          -9.0889091921       -6.5552206656       -5.0786695779  CLST         151          1.0000000000
       452       151  TIP3  H1           -8.1860729553       -6.6060958513       -4.6196737872  CLST         151          1.0000000000
       453       151  TIP3  H2           -8.9886514486       -7.4606883132       -5.5032831335  CLST         151          1.0000000000
       454       152  TIP3  OH2           3.8911298902       -2.0894483245        5.1188967918  CLST         152          1.0000000000
       455       152  TIP3  H1            4.3168423244       -2.9411962729        5.3942754257  CLST         152          1.0000000000
       456       152  TIP3  H2            3.6117083869       -2.4317891563        4.2512852713  CLST         152          1.0000000000
       457       153  TIP3  OH2          -2.7485164159        4.7730806374      -14.2325018407  CLST         153          1.0000000000
       458       153  TIP3  H1           -1.9581046826        5.2756274205      -14.3839038266  CLST         153          1.0000000000
       459       153  TIP3  H2           -2.3445310288        4.3144833561      -13.4758553217  CLST         153          1.0000000000
       460       154  TIP3  OH2           4.5543625144       -6.9374497555        2.1398745225  CLST         154          1.0000000000
       461       154  TIP3  H1            5.4538437915       -6.5064444544        2.1998641668  CLST         154          1.0000000000
       462       154  TIP3  H2            4.0768573514       -6.3428141563        1.5114812047  CLST         154          1.0000000000
       463       155  TIP3  OH2           9.4726426868       -2.5570804630       10.2178569262  CLST         155          1.0000000000
       464       155  TIP3  H1            8.8487610038       -3.0190982699        9.6145219366  CLST         155          1.0000000000
       465       155  TIP3  H2            9.6812983579       -3.2919124990       10.8237932860  CLST         155          1.0000000000
       466       156  TIP3  OH2          -2.1088273217       11.3141336401       11.6960614640  CLST         156          1.0000000000
       467       156  TIP3  H1           -2.8532755915       11.9470924997       11.7566206202  CLST         156          1.0000000000
       468       156  TIP3  H2           -2.6980762457       10.5873527820       11.5144203704  CLST         156          1.0000000000
       469       157  TIP3  OH2           3.8945043503       -0.7921214180        7.3627545628  CLST         157          1.0000000000
       470       157  TIP3  H1            4.8499479099       -0.8067611503        7.4898230392  CLST         157          1.0000000000
       471       157  TIP3  H2            3.8642993331       -1.3436430878        6.5305215591  CLST         157          1.0000000000
       472       158  TIP3  OH2          10.6198896572        9.1915027723       13.2283502000  CLST         158          1.0000000000
       473       158  TIP3  H1            9.6921473258        8.8596038476       13.4254727078  CLST         158          1.0000000000
       474       158  TIP3  H2           10.2405715938       10.0043272678       12.7754064256  CLST         158          1.0000000000
       475       159  TIP3  OH2           0.5754437009      -12.1435826078        4.3245650205  CLST         159          1.0000000000
       476       159  TIP3  H1           -0.0773790836      -12.4317251591        5.0146250173  CLST         159          1.0000000000
       477       159  TIP3  H2            0.5040952843      -11.2115859191        4.6267275845  CLST         159          1.0000000000
       478       160  TIP3  OH2           7.5272913675       -3.4963656608        8.6982473727  CLST         160          1.0000000000
       479       160  TIP3  H1            7.1493910042       -3.8277980719        7.8612792844  CLST         160          1.0000000000
       480       160  TIP3  H2            7.0761979586       -2.5999960980        8.6429472527  CLST         160          1.0000000000
       481       161  TIP3  OH2          -2.4659078853       -2.2829578495        7.8329595303  CLST         161          1.0000000000
       482       161  TIP3  H1           -2.1882661990       -1.6817715452        8.5770853881  CLST         161          1.0000000000
       483       161  TIP3  H2           -3.3006791326       -2.5523570942        8.2499607093  CLST         161          1.0000000000
       484       162  TIP3  OH2          -0.8031772140        3.6892522825      -10.7812596161  CLST         162          1.0000000000
       485       162  TIP3  H1           -0.5745553358        4.3113369801      -11.5318224716  CLST         162          1.0000000000
       486       162  TIP3  H2           -0.5307227284        4.2791303737      -10.0690880359  CLST         162          1.0000000000
       487       163  TIP3  OH2          -9.8314582376        9.0766915548       10.8282926672  CLST         163          1.0000000000
       488       163  TIP3  H1          -10.5891870332        8.4744492878       11.6311322536  CLST         163          1.0000000000
       489       163  TIP3  H2          -11.6274463131        8.7917828200       11.6246676406  CLST         163          1.0000000000
       490       164  TIP3  OH2           3.9425927355      -10.5713545785       12.9138585742  CLST         164          1.0000000000
       491       164  TIP3  H1            4.5587398561       -9.7903800461       12.6373379875  CLST         164          1.0000000000
       492       164  TIP3  H2            4.6888725303      -11.2492318275       12.9394329060  CLST         164          1.0000000000
       493       165  TIP3  OH2         -12.0802564007       -5.4689529349        3.5528682170  CLST         165          1.0000000000
       494       165  TIP3  H1          -11.7944584530       -5.6929059091        4.4926693149  CLST         165          1.0000000000
       495       165  TIP3  H2          -12.9619875634       -5.6020055857        3.6129901037  CLST         165          1.0000000000
       496       166  TIP3  OH2          -1.6109777214       -6.2825505969      -10.3089042253  CLST         166          1.0000000000
       497       166  TIP3  H1           -0.6741504466       -6.5413015751      -10.4006965774  CLST         166          1.0000000000
       498       166  TIP3  H2           -2.0657746455       -7.0866723462      -10.6190349391  CLST         166          1.0000000000
       499       167  TIP3  OH2           8.1225313734       10.5920077841       -0.8554288211  CLST         167          1.0000000000
       500       167  TIP3  H1            8.6365500549       10.1993942277       -0.0508087741  CLST         167          1.0000000000
       501       167  TIP3  H2            8.4532774694        9.8780829301       -1.4725822436  CLST         167          1.0000000000
       502       168  TIP3  OH2          -0.7165898321      -13.2087288551        2.3075306217  CLST         168          1.0000000000
       503       168  TIP3  H1           -0.2398127189      -12.8045082030        3.0975218905  CLST         168          1.0000000000
       504       168  TIP3  H2           -0.0776673818      -13.9057732285        2.1176105521  CLST         168          1.0000000000
       505       169  TIP3  OH2           5.1390550204        4.0663677475        3.3438371652  CLST         169          1.0000000000
       506       169  TIP3  H1            4.2702090885        3.6020154982        3.3151990074  CLST         169          1.0000000000
       507       169  TIP3  H2            5.1058868313        4.5430982122        2.4749536136  CLST         169          1.0000000000
       508       170  TIP3  OH2          -1.1494320590        4.4343424139        1.2956216286  CLST         170          1.0000000000
       509       170  TIP3  H1           -1.8032512616        5.1748557363        1.1999399193  CLST         170          1.0000000000
       510       170  TIP3  H2           -1.6884021708        3.6565898653        1.3738194347  CLST         170          1.0000000000
       511       171  TIP3  OH2          -3.0036360513        1.2831910065        7.4024377228  CLST         171          1.0000000000
       512       171  TIP3  H1           -2.5055933265        1.0254307475        6.6430547070  CLST         171          1.0000000000
       513       171  TIP3  H2           -2.2208662695        1.6205497449        7.9196138748  CLST         171          1.0000000000
       514       172  TIP3  OH2          -6.4556979054      -13.1322236719        8.0470468879  CLST         172          1.0000000000
       515       172  TIP3  H1           -6.7156947680      -13.9933151309        7.8938105035  CLST         172          1.0000000000
       516       172  TIP3  H2           -5.8553747652      -12.8780060600        7.2880390033  CLST         172          1.0000000000
       517       173  TIP3  OH2          10.1873194517      -12.5902677992        1.9067289120  CLST         173          1.0000000000
       518       173  TIP3  H1           10.3631154308      -12.6778847154        0.9169871073  CLST         173          1.0000000000
       519       173  TIP3  H2            9.4238116132      -11.9570474660        1.7637046243  CLST         173          1.0000000000
       520       174  TIP3  OH2           0.0035233361        5.3617003679        9.6858179991  CLST         174          1.0000000000
       521       174  TIP3  H1           -0.3023324948        4.7516846226       10.3432423875  CLST         174          1.0000000000
       522       174  TIP3  H2           -0.6406791640        6.0927076214        9.7436083292  CLST         174          1.0000000000
       523       175  TIP3  OH2          -5.7557352383       10.5346313008       -3.7124774097  CLST         175          1.0000000000
       524       175  TIP3  H1           -5.4076181335       10.2917765496       -4.6066442344  CLST         175          1.0000000000
       525       175  TIP3  H2           -6.6791326745       10.3178334089       -3.9947475948  CLST         175          1.0000000000
       526       176  TIP3  OH2           6.7237526028        9.2534372334       -7.8507871281  CLST         176          1.0000000000
       527       176  TIP3  H1            7.1999507948       10.0842675949       -8.1302097721  CLST         176          1.0000000000
       528       176  TIP3  H2            6.3443992567        9.6099035474       -7.0207155114  CLST         176          1.0000000000
       529       177  TIP3  OH2          -3.8693475214      -11.5434491724       -1.6648411648  CLST         177          1.0000000000
       530       177  TIP3  H1           -3.1192974629      -11.9718785093       -1.2319882232  CLST         177          1.0000000000
       531       177  TIP3  H2           -4.4524741825      -11.4027455586       -0.8607115062  CLST         177          1.0000000000
       532       178  TIP3  OH2          10.6691103201       -8.9217360678      -11.3963356355  CLST         178          1.0000000000
       533       178  TIP3  H1           10.9999867225       -8.6353177810      -10.5300304617  CLST         178          1.0000000000
       534       178  TIP3  H2           10.5785532938       -8.0189724344      -11.7888996251  CLST         178          1.0000000000
       535       179  TIP3  OH2           6.4706836830       -1.1314264166        8.3348826174  CLST         179          1.0000000000
       536       179  TIP3  H1            6.3610241334       -0.5050391491        9.1062866042  CLST         179          1.0000000000
       537       179  TIP3  H2            7.1309977470       -0.6676851461        7.8134321146  CLST         179          1.0000000000
       538       180  TIP3  OH2          -7.5365744836        7.9789266251        5.9834124504  CLST         180          1.0000000000
       539       180  TIP3  H1           -7.4796758737        7.9496708101        7.0676701893  CLST         180          1.0000000000
       540       180  TIP3  H2           -8.5396526777        8.1264168519        5.9462283078  CLST         180          1.0000000000
       541       181  TIP3  OH2           6.0128011609      -12.9624903373       -0.3953488285  CLST         181          1.0000000000
       542       181  TIP3  H1            6.8223655506      -12.9101121953       -0.9068113557  CLST         181          1.0000000000
       543       181  TIP3  H2            6.3001303530      -13.1239340830        0.5465703597  CLST         181          1.0000000000
       544       182  TIP3  OH2          -1.6262367176       10.4346232082      -10.3722206168  CLST         182          1.0000000000
       545       182  TIP3  H1           -0.9934977895       10.8967782460       -9.7456635019  CLST         182          1.0000000000
       546       182  TIP3  H2           -2.4452564231       10.4828477820       -9.8649792648  CLST         182          1.0000000000
       547       183  TIP3  OH2          -5.5528038074        3.7079302216      -12.4197784270  CLST         183          1.0000000000
       548       183  TIP3  H1           -5.3102341516        3.5400352138      -11.4794328014  CLST         183          1.0000000000
       549       183  TIP3  H2           -6.4404009072        3.2337288088      -12.4453070278  CLST         183          1.0000000000
       550       184  TIP3  OH2           3.0277041193        8.2529445040       -2.5713696193  CLST         184          1.0000000000
       551       184  TIP3  H1            3.2966484034        7.6403635480       -1.7830658610  CLST         184          1.0000000000
       552       184  TIP3  H2            2.0769869521        7.9422090173       -2.6181278870  CLST         184          1.0000000000
       553       185  TIP3  OH2           7.4387190126        4.5597241500       12.0685812871  CLST         185          1.0000000000
       554       185  TIP3  H1            7.7809101311        3.5717613283       12.0451570933  CLST         185          1.0000000000
       555       185  TIP3  H2            6.9157343717        4.6178600066       12.9388221943  CLST         185          1.0000000000
       556       186  TIP3  OH2           3.7177132686        5.9442998816       -5.2880705932  CLST         186          1.0000000000
       557       186  TIP3  H1            3.9598319761        6.9048569788       -5.2737465585  CLST         186          1.0000000000
       558       186  TIP3  H2            3.8340129074        5.8041411985       -6.2489097409  CLST         186          1.0000000000
       559       187  TIP3  OH2           3.9828875187        1.6796578674       -5.5009620136  CLST         187          1.0000000000
       560       187  TIP3  H1            4.1316083408        1.7897580502       -4.5667060629  CLST         187          1.0000000000
       561       187  TIP3  H2            3.6951076522        0.7322086696       -5.5168629778  CLST         187          1.0000000000
       562       188  TIP3  OH2          -4.7196714063       -1.6683704313        4.7823254523  CLST         188          1.0000000000
       563       188  TIP3  H1           -4.7963697338       -0.8452363861        4.1982005622  CLST         188          1.0000000000
       564       188  TIP3  H2           -4.9806855798       -1.2086635879        5.6145332102  CLST         188          1.0000000000
       565       189  TIP3  OH2          -4.9381568788        3.3487449681      -15.1787832299  CLST         189          1.0000000000
       566       189  TIP3  H1           -5.2053030973        3.1883782326      -14.2559916876  CLST         189          1.0000000000
       567       189  TIP3  H2           -4.1296504204        3.8892499644      -14.8797027158  CLST         189          1.0000000000
       568       190  TIP3  OH2           7.0481429598       -5.8268810501        5.1303215151  CLST         190          1.0000000000
       569       190  TIP3  H1            6.8753964509       -5.6308534339        4.1711899245  CLST         190          1.0000000000
       570       190  TIP3  H2            8.0262932826       -5.8529214392        5.0969068080  CLST         190          1.0000000000
       571       191  TIP3  OH2         -10.9115912677       -4.9407613415       -6.4972562419  CLST         191          1.0000000000
       572       191  TIP3  H1          -10.5038105028       -4.5010796393       -7.2972875667  CLST         191          1.0000000000
       573       191  TIP3  H2          -10.1066021626       -5.3458592982       -6.0749972038  CLST         191          1.0000000000
       574       192  TIP3  OH2           8.7834404082       14.3782217118        2.1374398685  CLST         192          1.0000000000
       575       192  TIP3  H1            8.0338391258       14.6179946733        2.7001990628  CLST         192          1.0000000000
       576       192  TIP3  H2            9.3169295013       15.1452765721        2.0001286265  CLST         192          1.0000000000
       577       193  TIP3  OH2           6.0885654130      -12.0243085140       11.7750821157  CLST         193          1.0000000000
       578       193  TIP3  H1            6.8043527986      -12.6611114806       11.6784435599  CLST         193          1.0000000000
       579       193  TIP3  H2            6.0671407122      -11.4578565330       10.9921911780  CLST         193          1.0000000000
       580       194  TIP3  OH2          -6.3000803840       -4.4339890733       11.1573794739  CLST         194          1.0000000000
       581       194  TIP3  H1           -6.5846625604       -4.6051660701       11.9704133298  CLST         194          1.0000000000
       582       194  TIP3  H2           -7.0600231370       -4.4746262013       10.4915355323  CLST         194          1.0000000000
       583       195  TIP3  OH2          -7.4294250852        9.1250538985       10.2055410853  CLST         195          1.0000000000
       584       195  TIP3  H1           -9.0916287154        8.6012635400       10.5566314283  CLST         195          1.0000000000
       585       195  TIP3  H2           -8.3285407603        8.7796823741        9.4428259634  CLST         195          1.0000000000
       586       196  TIP3  OH2           6.1129103703      -12.1622415466       -6.0106030416  CLST         196          1.0000000000
       587       196  TIP3  H1            6.4089351314      -11.3225566127       -6.4054039905  CLST         196          1.0000000000
       588       196  TIP3  H2            5.2795479371      -11.7710379752       -5.6365267151  CLST         196          1.0000000000
       589       197  TIP3  OH2           2.1518110509       -9.1792475173       -2.8578966877  CLST         197          1.0000000000
       590       197  TIP3  H1            1.9119110743       -8.2584128094       -2.4737876163  CLST         197          1.0000000000
       591       197  TIP3  H2            3.0628762878       -9.1118259369       -2.5287657232  CLST         197          1.0000000000
       592       198  TIP3  OH2          10.8444308714        1.8108477875        4.4583973629  CLST         198          1.0000000000
       593       198  TIP3  H1           10.0648413986        1.4462583030        3.9736673108  CLST         198          1.0000000000
       594       198  TIP3  H2           10.6879117291        2.7643860227        4.1680573846  CLST         198          1.0000000000
       595       199  TIP3  OH2          -0.2753904684        8.3817439331       -5.9993960974  CLST         199          1.0000000000
       596       199  TIP3  H1           -1.0923780561        8.6696700219       -5.5501988446  CLST         199          1.0000000000
       597       199  TIP3  H2           -0.2261540619        7.4381160935       -5.7102156306  CLST         199          1.0000000000
       598       200  TIP3  OH2          -7.6195387758       11.6661822417       11.0296271582  CLST         200          1.0000000000
       599       200  TIP3  H1           -7.7907692892       10.6635403094       10.6758503681  CLST         200          1.0000000000
       600       200  TIP3  H2           -7.2144658155       11.9291131261       10.0660487529  CLST         200          1.0000000000
       601       201  TIP3  OH2           4.4841848460        1.1184433575       -0.0877172723  CLST         201          1.0000000000
       602       201  TIP3  H1            3.7666662382        1.0003505835        0.5343536045  CLST         201          1.0000000000
       603       201  TIP3  H2            5.1855567090        0.7168133224        0.5112419614  CLST         201          1.0000000000
       604       202  TIP3  OH2          -2.2116163255       -4.3896697996      -12.5102257377  CLST         202          1.0000000000
       605       202  TIP3  H1           -1.9559178141       -4.9302382512      -11.7456182096  CLST         202          1.0000000000
       606       202  TIP3  H2           -2.7137090156       -3.6926368271      -12.0332830326  CLST         202          1.0000000000
       607       203  TIP3  OH2          -0.7027060657       11.2684757694        7.4671963598  CLST         203          1.0000000000
       608       203  TIP3  H1            0.0560722960       10.7789684559        7.8427363035  CLST         203          1.0000000000
       609       203  TIP3  H2           -1.3554164285       10.9952642358        8.1630331091  CLST         203          1.0000000000
       610       204  TIP3  OH2          -5.4448705577        6.3096487558      -13.2690804130  CLST         204          1.0000000000
       611       204  TIP3  H1           -4.9358494139        6.1863646432      -14.0661912420  CLST         204          1.0000000000
       612       204  TIP3  H2           -5.7000986679        5.3206605191      -13.1900837524  CLST         204          1.0000000000
       613       205  TIP3  OH2          -2.3401071733        7.0967315952       -2.6904662022  CLST         205          1.0000000000
       614       205  TIP3  H1           -2.2597589568        7.8744106431       -3.3470190447  CLST         205          1.0000000000
       615       205  TIP3  H2           -1.3677342099        6.8639441581       -2.7198450823  CLST         205          1.0000000000
       616       206  TIP3  OH2           5.1182952383      -11.1073809937       -9.8071875945  CLST         206          1.0000000000
       617       206  TIP3  H1            4.9248984883      -12.0294736352       -9.4175563802  CLST         206          1.0000000000
       618       206  TIP3  H2            5.7918870285      -10.7842702300       -9.1548286373  CLST         206          1.0000000000
       619       207  TIP3  OH2          12.8659909870       10.2784913507       12.1620263631  CLST         207          1.0000000000
       620       207  TIP3  H1           12.2366844649        9.8077913247       12.7133732515  CLST         207          1.0000000000
       621       207  TIP3  H2           13.5003234720       10.5086716845       12.6473299356  CLST         207          1.0000000000
       622       208  TIP3  OH2         -11.5896445496        2.4222428509        6.8447341296  CLST         208          1.0000000000
       623       208  TIP3  H1          -11.1299013328        2.2888649210        7.6882866853  CLST         208          1.0000000000
       624       208  TIP3  H2          -11.1986980792        3.2683470617        6.4641537226  CLST         208          1.0000000000
       625       209  TIP3  OH2           4.5009075577       -9.2587491967        7.4419922625  CLST         209          1.0000000000
       626       209  TIP3  H1            4.1185640475       -9.5035917735        6.4982318572  CLST         209          1.0000000000
       627       209  TIP3  H2            3.6936050551       -8.6493339791        7.5529845152  CLST         209          1.0000000000
       628       210  TIP3  OH2          11.9708209474      -11.0935974541        5.2567824388  CLST         210          1.0000000000
       629       210  TIP3  H1           12.3028824841      -11.1206457649        4.3030144735  CLST         210          1.0000000000
       630       210  TIP3  H2           12.2034245323      -10.1255042050        5.5022600892  CLST         210          1.0000000000
       631       211  TIP3  OH2          -0.3262580086       -9.2498434381       12.2255368399  CLST         211          1.0000000000
       632       211  TIP3  H1            0.2579549263       -9.8139470855       12.8676801985  CLST         211          1.0000000000
       633       211  TIP3  H2           -1.1959456288       -9.8255761844       12.2139076328  CLST         211          1.0000000000
       634       212  TIP3  OH2         -12.2828424696        3.5378703744       -2.4340918651  CLST         212          1.0000000000
       635       212  TIP3  H1          -11.8173816489        4.1966468129       -2.9991484732  CLST         212          1.0000000000
       636       212  TIP3  H2          -11.7043059043        2.7186806485       -2.3787968926  CLST         212          1.0000000000
       637       213  TIP3  OH2          -9.4737341315      -11.4772555480      -11.3093898369  CLST         213          1.0000000000
       638       213  TIP3  H1           -9.6310605108      -11.6862818123      -12.1899269715  CLST         213          1.0000000000
       639       213  TIP3  H2           -8.2698402608      -11.2320194484      -12.3927287620  CLST         213          1.0000000000
       640       214  TIP3  OH2          -6.3712413139        2.3252792294       -5.3324693854  CLST         214          1.0000000000
       641       214  TIP3  H1           -6.1580301919        1.4648697569       -4.9048599029  CLST         214          1.0000000000
       642       214  TIP3  H2           -7.0663154938        2.6531643863       -4.6680684521  CLST         214          1.0000000000
       643       215  TIP3  OH2         -11.7436965423      -12.5595944626        5.7050117917  CLST         215          1.0000000000
       644       215  TIP3  H1          -10.7920304858      -12.3282420373        5.6980891184  CLST         215          1.0000000000
       645       215  TIP3  H2          -11.8052636802      -12.8352189353        4.7656075871  CLST         215          1.0000000000
       646       216  TIP3  OH2         -11.8201529158       -2.2115278610        8.1410880550  CLST         216          1.0000000000
       647       216  TIP3  H1          -10.8986205328       -1.9551963789        8.2457405839  CLST         216          1.0000000000
       648       216  TIP3  H2          -11.6254226799       -3.1846143545        8.3102074209  CLST         216          1.0000000000
       649       217  TIP3  OH2           7.6591959581       -0.2658875331       -1.4959400360  CLST         217          1.0000000000
       650       217  TIP3  H1            7.9994404071       -1.1591450802       -1.7054542271  CLST         217          1.0000000000
       651       217  TIP3  H2            6.9881252975       -0.4852523528       -0.8279914320  CLST         217          1.0000000000
       652       218  TIP3  OH2          -8.2274622066       -4.0598858816        9.1766322956  CLST         218          1.0000000000
       653       218  TIP3  H1           -8.5532024771       -3.1336186216        8.9874253375  CLST         218          1.0000000000
       654       218  TIP3  H2           -7.6475296142       -4.2479033223        8.3964123538  CLST         218          1.0000000000
       655       219  TIP3  OH2         -12.4941801164       -4.5659988555       -2.6905415573  CLST         219          1.0000000000
       656       219  TIP3  H1          -12.6758821423       -3.5676232237       -2.5498457627  CLST         219          1.0000000000
       657       219  TIP3  H2          -12.6916581913       -4.5483097909       -3.6561249703  CLST         219          1.0000000000
       658       220  TIP3  OH2           6.4632208825        6.7422754523        7.5386081443  CLST         220          1.0000000000
       659       220  TIP3  H1            5.9847972699        6.7311342883        6.6432614165  CLST         220          1.0000000000
       660       220  TIP3  H2            5.7083596121        6.2005306107        7.9565264874  CLST         220          1.0000000000
       661       221  TIP3  OH2         -10.4312756684       -7.0595250178       10.1551745433  CLST         221          1.0000000000
       662       221  TIP3  H1           -9.5150149571       -7.2765275953        9.9384939049  CLST         221          1.0000000000
       663       221  TIP3  H2          -10.7752199339       -7.9581585955        9.9638213644  CLST         221          1.0000000000
       664       222  TIP3  OH2          -6.9971844059       -0.8613583991      -13.7557953694  CLST         222          1.0000000000
       665       222  TIP3  H1           -6.4546463593       -1.7155873644      -13.5182560482  CLST         222          1.0000000000
       666       222  TIP3  H2           -7.8380662200       -1.3262494440      -13.6971398147  CLST         222          1.0000000000
       667       223  TIP3  OH2           2.6765971140      -10.5667339012      -11.3950626231  CLST         223          1.0000000000
       668       223  TIP3  H1            2.1696945956      -11.4678893400      -11.4687705597  CLST         223          1.0000000000
       669       223  TIP3  H2            3.5117077264      -10.8249793905      -10.9847610248  CLST         223          1.0000000000
       670       224  TIP3  OH2           7.5768249795        4.6146060162        0.7369588065  CLST         224          1.0000000000
       671       224  TIP3  H1            8.3390894834        5.2534843396        0.7168248059  CLST         224          1.0000000000
       672       224  TIP3  H2            7.4829751904        4.2744872795       -0.1787259622  CLST         224          1.0000000000
       673       225  TIP3  OH2          -0.1977486029        4.5317917577       -1.2760530761  CLST         225          1.0000000000
       674       225  TIP3  H1           -0.3293070353        4.5302196513       -0.3096628908  CLST         225          1.0000000000
       675       225  TIP3  H2           -0.2113026741        3.5470608044       -1.4353768013  CLST         225          1.0000000000
       676       226  TIP3  OH2          -5.7214673336       -4.5412402298        7.5537008656  CLST         226          1.0000000000
       677       226  TIP3  H1           -5.6422511955       -5.5649067997        7.7169913342  CLST         226          1.0000000000
       678       226  TIP3  H2           -5.6399680958       -4.4552789985        6.6078269826  CLST         226          1.0000000000
       679       227  TIP3  OH2          11.6023065985       -4.1649318360       -9.9094133953  CLST         227          1.0000000000
       680       227  TIP3  H1           11.7905833718       -3.5874118938       -9.1284211628  CLST         227          1.0000000000
       681       227  TIP3  H2           11.1220890360       -3.5154841845      -10.4693164314  CLST         227          1.0000000000
       682       228  TIP3  OH2           3.7788521175       12.4562178701        3.2713039566  CLST         228          1.0000000000
       683       228  TIP3  H1            2.0656755146       11.7227013471        4.2048144455  CLST         228          1.0000000000
       684       228  TIP3  H2            2.9981526590       12.2208283407        2.8724674593  CLST         228          1.0000000000
       685       229  TIP3  OH2         -11.4489556355      -13.1111487775        2.8764010272  CLST         229          1.0000000000
       686       229  TIP3  H1          -11.2995494469      -13.6931471204        2.2204037582  CLST         229          1.0000000000
       687       229  TIP3  H2          -11.1581383444      -12.2760536515        2.3427478304  CLST         229          1.0000000000
       688       230  TIP3  OH2          12.3751466064        6.2751621281       -3.4916665147  CLST         230          1.0000000000
       689       230  TIP3  H1           13.1700721276        5.9248057852       -2.9928644050  CLST         230          1.0000000000
       690       230  TIP3  H2           12.0226991635        5.3902981927       -3.7357658452  CLST         230          1.0000000000
       691       231  TIP3  OH2           7.1619436877        3.2956422091        4.8775311569  CLST         231          1.0000000000
       692       231  TIP3  H1            7.6008863784        4.1661268224        5.0330422943  CLST         231          1.0000000000
       693       231  TIP3  H2            6.3333601987        3.6039715069        4.4383017389  CLST         231          1.0000000000
       694       232  TIP3  OH2         -10.3381153076        8.9338978444        7.5987780719  CLST         232          1.0000000000
       695       232  TIP3  H1          -10.6183275320        9.4459569826        8.4704366675  CLST         232          1.0000000000
       696       232  TIP3  H2           -9.8810766681        8.1060338934        8.1722489810  CLST         232          1.0000000000
       697       233  TIP3  OH2           3.5514709431       -5.0677786723        8.1098379656  CLST         233          1.0000000000
       698       233  TIP3  H1            3.9605724081       -5.5612253665        8.8508797207  CLST         233          1.0000000000
       699       233  TIP3  H2            3.3089573221       -4.1812871537        8.5455390918  CLST         233          1.0000000000
       700       234  TIP3  OH2          -3.6134357356        8.4869389502       -0.5547520577  CLST         234          1.0000000000
       701       234  TIP3  H1           -3.0651575664        8.1849884469       -1.3286555973  CLST         234          1.0000000000
       702       234  TIP3  H2           -3.7209633263        9.4388070407       -0.7418749439  CLST         234          1.0000000000
       703       235  TIP3  OH2          -1.9310901913       -3.9573561008       -8.9710309214  CLST         235          1.0000000000
       704       235  TIP3  H1           -1.9288279102       -4.8613520208       -9.4214407306  CLST         235          1.0000000000
       705       235  TIP3  H2           -0.9462550182       -3.8106859077       -8.9864150076  CLST         235          1.0000000000
       706       236  TIP3  OH2          -0.1985642185      -13.3942106709       -3.1552718074  CLST         236          1.0000000000
       707       236  TIP3  H1            0.4286215833      -12.6778975003       -2.7688718098  CLST         236          1.0000000000
       708       236  TIP3  H2           -0.8273783710      -13.3575824628       -2.3998906880  CLST         236          1.0000000000
       709       237  TIP3  OH2          -3.4662853044       -5.0710997348       10.9254161088  CLST         237          1.0000000000
       710       237  TIP3  H1           -4.5295624872       -4.7434887264       11.0476590364  CLST         237          1.0000000000
       711       237  TIP3  H2           -3.6588818573       -5.8092446726       10.2868789535  CLST         237          1.0000000000
       712       238  TIP3  OH2           0.6240836194        4.6757521755        7.2599714814  CLST         238          1.0000000000
       713       238  TIP3  H1           -0.0275923937        5.2827268155        6.7968635038  CLST         238          1.0000000000
       714       238  TIP3  H2            0.4975500164        4.9113368766        8.2197309774  CLST         238          1.0000000000
       715       239  TIP3  OH2         -13.9801494999        5.8376580725        3.5439972031  CLST         239          1.0000000000
       716       239  TIP3  H1          -14.0568809449        6.4769607730        2.7839457095  CLST         239          1.0000000000
       717       239  TIP3  H2          -13.3613830478        5.2129245254        3.1092453174  CLST         239          1.0000000000
       718       240  TIP3  OH2         -14.0982884175        8.9299999117       -0.2481403122  CLST         240          1.0000000000
       719       240  TIP3  H1          -14.8306751055        9.0818135458        0.3223037542  CLST         240          1.0000000000
       720       240  TIP3  H2          -13.9728669761        7.9542168905        0.0590258727  CLST         240          1.0000000000
       721       241  TIP3  OH2          -7.5953859407       -7.8121997841       -8.5193354840  CLST         241          1.0000000000
       722       241  TIP3  H1           -7.7032215468       -7.9745727599       -7.5696469776  CLST         241          1.0000000000
       723       241  TIP3  H2           -7.5631604939       -6.8361343766       -8.4734740549  CLST         241          1.0000000000
       724       242  TIP3  OH2           6.0545987126       -5.6975236715        9.7204024723  CLST         242          1.0000000000
       725       242  TIP3  H1            6.4552635097       -4.8450201811        9.5237971847  CLST         242          1.0000000000
       726       242  TIP3  H2            6.7880292950       -6.3280005864        9.4442715158  CLST         242          1.0000000000
       727       243  TIP3  OH2          -6.6163311526       -7.0153662899       -4.2534639889  CLST         243          1.0000000000
       728       243  TIP3  H1           -6.4386433942       -7.7322795335       -4.8755457770  CLST         243          1.0000000000
       729       243  TIP3  H2           -6.4513999323       -7.5794377832       -3.4760365633  CLST         243          1.0000000000
       730       244  TIP3  OH2           4.9252718753        5.7790194754        5.4577604191  CLST         244          1.0000000000
       731       244  TIP3  H1            5.0177915089        5.3476784038        4.5733158184  CLST         244          1.0000000000
       732       244  TIP3  H2            4.1155758436        5.2978796279        5.7319739259  CLST         244          1.0000000000
       733       245  TIP3  OH2          -7.1064301093        3.6845448622       -7.6494051522  CLST         245          1.0000000000
       734       245  TIP3  H1           -6.9916641834        3.0875597719       -6.8712507903  CLST         245          1.0000000000
       735       245  TIP3  H2           -7.3757208630        4.4769942613       -7.0541164509  CLST         245          1.0000000000
       736       246  TIP3  OH2           2.1861187378       -6.6725390130       -1.9580516356  CLST         246          1.0000000000
       737       246  TIP3  H1            1.8873543286       -5.8975767102       -2.5285017659  CLST         246          1.0000000000
       738       246  TIP3  H2            3.1429953529       -6.5575979632       -2.0100284602  CLST         246          1.0000000000
       739       247  TIP3  OH2           6.0051435679        8.0550402716        0.5360620116  CLST         247          1.0000000000
       740       247  TIP3  H1            6.4629641428        7.7882970816       -0.3440430224  CLST         247          1.0000000000
       741       247  TIP3  H2            5.6245840667        8.9168885928        0.2393210556  CLST         247          1.0000000000
       742       248  TIP3  OH2          -2.4829816994        8.2435675941      -11.7794592229  CLST         248          1.0000000000
       743       248  TIP3  H1           -1.7593225258        8.2095413531      -12.4089004692  CLST         248          1.0000000000
       744       248  TIP3  H2           -2.1387614523        8.9774365356      -11.1467405595  CLST         248          1.0000000000
       745       249  TIP3  OH2           9.0339532958        4.8455450538       -7.7607365747  CLST         249          1.0000000000
       746       249  TIP3  H1            8.2508556450        5.4610244317       -7.5640364736  CLST         249          1.0000000000
       747       249  TIP3  H2            8.6213292464        3.9771285354       -7.5325980393  CLST         249          1.0000000000
       748       250  TIP3  OH2          -7.6337410882        9.7376328504       -5.6588434320  CLST         250          1.0000000000
       749       250  TIP3  H1           -7.6686424244        9.0249727901       -6.3263979168  CLST         250          1.0000000000
       750       250  TIP3  H2           -7.7212614146       10.4999201514       -6.3034182923  CLST         250          1.0000000000
       751       251  TIP3  OH2          -3.6373485212       12.4981722405        3.1379356116  CLST         251          1.0000000000
       752       251  TIP3  H1           -3.0378552199       12.9769434818        2.7293947496  CLST         251          1.0000000000
       753       251  TIP3  H2           -3.1221499246       12.2384949390        3.9881030615  CLST         251          1.0000000000
       754       252  TIP3  OH2           5.9500251437        5.2602279373       14.5112594812  CLST         252          1.0000000000
       755       252  TIP3  H1            5.7380402868        6.1794090049       14.3447895484  CLST         252          1.0000000000
       756       252  TIP3  H2            5.6305300148        5.2204664750       15.3933985374  CLST         252          1.0000000000
       757       253  TIP3  OH2           5.8470883382       13.8805060796        3.3294418117  CLST         253          1.0000000000
       758       253  TIP3  H1            4.9620131622       13.6069211874        3.6437932247  CLST         253          1.0000000000
       759       253  TIP3  H2            5.7399016999       13.4583322737        2.4754897696  CLST         253          1.0000000000
       760       254  TIP3  OH2          -4.2808936441        8.0845806222        3.0514844404  CLST         254          1.0000000000
       761       254  TIP3  H1           -4.6645799393        8.6590368648        2.3766827652  CLST         254          1.0000000000
       762       254  TIP3  H2           -5.0681005810        7.6107226968        3.3881258166  CLST         254          1.0000000000
       763       255  TIP3  OH2          -6.9665498160       10.3045365701        4.2581343579  CLST         255          1.0000000000
       764       255  TIP3  H1           -7.8568736708       10.7106151414        4.2908821204  CLST         255          1.0000000000
       765       255  TIP3  H2           -7.0873839091        9.6411219521        4.9656698617  CLST         255          1.0000000000
       766       256  TIP3  OH2          11.6149920583        3.8061096676       -1.5465594903  CLST         256          1.0000000000
       767       256  TIP3  H1           11.9241822214        2.9482742097       -1.9127770627  CLST         256          1.0000000000
       768       256  TIP3  H2           11.5375401880        3.5121306627       -0.5983585448  CLST         256          1.0000000000
       769       257  TIP3  OH2          -8.5351244526       -1.1417352676       -5.0061404775  CLST         257          1.0000000000
       770       257  TIP3  H1           -7.6319281101       -0.8323841070       -4.6826495806  CLST         257          1.0000000000
       771       257  TIP3  H2           -8.4659085110       -0.9386523039       -5.9739914461  CLST         257          1.0000000000
       772       258  TIP3  OH2          -5.3243490522       10.0824777433        7.8698536496  CLST         258          1.0000000000
       773       258  TIP3  H1           -5.2941482633       10.6427953880        7.0475215826  CLST         258          1.0000000000
       774       258  TIP3  H2           -6.1138652128       10.3879713899        8.2890241711  CLST         258          1.0000000000
       775       259  TIP3  OH2          10.0882637662        6.0919510393        0.8561939381  CLST         259          1.0000000000
       776       259  TIP3  H1           10.9492152575        6.6032088856        0.6913212572  CLST         259          1.0000000000
       777       259  TIP3  H2            9.8054299023        6.6457735098        1.6016473629  CLST         259          1.0000000000
       778       260  TIP3  OH2          -5.1097731512        7.5026282917        8.8409936842  CLST         260          1.0000000000
       779       260  TIP3  H1           -5.1523751041        8.5278875687        8.4488331474  CLST         260          1.0000000000
       780       260  TIP3  H2           -6.1736887787        7.4177431980        8.8612749955  CLST         260          1.0000000000
       781       261  TIP3  OH2           0.6386982821       -4.1528778228       12.2917882306  CLST         261          1.0000000000
       782       261  TIP3  H1           -0.0693947534       -5.4946113356       12.2640364854  CLST         261          1.0000000000
       783       261  TIP3  H2            1.2204849352       -5.4980830526       13.0670533897  CLST         261          1.0000000000
       784       262  TIP3  OH2         -10.8630195376        4.6761993029        5.8980371481  CLST         262          1.0000000000
       785       262  TIP3  H1          -10.0013471342        4.5982805157        5.3498796688  CLST         262          1.0000000000
       786       262  TIP3  H2          -11.3622422125        5.0811013757        5.1607449373  CLST         262          1.0000000000
       787       263  TIP3  OH2           1.6682470070        0.9219108686        6.7666376120  CLST         263          1.0000000000
       788       263  TIP3  H1            2.4440575044        1.5231306872        6.7688367285  CLST         263          1.0000000000
       789       263  TIP3  H2            2.1100890846        0.1089867560        6.9968190414  CLST         263          1.0000000000
       790       264  TIP3  OH2           5.1196261109       -4.3830512249       -9.8138870718  CLST         264          1.0000000000
       791       264  TIP3  H1            5.1162192049       -5.4094757747       -9.9673032811  CLST         264          1.0000000000
       792       264  TIP3  H2            4.2119675438       -4.2738063817      -10.2386334483  CLST         264          1.0000000000
       793       265  TIP3  OH2           7.5631564700        5.0210482957      -10.2658927861  CLST         265          1.0000000000
       794       265  TIP3  H1            7.6731251723        6.1087535654      -10.4545715051  CLST         265          1.0000000000
       795       265  TIP3  H2            8.2643319346        4.9807902346       -9.5387916497  CLST         265          1.0000000000
       796       266  TIP3  OH2          -8.1246994010       -8.8441284915        0.0865630131  CLST         266          1.0000000000
       797       266  TIP3  H1           -7.9600860051       -9.1507822598        0.9859989228  CLST         266          1.0000000000
       798       266  TIP3  H2           -8.3183353668       -7.8695634803        0.1600368409  CLST         266          1.0000000000
       799       267  TIP3  OH2           1.1642303221        2.5529876061       -5.0799140291  CLST         267          1.0000000000
       800       267  TIP3  H1            1.2475649455        3.4610977238       -4.6954969994  CLST         267          1.0000000000
       801       267  TIP3  H2            2.0849163599        2.2281249258       -5.1490771286  CLST         267          1.0000000000
       802       268  TIP3  OH2           5.1438644691       -4.6424599927       -6.8336861083  CLST         268          1.0000000000
       803       268  TIP3  H1            5.1093205022       -4.3482593793       -7.7663485020  CLST         268          1.0000000000
       804       268  TIP3  H2            4.9625909134       -5.5961897757       -6.9053879507  CLST         268          1.0000000000
       805       269  TIP3  OH2           5.5588668793       10.6850633716       -0.2560886111  CLST         269          1.0000000000
       806       269  TIP3  H1            6.5114668710       10.6248045107       -0.5731893113  CLST         269          1.0000000000
       807       269  TIP3  H2            5.7205715302       11.4946017707        0.2953692454  CLST         269          1.0000000000
       808       270  TIP3  OH2           1.2166586735        9.3955833435       -7.9819765641  CLST         270          1.0000000000
       809       270  TIP3  H1            1.3405948106        8.5346926146       -8.4537590818  CLST         270          1.0000000000
       810       270  TIP3  H2            0.7324262607        9.0014504982       -7.1708968814  CLST         270          1.0000000000
       811       271  TIP3  OH2          -6.4394767867       -8.9587699420       -2.1741360973  CLST         271          1.0000000000
       812       271  TIP3  H1           -5.6226901506       -8.8975975129       -1.6653600727  CLST         271          1.0000000000
       813       271  TIP3  H2           -7.0937969005       -8.9615010332       -1.4186523086  CLST         271          1.0000000000
       814       272  TIP3  OH2           9.3898089642       -8.3169897035        5.7323860260  CLST         272          1.0000000000
       815       272  TIP3  H1            8.4196414524       -8.3636095706        5.8657366707  CLST         272          1.0000000000
       816       272  TIP3  H2            9.4726315515       -7.6984396277        4.9425823836  CLST         272          1.0000000000
       817       273  TIP3  OH2         -13.8833874248        9.3655427229        3.2477036653  CLST         273          1.0000000000
       818       273  TIP3  H1          -14.4424522605        9.7808708819        3.9644178990  CLST         273          1.0000000000
       819       273  TIP3  H2          -13.2621593444        8.9219746353        3.8606069299  CLST         273          1.0000000000
       820       274  TIP3  OH2           4.3303067363       12.4475686903       -4.0863254708  CLST         274          1.0000000000
       821       274  TIP3  H1            4.1910526786       11.7075055915       -3.3799174817  CLST         274          1.0000000000
       822       274  TIP3  H2            3.8526899689       13.1642658761       -3.6344875338  CLST         274          1.0000000000
       823       275  TIP3  OH2           8.6645561699      -11.3630655974        5.9072067821  CLST         275          1.0000000000
       824       275  TIP3  H1            9.1722882219      -10.5231923451        5.7921523341  CLST         275          1.0000000000
       825       275  TIP3  H2            9.3248390779      -12.0728435759        5.6466482698  CLST         275          1.0000000000
       826       276  TIP3  OH2          -0.1999015909       -5.7879685854        1.4693775000  CLST         276          1.0000000000
       827       276  TIP3  H1           -0.8472523955       -5.8462501875        0.5732956354  CLST         276          1.0000000000
       828       276  TIP3  H2           -0.7418644590       -5.0903047692        1.9080972139  CLST         276          1.0000000000
       829       277  TIP3  OH2           6.4743768871        6.3812676418       -6.9643057511  CLST         277          1.0000000000
       830       277  TIP3  H1            5.6251981300        5.9827068686       -7.5044711904  CLST         277          1.0000000000
       831       277  TIP3  H2            6.5318892176        7.1562882129       -7.5515009071  CLST         277          1.0000000000
       832       278  TIP3  OH2          -0.6913283932       -7.5531624552        3.4421720590  CLST         278          1.0000000000
       833       278  TIP3  H1           -0.3879644217       -6.9160712608        2.7020434654  CLST         278          1.0000000000
       834       278  TIP3  H2           -1.0121417486       -6.7904984859        4.0089270601  CLST         278          1.0000000000
       835       279  TIP3  OH2         -13.5223902588        6.4999879708        0.4451170064  CLST         279          1.0000000000
       836       279  TIP3  H1          -13.5921740798        5.5440266184        0.2527276015  CLST         279          1.0000000000
       837       279  TIP3  H2          -12.5562317112        6.5239593383        0.6979367070  CLST         279          1.0000000000
       838       280  TIP3  OH2          -3.3745589857      -10.0783872531        5.5179259285  CLST         280          1.0000000000
       839       280  TIP3  H1           -2.9725721100       -9.4143778179        6.1297438322  CLST         280          1.0000000000
       840       280  TIP3  H2           -3.8963275402       -9.4330561856        4.9699303832  CLST         280          1.0000000000
       841       281  TIP3  OH2           8.1254223799        7.7050449286      -10.7938190376  CLST         281          1.0000000000
       842       281  TIP3  H1            8.5845814530        8.6108249242      -10.5470949934  CLST         281          1.0000000000
       843       281  TIP3  H2            7.1660425430        8.0851517711      -10.7143327029  CLST         281          1.0000000000
       844       282  TIP3  OH2          -7.9241720959      -11.8228741871       10.0157010657  CLST         282          1.0000000000
       845       282  TIP3  H1           -8.6251606658      -11.3935198807        9.4936988843  CLST         282          1.0000000000
       846       282  TIP3  H2           -7.3869375376      -12.3433208157        9.3469657968  CLST         282          1.0000000000
       847       283  TIP3  OH2           4.6286717581        8.6182876490       -4.7087816954  CLST         283          1.0000000000
       848       283  TIP3  H1            4.7691996487        9.5973428685       -4.9246777964  CLST         283          1.0000000000
       849       283  TIP3  H2            4.0514718735        8.6627733548       -3.9157484841  CLST         283          1.0000000000
       850       284  TIP3  OH2          11.9957679487        8.4476459693       -1.4530219870  CLST         284          1.0000000000
       851       284  TIP3  H1           11.9285564667        7.5932920155       -1.9983969113  CLST         284          1.0000000000
       852       284  TIP3  H2           11.0142374906        8.6499891973       -1.6473881558  CLST         284          1.0000000000
       853       285  TIP3  OH2          -5.4279874301        2.1478433795        8.9233437204  CLST         285          1.0000000000
       854       285  TIP3  H1           -4.7639830850        1.9120030901        8.2854019475  CLST         285          1.0000000000
       855       285  TIP3  H2           -4.8611703464        2.9116571218        9.3734551390  CLST         285          1.0000000000
       856       286  TIP3  OH2           2.9469656502        5.8652992868       -0.5194414925  CLST         286          1.0000000000
       857       286  TIP3  H1            2.1887842105        5.5514202629        0.0272860323  CLST         286          1.0000000000
       858       286  TIP3  H2            3.6102867167        5.7282975692        0.2364104440  CLST         286          1.0000000000
       859       287  TIP3  OH2          -4.3517990727        9.1666526377       11.1573021512  CLST         287          1.0000000000
       860       287  TIP3  H1           -4.7729690110       10.0746380472       11.6643821670  CLST         287          1.0000000000
       861       287  TIP3  H2           -5.2734871240        8.8729613843       10.8077120043  CLST         287          1.0000000000
       862       288  TIP3  OH2           5.4379464455        3.6449784663       -9.1686497868  CLST         288          1.0000000000
       863       288  TIP3  H1            5.5004334867        2.7428844581      -10.2238567619  CLST         288          1.0000000000
       864       288  TIP3  H2            6.0748339342        3.9971102645      -10.0584729025  CLST         288          1.0000000000
       865       289  TIP3  OH2          -7.0671972727       -5.1674216298       -8.3774067771  CLST         289          1.0000000000
       866       289  TIP3  H1           -7.8489814345       -4.5287108026       -8.2341407867  CLST         289          1.0000000000
       867       289  TIP3  H2           -6.3811450767       -4.8286506672       -7.7629264842  CLST         289          1.0000000000
       868       290  TIP3  OH2           2.1679173657      -12.0380952806       11.2898907738  CLST         290          1.0000000000
       869       290  TIP3  H1            2.8624721995      -12.6857634502       11.0620574532  CLST         290          1.0000000000
       870       290  TIP3  H2            2.7729963782      -11.3938239425       11.7922100358  CLST         290          1.0000000000
       871       291  TIP3  OH2         -10.2054591670       -3.4787321263        2.9384555075  CLST         291          1.0000000000
       872       291  TIP3  H1          -10.9567708742       -4.0271343776        3.1969612963  CLST         291          1.0000000000
       873       291  TIP3  H2          -10.0882376586       -3.8232331711        2.0493463412  CLST         291          1.0000000000
       874       292  TIP3  OH2          12.1708633655        3.5510327010       -4.7603535911  CLST         292          1.0000000000
       875       292  TIP3  H1           11.3579060762        3.0183993808       -4.7110124470  CLST         292          1.0000000000
       876       292  TIP3  H2           11.8700556676        4.2147807147       -5.4363980762  CLST         292          1.0000000000
       877       293  TIP3  OH2           8.9050567104       10.7596571770       11.0429232141  CLST         293          1.0000000000
       878       293  TIP3  H1            8.5584432073       11.5206084832       11.4619323316  CLST         293          1.0000000000
       879       293  TIP3  H2            9.1116359075       11.2518170591       10.1812126164  CLST         293          1.0000000000
       880       294  TIP3  OH2           4.1749914373        4.5545276095       -2.3234682478  CLST         294          1.0000000000
       881       294  TIP3  H1            3.6959698418        5.1694613929       -1.6982705466  CLST         294          1.0000000000
       882       294  TIP3  H2            4.4793778546        5.0978590242       -3.0591172079  CLST         294          1.0000000000
       883       295  TIP3  OH2          -2.4977685699      -13.5005797405       -8.7750202130  CLST         295          1.0000000000
       884       295  TIP3  H1           -3.2443532730      -13.4838936194       -8.1555575773  CLST         295          1.0000000000
       885       295  TIP3  H2           -1.8057750225      -13.8097972190       -8.1712960261  CLST         295          1.0000000000
       886       296  TIP3  OH2          -1.6260536524       11.4311932249      -13.0665884599  CLST         296          1.0000000000
       887       296  TIP3  H1           -0.6761828399       11.2665750728      -13.1545931230  CLST         296          1.0000000000
       888       296  TIP3  H2           -1.6360450572       11.0172318810      -12.1256381162  CLST         296          1.0000000000
       889       297  TIP3  OH2           8.0885821706       -0.4115695735       11.4052177342  CLST         297          1.0000000000
       890       297  TIP3  H1            8.7033249813       -1.0979623190       11.0227918225  CLST         297          1.0000000000
       891       297  TIP3  H2            7.2664859222       -1.0008820166       11.4594318481  CLST         297          1.0000000000
       892       298  TIP3  OH2           0.8196543168       -1.1763236427       -7.5771172424  CLST         298          1.0000000000
       893       298  TIP3  H1            1.3138575678       -0.5802267109       -8.2052426763  CLST         298          1.0000000000
       894       298  TIP3  H2            0.7056798605       -1.9059268396       -8.2927929554  CLST         298          1.0000000000
       895       299  TIP3  OH2           2.9700629084       10.2060462878       12.6021663820  CLST         299          1.0000000000
       896       299  TIP3  H1            2.2324117701       10.6686120978       12.1004669370  CLST         299          1.0000000000
       897       299  TIP3  H2            2.3103417540        9.6816060204       13.0595448012  CLST         299          1.0000000000
       898       300  TIP3  OH2         -10.8907900777        5.2338555394       -3.7394457012  CLST         300          1.0000000000
       899       300  TIP3  H1          -10.6954153670        5.6609834616       -4.6150962100  CLST         300          1.0000000000
       900       300  TIP3  H2          -10.9575431259        6.1451089524       -3.2941263676  CLST         300          1.0000000000
       901       301  TIP3  OH2           9.5034215377       -8.4963433458       11.1779286934  CLST         301          1.0000000000
       902       301  TIP3  H1            9.4616171131       -8.0993985798       12.0846088899  CLST         301          1.0000000000
       903       301  TIP3  H2            9.5996893726       -9.4989960366       11.2299293004  CLST         301          1.0000000000
       904       302  TIP3  OH2           7.9245687201       12.8637022014        5.5385593072  CLST         302          1.0000000000
       905       302  TIP3  H1            7.4226008171       13.5961265413        5.1268943019  CLST         302          1.0000000000
       906       302  TIP3  H2            7.1692256305       12.2178927729        5.6324207727  CLST         302          1.0000000000
       907       303  TIP3  OH2         -11.0026920517        1.1799765000       -2.0333139309  CLST         303          1.0000000000
       908       303  TIP3  H1          -10.0869638348        0.8612223924       -1.7667836983  CLST         303          1.0000000000
       909       303  TIP3  H2          -11.1007469685        0.6150630284       -2.8821862939  CLST         303          1.0000000000
       910       304  TIP3  OH2          -7.9807073729        1.1035498214      -14.9556684356  CLST         304          1.0000000000
       911       304  TIP3  H1           -7.6081821464        0.2692612351      -14.5149253865  CLST         304          1.0000000000
       912       304  TIP3  H2           -7.1778154320        1.5124218503      -15.3058690491  CLST         304          1.0000000000
       913       305  TIP3  OH2           3.3955578760       -4.0882104438       14.0406523791  CLST         305          1.0000000000
       914       305  TIP3  H1            4.2991010944       -4.3846754535       13.8813715298  CLST         305          1.0000000000
       915       305  TIP3  H2            3.2509441228       -3.2327868345       13.7801207716  CLST         305          1.0000000000
       916       306  TIP3  OH2           8.7569787545      -11.9722875009      -11.3320795513  CLST         306          1.0000000000
       917       306  TIP3  H1            9.4381152022      -11.8317711589      -12.0701307975  CLST         306          1.0000000000
       918       306  TIP3  H2            9.1628834772      -12.7550931429      -10.9809216081  CLST         306          1.0000000000
       919       307  TIP3  OH2           9.3555938025        7.8419097045       -7.4718439455  CLST         307          1.0000000000
       920       307  TIP3  H1            8.4808603579        8.2490495718       -7.5073502014  CLST         307          1.0000000000
       921       307  TIP3  H2            9.7022012356        8.0915237965       -6.5738347636  CLST         307          1.0000000000
       922       308  TIP3  OH2         -11.0008475884       -4.7637309497        8.6725591039  CLST         308          1.0000000000
       923       308  TIP3  H1          -11.0530322545       -5.4977315788        9.3725158462  CLST         308          1.0000000000
       924       308  TIP3  H2          -10.0412642228       -4.5810940314        8.8553610833  CLST         308          1.0000000000
       925       309  TIP3  OH2          -2.0739937207       -0.4647821131        5.4889253755  CLST         309          1.0000000000
       926       309  TIP3  H1           -2.9268520030       -0.7492219446        5.0451101135  CLST         309          1.0000000000
       927       309  TIP3  H2           -2.1467559628       -1.0843388708        6.2855463127  CLST         309          1.0000000000
       928       310  TIP3  OH2          -4.9489764689       -0.4519664872        7.1438941272  CLST         310          1.0000000000
       929       310  TIP3  H1           -4.1524930180        0.0780499257        7.4331546892  CLST         310          1.0000000000
       930       310  TIP3  H2           -5.0337485865       -1.1470776521        7.8452656650  CLST         310          1.0000000000
       931       311  TIP3  OH2          -7.3169176129        8.4449899767      -12.3852529778  CLST         311          1.0000000000
       932       311  TIP3  H1           -6.8053012333        7.7194314475      -12.8409012191  CLST         311          1.0000000000
       933       311  TIP3  H2           -7.2306128024        8.1003439430      -11.5349623466  CLST         311          1.0000000000
       934       312  TIP3  OH2           6.4286371564       -0.9104154215       -6.3264488214  CLST         312          1.0000000000
       935       312  TIP3  H1            6.2394206799       -0.0404186259       -5.9787098270  CLST         312          1.0000000000
       936       312  TIP3  H2            6.3048024472       -1.4525916532       -5.5241001402  CLST         312          1.0000000000
       937       313  TIP3  OH2          -9.0352528811      -10.4999408702        7.1132433018  CLST         313          1.0000000000
       938       313  TIP3  H1           -8.4225878348       -9.7042134697        7.0257662199  CLST         313          1.0000000000
       939       313  TIP3  H2           -9.3776344959      -10.4876481238        6.1843578981  CLST         313          1.0000000000
       940       314  TIP3  OH2          -1.4294189326      -12.1621701009      -10.7164654975  CLST         314          1.0000000000
       941       314  TIP3  H1           -1.4129666860      -11.3244953934      -10.2033382906  CLST         314          1.0000000000
       942       314  TIP3  H2           -1.8564032705      -12.7368394272       -9.9569027869  CLST         314          1.0000000000
       943       315  TIP3  OH2          -1.3970654943       -0.6877753887       -6.4559613563  CLST         315          1.0000000000
       944       315  TIP3  H1           -0.5054281181       -0.9158623004       -6.8237197544  CLST         315          1.0000000000
       945       315  TIP3  H2           -1.2256657555       -0.2541190327       -5.5889548304  CLST         315          1.0000000000
       946       316  TIP3  OH2         -13.1705639550       -3.9423561201       -5.4541656543  CLST         316          1.0000000000
       947       316  TIP3  H1          -12.3845293917       -4.4413622157       -5.8571234998  CLST         316          1.0000000000
       948       316  TIP3  H2          -12.8493304595       -3.0589733749       -5.6943865552  CLST         316          1.0000000000
       949       317  TIP3  OH2          -6.1727800061        0.1202431891       -3.7873044363  CLST         317          1.0000000000
       950       317  TIP3  H1           -5.3562643990        0.0922591811       -3.1665258646  CLST         317          1.0000000000
       951       317  TIP3  H2           -6.7402736990        0.5066983114       -3.0747322430  CLST         317          1.0000000000
       952       318  TIP3  OH2          -3.9128249109       -9.5607991135       -9.3054334198  CLST         318          1.0000000000
       953       318  TIP3  H1           -4.2189858836       -9.7886725443       -8.3702127506  CLST         318          1.0000000000
       954       318  TIP3  H2           -2.9402433458       -9.6796038872       -9.1329012896  CLST         318          1.0000000000
       955       319  TIP3  OH2           5.7869703011       10.7195166529        8.6373136064  CLST         319          1.0000000000
       956       319  TIP3  H1            6.5896037149       10.1941325104        8.3647402775  CLST         319          1.0000000000
       957       319  TIP3  H2            6.1727426017       11.3738776555        9.2185792329  CLST         319          1.0000000000
       958       320  TIP3  OH2         -10.6859095332        1.0142510642      -14.5079187726  CLST         320          1.0000000000
       959       320  TIP3  H1           -9.7887748629        1.2382229090      -14.8612646658  CLST         320          1.0000000000
       960       320  TIP3  H2          -10.3256153213        0.2222933685      -14.0526698821  CLST         320          1.0000000000
       961       321  TIP3  OH2          -9.6323107425       10.1714987817       -9.8081704410  CLST         321          1.0000000000
       962       321  TIP3  H1          -10.6780097180       10.0324858726      -10.2352068813  CLST         321          1.0000000000
       963       321  TIP3  H2           -9.7273839269       10.0743083476      -10.9901851938  CLST         321          1.0000000000
       964       322  TIP3  OH2         -12.6192764566       -1.8378765693       -2.2917538093  CLST         322          1.0000000000
       965       322  TIP3  H1          -12.2754247056       -1.3161865000       -3.0572616543  CLST         322          1.0000000000
       966       322  TIP3  H2          -11.7266373477       -1.8926937559       -1.8273194973  CLST         322          1.0000000000
       967       323  TIP3  OH2          -1.0644991483        4.0291108017        4.3524699116  CLST         323          1.0000000000
       968       323  TIP3  H1           -0.9034184985        3.0377238989        4.4884937525  CLST         323          1.0000000000
       969       323  TIP3  H2           -1.0012151609        4.0037268038        3.3771442709  CLST         323          1.0000000000
       970       324  TIP3  OH2         -11.0615427907        6.1720982911        1.5025226700  CLST         324          1.0000000000
       971       324  TIP3  H1          -11.1530060105        5.2994416101        1.9604464800  CLST         324          1.0000000000
       972       324  TIP3  H2          -10.4046746316        6.5981416864        2.1331938643  CLST         324          1.0000000000
       973       325  TIP3  OH2          -4.7257198112        0.7823908213        3.5465040945  CLST         325          1.0000000000
       974       325  TIP3  H1           -5.7125569073        0.7443876918        3.4514545623  CLST         325          1.0000000000
       975       325  TIP3  H2           -4.6584497656        1.7040119888        3.7919877641  CLST         325          1.0000000000
       976       326  TIP3  OH2           8.9840997410        8.8069598954       -2.7062928098  CLST         326          1.0000000000
       977       326  TIP3  H1            8.8798044629        7.8368856278       -2.4335570735  CLST         326          1.0000000000
       978       326  TIP3  H2            8.3125971772        8.8325534736       -3.3982448440  CLST         326          1.0000000000
       979       327  TIP3  OH2          10.4362206538       -3.7946661560      -13.1501298308  CLST         327          1.0000000000
       980       327  TIP3  H1           10.5654328079       -3.3435541845      -13.8736420602  CLST         327          1.0000000000
       981       327  TIP3  H2           10.1984418555       -3.1562903522      -12.4279171676  CLST         327          1.0000000000
       982       328  TIP3  OH2           2.2237817214        7.0211169100       -9.6421036644  CLST         328          1.0000000000
       983       328  TIP3  H1            2.5473640893        6.1553655900       -9.2033932646  CLST         328          1.0000000000
       984       328  TIP3  H2            3.2274065044        7.1876694991       -9.7721418888  CLST         328          1.0000000000
       985       329  TIP3  OH2           1.5222313606      -11.6935108593       -2.2711668942  CLST         329          1.0000000000
       986       329  TIP3  H1            1.6678527755      -10.7613175172       -2.6504394857  CLST         329          1.0000000000
       987       329  TIP3  H2            2.3539715747      -11.6786409011       -1.7057288560  CLST         329          1.0000000000
       988       330  TIP3  OH2          -9.4183858874       -0.9790626250        3.3463508554  CLST         330          1.0000000000
       989       330  TIP3  H1           -9.7543462718       -1.9227064035        3.2179870471  CLST         330          1.0000000000
       990       330  TIP3  H2          -10.2204467909       -0.5802346190        3.7546533094  CLST         330          1.0000000000
       991       331  TIP3  OH2          12.0757774546        9.6884315500       -8.9494850033  CLST         331          1.0000000000
       992       331  TIP3  H1           12.8234060755        9.8592171873       -9.5138498297  CLST         331          1.0000000000
       993       331  TIP3  H2           12.1420804778        8.7577965475       -8.7743079043  CLST         331          1.0000000000
       994       332  TIP3  OH2          11.3438869162       -1.3054825695       -4.6184589394  CLST         332          1.0000000000
       995       332  TIP3  H1           12.5660622485       -1.3399368707       -5.0354878802  CLST         332          1.0000000000
       996       332  TIP3  H2           12.7492602341       -0.5788308974       -4.2342049380  CLST         332          1.0000000000
       997       333  TIP3  OH2          10.6456075589      -14.2491530184        7.9884976730  CLST         333          1.0000000000
       998       333  TIP3  H1            9.7457837022      -13.9762946943        8.0618190203  CLST         333          1.0000000000
       999       333  TIP3  H2           10.7316259435      -14.2643024304        7.0559698496  CLST         333          1.0000000000
      1000       334  TIP3  OH2         -10.6341843878       -9.7241326303        9.0659663489  CLST         334          1.0000000000
      1001       334  TIP3  H1          -11.4965835593      -10.0148421382        8.6572883893  CLST         334          1.0000000000
      1002       334  TIP3  H2          -10.0418512419      -10.1099239653        8.3428810680  CLST         334          1.0000000000
      1003       335  TIP3  OH2           6.8827122769      -10.0002781309        1.4797340029  CLST         335          1.0000000000
      1004       335  TIP3  H1            6.8319376746      -10.2276767499        2.4346591281  CLST         335          1.0000000000
      1005       335  TIP3  H2            5.9236680005       -9.9031363753        1.2814217434  CLST         335          1.0000000000
      1006       336  TIP3  OH2          -9.1695408334       -3.7993602753       -3.4151796706  CLST         336          1.0000000000
      1007       336  TIP3  H1           -9.1417934124       -4.5076233114       -4.0793829832  CLST         336          1.0000000000
      1008       336  TIP3  H2           -8.8147641544       -3.1400587443       -4.0550020463  CLST         336          1.0000000000
      1009       337  TIP3  OH2          -1.5329120529       -4.8283652313        8.0342914238  CLST         337          1.0000000000
      1010       337  TIP3  H1           -1.2832179989       -4.6321675715        9.0665888128  CLST         337          1.0000000000
      1011       337  TIP3  H2           -1.8116866195       -3.8485405967        7.9518538813  CLST         337          1.0000000000
      1012       338  TIP3  OH2          -0.5212245974        2.6653562151       10.6418795955  CLST         338          1.0000000000
      1013       338  TIP3  H1           -0.5965514312        2.4944429264        9.6475680634  CLST         338          1.0000000000
      1014       338  TIP3  H2            0.0462829106        1.9265680986       10.8660063508  CLST         338          1.0000000000
      1015       339  TIP3  OH2           7.8859277030        7.9902360019        2.7630779413  CLST         339          1.0000000000
      1016       339  TIP3  H1            7.5960933976        8.6552209827        3.4805604945  CLST         339          1.0000000000
      1017       339  TIP3  H2            7.1841432543        8.0646811548        2.0756426759  CLST         339          1.0000000000
      1018       340  TIP3  OH2          -4.5965707305      -11.5299945294      -11.2380588307  CLST         340          1.0000000000
      1019       340  TIP3  H1           -4.3292705396      -10.8494494007      -10.5961362196  CLST         340          1.0000000000
      1020       340  TIP3  H2           -4.0592624904      -12.2511185730      -10.8642435043  CLST         340          1.0000000000
      1021       341  TIP3  OH2          -7.0730440255        4.9382613202        9.1316162707  CLST         341          1.0000000000
      1022       341  TIP3  H1           -6.3007227261        4.7328168130        9.8020979554  CLST         341          1.0000000000
      1023       341  TIP3  H2           -7.3144703065        3.9505128184        8.9484924215  CLST         341          1.0000000000
      1024       342  TIP3  OH2          -4.4412782782      -11.1208356567       13.7125858257  CLST         342          1.0000000000
      1025       342  TIP3  H1           -5.7483934033      -11.1306272043       12.6188844859  CLST         342          1.0000000000
      1026       342  TIP3  H2           -4.9121828883      -11.1871524712       14.6675397754  CLST         342          1.0000000000
      1027       343  TIP3  OH2           1.2759994229       -8.9748934824       -9.8084908233  CLST         343          1.0000000000
      1028       343  TIP3  H1            1.1926381397       -8.0766246850      -10.2322230815  CLST         343          1.0000000000
      1029       343  TIP3  H2            1.7424006072       -9.4592214693      -10.5408063273  CLST         343          1.0000000000
      1030       344  TIP3  OH2           5.3849696048       -4.0173711755        6.5353952740  CLST         344          1.0000000000
      1031       344  TIP3  H1            4.7301680356       -4.4955274227        7.1163383615  CLST         344          1.0000000000
      1032       344  TIP3  H2            5.9452506433       -4.7029432052        6.1259657997  CLST         344          1.0000000000
      1033       345  TIP3  OH2          13.1239037346        7.2106495079        8.8900602424  CLST         345          1.0000000000
      1034       345  TIP3  H1           12.7094273617        6.5470951730        8.3713002854  CLST         345          1.0000000000
      1035       345  TIP3  H2           12.4985464781        7.3643999410        9.6582751690  CLST         345          1.0000000000
      1036       346  TIP3  OH2           9.4270102905        9.4811204390        1.0162160609  CLST         346          1.0000000000
      1037       346  TIP3  H1            9.7391822928       10.2872723074        1.5739944843  CLST         346          1.0000000000
      1038       346  TIP3  H2            9.0404498017        8.8639694642        1.6854363791  CLST         346          1.0000000000
      1039       347  TIP3  OH2          -4.9164017517        3.0669458325       -9.7880560156  CLST         347          1.0000000000
      1040       347  TIP3  H1           -5.7033219831        3.3865975770       -9.2846516616  CLST         347          1.0000000000
      1041       347  TIP3  H2           -4.2301063437        3.3214507547       -9.1099441848  CLST         347          1.0000000000
      1042       348  TIP3  OH2          -1.0915094806        6.1888242398        5.8167317421  CLST         348          1.0000000000
      1043       348  TIP3  H1           -1.3297617418        5.2987201807        5.3250147882  CLST         348          1.0000000000
      1044       348  TIP3  H2           -0.6265867806        6.5228851230        4.9969848762  CLST         348          1.0000000000
      1045       349  TIP3  OH2          -4.1879836410        5.1521600842       -2.4707690056  CLST         349          1.0000000000
      1046       349  TIP3  H1           -3.7872046354        4.7363645920       -3.2623845187  CLST         349          1.0000000000
      1047       349  TIP3  H2           -3.5403391572        5.9265649218       -2.5702963923  CLST         349          1.0000000000
      1048       350  TIP3  OH2          -2.7849040824        8.8964635705        5.0546088227  CLST         350          1.0000000000
      1049       350  TIP3  H1           -3.3683058156        8.5703775137        4.2913753507  CLST         350          1.0000000000
      1050       350  TIP3  H2           -2.3885675551        8.0942834430        5.3996109984  CLST         350          1.0000000000
      1051       351  TIP3  OH2           4.9395015792       -7.5428467192       -7.5702998165  CLST         351          1.0000000000
      1052       351  TIP3  H1            4.1933970473       -8.2112244979       -7.5581451364  CLST         351          1.0000000000
      1053       351  TIP3  H2            4.9819020744       -7.4281160228       -8.5587141299  CLST         351          1.0000000000
      1054       352  TIP3  OH2         -10.2938327626      -11.0610859314        1.7192759505  CLST         352          1.0000000000
      1055       352  TIP3  H1           -9.3173105567      -11.1482224759        1.6016885026  CLST         352          1.0000000000
      1056       352  TIP3  H2          -10.5025256809      -10.2336009186        1.2655618049  CLST         352          1.0000000000
      1057       353  TIP3  OH2          10.7966967460       -8.1876196277       -8.6398104883  CLST         353          1.0000000000
      1058       353  TIP3  H1            9.8183842210       -8.3546745985       -8.8298669709  CLST         353          1.0000000000
      1059       353  TIP3  H2           10.9616647786       -8.3774038557       -7.7020538426  CLST         353          1.0000000000
      1060       354  TIP3  OH2           6.8062362930      -10.5767608097        4.0623643433  CLST         354          1.0000000000
      1061       354  TIP3  H1            7.3230964213      -10.9865372876        4.7983290893  CLST         354          1.0000000000
      1062       354  TIP3  H2            6.6306821643       -9.7260694602        4.5895389519  CLST         354          1.0000000000
      1063       355  TIP3  OH2          -7.3057176308        8.9762450862       -8.9816785774  CLST         355          1.0000000000
      1064       355  TIP3  H1           -6.8175118568        9.8276661239       -8.7819225159  CLST         355          1.0000000000
      1065       355  TIP3  H2           -8.1854432093        9.4323240561       -9.3842037576  CLST         355          1.0000000000
      1066       356  TIP3  OH2          12.5761634590        0.8946148105       -2.1057379262  CLST         356          1.0000000000
      1067       356  TIP3  H1           11.6406345603        0.6026823345       -2.4281185669  CLST         356          1.0000000000
      1068       356  TIP3  H2           12.6389470859        0.5056753795       -1.2195450736  CLST         356          1.0000000000
      1069       357  TIP3  OH2          -0.4850355807       -0.4722818271       -2.0546213825  CLST         357          1.0000000000
      1070       357  TIP3  H1            0.3090554310       -0.9688004580       -2.4439782467  CLST         357          1.0000000000
      1071       357  TIP3  H2           -0.8153314587       -0.0910628196       -2.9018317051  CLST         357          1.0000000000
      1072       358  TIP3  OH2          -5.6053174933        7.0694096667       -7.4729735180  CLST         358          1.0000000000
      1073       358  TIP3  H1           -6.2259045758        7.4189345994       -8.1341054865  CLST         358          1.0000000000
      1074       358  TIP3  H2           -6.2520346171        6.5372031937       -6.9182449771  CLST         358          1.0000000000
      1075       359  TIP3  OH2          -5.1540349035       12.0203749963        6.0918304426  CLST         359          1.0000000000
      1076       359  TIP3  H1           -5.3247035402       11.8301489384        5.1416696000  CLST         359          1.0000000000
      1077       359  TIP3  H2           -4.1719552242       12.1044942677        6.0103250999  CLST         359          1.0000000000
      1078       360  TIP3  OH2          -6.9327964386        5.5964881442       -3.3163181533  CLST         360          1.0000000000
      1079       360  TIP3  H1           -7.2244467726        6.2960761487       -2.7013058847  CLST         360          1.0000000000
      1080       360  TIP3  H2           -5.9812826520        5.5201028356       -3.0186157491  CLST         360          1.0000000000
      1081       361  TIP3  OH2          -1.6758713335       -1.0198876065       10.0161339406  CLST         361          1.0000000000
      1082       361  TIP3  H1           -1.4741178541       -0.4609459276       10.8154036158  CLST         361          1.0000000000
      1083       361  TIP3  H2           -1.7293353955       -1.9071305183       10.4963015811  CLST         361          1.0000000000
      1084       362  TIP3  OH2         -10.5163163172        3.0277838904        0.4588448946  CLST         362          1.0000000000
      1085       362  TIP3  H1          -10.4398161694        3.6278662480       -0.3302238769  CLST         362          1.0000000000
      1086       362  TIP3  H2          -11.2075118417        2.4044213324        0.1645291750  CLST         362          1.0000000000
      1087       363  TIP3  OH2          10.6031149049        2.4224462672       10.2154920277  CLST         363          1.0000000000
      1088       363  TIP3  H1           10.7193385640        1.2287604134        9.8906595431  CLST         363          1.0000000000
      1089       363  TIP3  H2           11.4072881074        2.5592209079       10.3276504476  CLST         363          1.0000000000
      1090       364  TIP3  OH2           7.6983632379       -5.7410071022       -6.2983988641  CLST         364          1.0000000000
      1091       364  TIP3  H1            6.9666304693       -5.2573653768       -6.7037854710  CLST         364          1.0000000000
      1092       364  TIP3  H2            8.2971343320       -5.7525966512       -7.1329038720  CLST         364          1.0000000000
      1093       365  TIP3  OH2          -6.1892114728       -6.6315847117        2.6158110269  CLST         365          1.0000000000
      1094       365  TIP3  H1           -6.8488850273       -5.9074277119        2.5781595450  CLST         365          1.0000000000
      1095       365  TIP3  H2           -6.9060186098       -7.3157842588        2.8905424159  CLST         365          1.0000000000
      1096       366  TIP3  OH2           1.8135278591       -1.3541479091       -2.9809413681  CLST         366          1.0000000000
      1097       366  TIP3  H1            2.7252239510       -1.4160849673       -2.6032980180  CLST         366          1.0000000000
      1098       366  TIP3  H2            2.0659084490       -1.0217851483       -3.8651045554  CLST         366          1.0000000000
      1099       367  TIP3  OH2          -5.2958287885       11.6430009917       12.3334816986  CLST         367          1.0000000000
      1100       367  TIP3  H1           -6.4241471672       11.8314315138       12.2477421858  CLST         367          1.0000000000
      1101       367  TIP3  H2           -6.1513393235       12.2281345355       13.2370129556  CLST         367          1.0000000000
      1102       368  TIP3  OH2          -2.7976851818        6.4835642036        1.2804380182  CLST         368          1.0000000000
      1103       368  TIP3  H1           -2.8818019217        7.1395656978        0.5389371358  CLST         368          1.0000000000
      1104       368  TIP3  H2           -3.0862777840        6.9435665720        2.0683250248  CLST         368          1.0000000000
      1105       369  TIP3  OH2         -11.7276232749       -1.8364763377       -6.3052914138  CLST         369          1.0000000000
      1106       369  TIP3  H1          -10.8106424177       -2.1646205748       -6.4389057376  CLST         369          1.0000000000
      1107       369  TIP3  H2          -11.9803017098       -1.9524565587       -7.2662291983  CLST         369          1.0000000000
      1108       370  TIP3  OH2         -12.4183511625        5.0891357763      -11.9427502201  CLST         370          1.0000000000
      1109       370  TIP3  H1          -12.8039653517        4.5164821689      -12.5986595869  CLST         370          1.0000000000
      1110       370  TIP3  H2          -13.0585476363        5.1781207415      -11.2316407282  CLST         370          1.0000000000
      1111       371  TIP3  OH2           2.2706250356        7.9260549179        5.8381864477  CLST         371          1.0000000000
      1112       371  TIP3  H1            2.2204673284        7.5562475360        6.7465144760  CLST         371          1.0000000000
      1113       371  TIP3  H2            3.0335010479        8.5492535311        5.9520996266  CLST         371          1.0000000000
      1114       372  TIP3  OH2           8.0820281192       -7.4017826525        9.1093482083  CLST         372          1.0000000000
      1115       372  TIP3  H1            8.6519502555       -7.3913451614        8.3209224007  CLST         372          1.0000000000
      1116       372  TIP3  H2            8.6557929978       -7.8585202112        9.7749628180  CLST         372          1.0000000000
      1117       373  TIP3  OH2          11.0594839554       -0.2448946180        6.5286234532  CLST         373          1.0000000000
      1118       373  TIP3  H1           11.2077825561        0.5116816589        5.9053803658  CLST         373          1.0000000000
      1119       373  TIP3  H2           10.2215780704       -0.5233834309        6.0728444841  CLST         373          1.0000000000
      1120       374  TIP3  OH2          -9.4406627147        4.6274429846      -12.2436150650  CLST         374          1.0000000000
      1121       374  TIP3  H1           -9.8886631611        5.5797511631      -11.8625346241  CLST         374          1.0000000000
      1122       374  TIP3  H2          -11.1892276600        5.7026255058      -11.8843975187  CLST         374          1.0000000000
      1123       375  TIP3  OH2           9.8278403817       -5.5189569329       -2.6630937793  CLST         375          1.0000000000
      1124       375  TIP3  H1           10.1365196399       -5.1856211996       -3.5238076384  CLST         375          1.0000000000
      1125       375  TIP3  H2           10.0401169270       -6.4750591296       -2.8185766816  CLST         375          1.0000000000
      1126       376  TIP3  OH2          -2.3317994319      -11.1726876887       12.1550229729  CLST         376          1.0000000000
      1127       376  TIP3  H1           -3.0069495192      -11.1890322011       12.9224943928  CLST         376          1.0000000000
      1128       376  TIP3  H2           -3.0019884330      -11.2823958616       11.4493519834  CLST         376          1.0000000000
      1129       377  TIP3  OH2         -10.1942353164       12.7069856906       10.5781669494  CLST         377          1.0000000000
      1130       377  TIP3  H1           -9.2409443926       12.2442607993       10.7869202777  CLST         377          1.0000000000
      1131       377  TIP3  H2           -9.9577881131       13.1803561972        9.7774290503  CLST         377          1.0000000000
      1132       378  TIP3  OH2           2.1835841901       -7.8728149402        7.2554843870  CLST         378          1.0000000000
      1133       378  TIP3  H1            1.9699956926       -7.0096697614        6.8680030186  CLST         378          1.0000000000
      1134       378  TIP3  H2            1.5907858485       -8.0795090665        7.9603246765  CLST         378          1.0000000000
      1135       379  TIP3  OH2          -9.5092687072        9.4117728729       -1.2060959552  CLST         379          1.0000000000
      1136       379  TIP3  H1           -9.1033077184        9.6152864654       -0.3828865472  CLST         379          1.0000000000
      1137       379  TIP3  H2           -9.8456966282       10.2790955925       -1.5572100418  CLST         379          1.0000000000
      1138       380  TIP3  OH2           2.8761768254       -4.1738063210      -11.3723914798  CLST         380          1.0000000000
      1139       380  TIP3  H1            2.3498032599       -3.4002013242      -11.7619786296  CLST         380          1.0000000000
      1140       380  TIP3  H2            3.2959006958       -4.4770416059      -12.2102425410  CLST         380          1.0000000000
      1141       381  TIP3  OH2          10.2277298436        4.2337438957        3.4315370587  CLST         381          1.0000000000
      1142       381  TIP3  H1            9.5079868739        4.7999988855        3.8657700173  CLST         381          1.0000000000
      1143       381  TIP3  H2           10.8502180336        4.9957724292        3.2985127278  CLST         381          1.0000000000
      1144       382  TIP3  OH2           1.9725177063       -5.3847074862        5.8788076516  CLST         382          1.0000000000
      1145       382  TIP3  H1            2.6178065577       -5.2583886381        6.6209979122  CLST         382          1.0000000000
      1146       382  TIP3  H2            2.6149538096       -5.8337678527        5.2596070535  CLST         382          1.0000000000
      1147       383  TIP3  OH2          10.2065334527        8.8899859103        4.6821510755  CLST         383          1.0000000000
      1148       383  TIP3  H1            9.3529409170        9.1493281132        4.3378982685  CLST         383          1.0000000000
      1149       383  TIP3  H2           10.6595193585        9.7395142254        4.7875535569  CLST         383          1.0000000000
      1150       384  TIP3  OH2          -3.3403588177       -1.8185218324       -8.1347475256  CLST         384          1.0000000000
      1151       384  TIP3  H1           -2.7759015696       -2.6524092794       -8.2558823717  CLST         384          1.0000000000
      1152       384  TIP3  H2           -2.7081315806       -1.4867552549       -7.4533130694  CLST         384          1.0000000000
      1153       385  TIP3  OH2           3.7547108454      -11.7569582371       -0.7106832056  CLST         385          1.0000000000
      1154       385  TIP3  H1            4.6534477453      -12.1905194870       -0.6621799754  CLST         385          1.0000000000
      1155       385  TIP3  H2            3.8867686096      -10.9781354909       -0.1089627218  CLST         385          1.0000000000
      1156       386  TIP3  OH2          -4.2478740940        9.3410778081       -6.1215464248  CLST         386          1.0000000000
      1157       386  TIP3  H1           -4.6099494782        8.4613252166       -6.3998620767  CLST         386          1.0000000000
      1158       386  TIP3  H2           -4.1215211136        9.5925052891       -7.1007600603  CLST         386          1.0000000000
      1159       387  TIP3  OH2          -9.8339469693       10.6927488815        2.5537986459  CLST         387          1.0000000000
      1160       387  TIP3  H1          -10.6547936609       10.3783428201        2.1276142816  CLST         387          1.0000000000
      1161       387  TIP3  H2           -9.1078249744       10.3977615069        1.9756171116  CLST         387          1.0000000000
      1162       388  TIP3  OH2          -1.8096707796      -12.3123703325        6.0820541451  CLST         388          1.0000000000
      1163       388  TIP3  H1           -2.2506975089      -11.5407824318        5.6392329291  CLST         388          1.0000000000
      1164       388  TIP3  H2           -1.8118175845      -12.0653065655        7.0503884010  CLST         388          1.0000000000
      1165       389  TIP3  OH2          -8.2451370782        3.3303242114       -3.5993086164  CLST         389          1.0000000000
      1166       389  TIP3  H1           -7.7416371876        4.1888345749       -3.4802490252  CLST         389          1.0000000000
      1167       389  TIP3  H2           -9.1319193922        3.7452174496       -3.4729246495  CLST         389          1.0000000000
      1168       390  TIP3  OH2          -5.8533249731       -3.9944362435        4.5833900008  CLST         390          1.0000000000
      1169       390  TIP3  H1           -5.4447263021       -3.0885670789        4.5110602314  CLST         390          1.0000000000
      1170       390  TIP3  H2           -5.1655593781       -4.4873939068        4.1867394414  CLST         390          1.0000000000
      1171       391  TIP3  OH2          -8.6211177509       -8.9716727215       -6.1056351757  CLST         391          1.0000000000
      1172       391  TIP3  H1           -9.0348748591       -9.6601161965       -6.6741566743  CLST         391          1.0000000000
      1173       391  TIP3  H2           -7.8911029343       -9.5860210015       -5.7429901104  CLST         391          1.0000000000
      1174       392  TIP3  OH2           0.8833784241       -2.0969072074        9.9846706716  CLST         392          1.0000000000
      1175       392  TIP3  H1            0.5625242355       -2.9605712503       10.3889404177  CLST         392          1.0000000000
      1176       392  TIP3  H2            0.0082230769       -1.6065386113        9.9778062952  CLST         392          1.0000000000
      1177       393  TIP3  OH2          10.8368174256      -12.2391270632       -0.7278157047  CLST         393          1.0000000000
      1178       393  TIP3  H1           11.3720012863      -11.0536509678       -0.6473861295  CLST         393          1.0000000000
      1179       393  TIP3  H2           11.6912152953      -12.2759546963       -0.9245748613  CLST         393          1.0000000000
      1180       394  TIP3  OH2           0.2938295060       11.7486844113       -8.5330059955  CLST         394          1.0000000000
      1181       394  TIP3  H1            0.7400184596       12.0927642188       -7.6828564597  CLST         394          1.0000000000
      1182       394  TIP3  H2            0.7476646990       10.8456106163       -8.3954571018  CLST         394          1.0000000000
      1183       395  TIP3  OH2           6.8562461641        7.4488252942       -4.3978232835  CLST         395          1.0000000000
      1184       395  TIP3  H1            5.9721615491        7.9932166585       -4.4872416079  CLST         395          1.0000000000
      1185       395  TIP3  H2            6.7411795318        6.9661921527       -5.2202878556  CLST         395          1.0000000000
      1186       396  TIP3  OH2          -1.0615712470       -9.9827649004       -9.0920449727  CLST         396          1.0000000000
      1187       396  TIP3  H1           -1.0478102920      -10.0226241010       -8.0868020190  CLST         396          1.0000000000
      1188       396  TIP3  H2           -0.1410830447       -9.5831242485       -9.2747193308  CLST         396          1.0000000000
      1189       397  TIP3  OH2          11.4344406823        7.2706734738       -9.0286352374  CLST         397          1.0000000000
      1190       397  TIP3  H1           11.5516958701        6.5628049780       -8.3602106302  CLST         397          1.0000000000
      1191       397  TIP3  H2           10.4760022127        7.4733449000       -8.6736818979  CLST         397          1.0000000000
      1192       398  TIP3  OH2          10.6136491466        7.7770480132       -4.9772361281  CLST         398          1.0000000000
      1193       398  TIP3  H1           10.3232809428        8.4091744566       -4.2724649551  CLST         398          1.0000000000
      1194       398  TIP3  H2           11.2567152270        7.2752026351       -4.3887555484  CLST         398          1.0000000000
      1195       399  TIP3  OH2           1.8034776098       11.2495590076        4.9639076127  CLST         399          1.0000000000
      1196       399  TIP3  H1            0.9555534495       11.1200669550        5.4360067960  CLST         399          1.0000000000
      1197       399  TIP3  H2            2.4378728943       11.0328806412        5.7771899724  CLST         399          1.0000000000
      1198       400  TIP3  OH2           3.9867238774       -2.9689945702       -5.0598823817  CLST         400          1.0000000000
      1199       400  TIP3  H1            4.7530892121       -2.9595038953       -4.4585464241  CLST         400          1.0000000000
      1200       400  TIP3  H2            4.3733146292       -3.5460580572       -5.7649168946  CLST         400          1.0000000000
      1201       401  TIP3  OH2         -15.0320372825       10.1883151372        5.4654795068  CLST         401          1.0000000000
      1202       401  TIP3  H1          -14.4314724957       10.5946581601        6.1343144076  CLST         401          1.0000000000
      1203       401  TIP3  H2          -15.5566953745        9.6049505120        6.0817607788  CLST         401          1.0000000000
      1204       402  TIP3  OH2           1.7931546430       -1.7243863908       12.8319845892  CLST         402          1.0000000000
      1205       402  TIP3  H1            1.4601731758       -2.6675761641       12.9099038445  CLST         402          1.0000000000
      1206       402  TIP3  H2            1.8641106594       -1.7451680464       11.8530828114  CLST         402          1.0000000000
      1207       403  TIP3  OH2          -2.0071514972       -7.0490653451       -0.6326422280  CLST         403          1.0000000000
      1208       403  TIP3  H1           -0.8575551677       -7.9584572639        0.0908242676  CLST         403          1.0000000000
      1209       403  TIP3  H2           -1.9749384293       -8.6165856259       -1.1371369002  CLST         403          1.0000000000
      1210       404  TIP3  OH2          -4.9576307082       -2.5118595683        9.2073084181  CLST         404          1.0000000000
      1211       404  TIP3  H1           -5.3601265823       -2.7919184291       10.0558528378  CLST         404          1.0000000000
      1212       404  TIP3  H2           -5.3003364084       -3.2782805317        8.6544258982  CLST         404          1.0000000000
      1213       405  TIP3  OH2         -11.7605881327        7.2842626067       11.3645539097  CLST         405          1.0000000000
      1214       405  TIP3  H1          -11.5528950840        6.3265842304       10.9823480613  CLST         405          1.0000000000
      1215       405  TIP3  H2          -12.7081717137        7.1072714163       11.5130275545  CLST         405          1.0000000000
      1216       406  TIP3  OH2           1.0578879678        7.6241980635      -12.0558546623  CLST         406          1.0000000000
      1217       406  TIP3  H1            1.0812762053        8.5701673376      -12.2155425909  CLST         406          1.0000000000
      1218       406  TIP3  H2            1.3487299354        7.6733186243      -11.0993854600  CLST         406          1.0000000000
      1219       407  TIP3  OH2          10.5737368887      -13.2799735364        5.2355736666  CLST         407          1.0000000000
      1220       407  TIP3  H1           10.5440921193      -13.4394163016        4.2754331373  CLST         407          1.0000000000
      1221       407  TIP3  H2           11.2517369894      -12.5207218565        5.3007420834  CLST         407          1.0000000000
      1222       408  TIP3  OH2          -2.9482379610      -11.6253002983        1.9881210430  CLST         408          1.0000000000
      1223       408  TIP3  H1           -2.1885210381      -10.9831956403        1.9385522366  CLST         408          1.0000000000
      1224       408  TIP3  H2           -2.4914281693      -12.4350042700        2.3109244534  CLST         408          1.0000000000
      1225       409  TIP3  OH2           1.1776943434       -9.7203506212        9.6420358377  CLST         409          1.0000000000
      1226       409  TIP3  H1            0.8213676672       -9.2464685713       10.4434003159  CLST         409          1.0000000000
      1227       409  TIP3  H2            1.7578427203      -10.3622050098       10.0658827882  CLST         409          1.0000000000
      1228       410  TIP3  OH2           9.8711332204       -7.1171707211       -5.2145453859  CLST         410          1.0000000000
      1229       410  TIP3  H1            9.0028980825       -6.8304532050       -5.5344134603  CLST         410          1.0000000000
      1230       410  TIP3  H2           10.2874534334       -6.2531112044       -5.5071471525  CLST         410          1.0000000000
      1231       411  TIP3  OH2          -9.9535346508       -2.2484848631       -1.5350153071  CLST         411          1.0000000000
      1232       411  TIP3  H1           -9.3862949573       -2.5512368569       -0.8481622370  CLST         411          1.0000000000
      1233       411  TIP3  H2           -9.7565838635       -2.9944613187       -2.2051930840  CLST         411          1.0000000000
      1234       412  TIP3  OH2           6.7479244661      -10.3864340786      -11.9737733054  CLST         412          1.0000000000
      1235       412  TIP3  H1            6.0685482164      -10.7599903499      -11.3366381394  CLST         412          1.0000000000
      1236       412  TIP3  H2            7.5089289414      -11.0272767688      -11.7161103380  CLST         412          1.0000000000
      1237       413  TIP3  OH2           7.1365042087       12.9873551948        0.4401260960  CLST         413          1.0000000000
      1238       413  TIP3  H1            7.7364058688       12.3678136540       -0.1014485775  CLST         413          1.0000000000
      1239       413  TIP3  H2            7.7907948309       13.5536281650        0.8612185362  CLST         413          1.0000000000
      1240       414  TIP3  OH2           1.4363187834       -2.4067652618      -12.6021034611  CLST         414          1.0000000000
      1241       414  TIP3  H1            0.5441516726       -2.0379692963      -12.3517126816  CLST         414          1.0000000000
      1242       414  TIP3  H2            1.4579588864       -2.6230919586      -13.5683203785  CLST         414          1.0000000000
      1243       415  TIP3  OH2           4.0211242180        5.2486574334       -8.1271901785  CLST         415          1.0000000000
      1244       415  TIP3  H1            3.2003951838        4.4910149561       -8.0301389796  CLST         415          1.0000000000
      1245       415  TIP3  H2            5.0177751588        4.5977041984       -8.6273647432  CLST         415          1.0000000000
      1246       416  TIP3  OH2           5.5665630622       12.2617496343       -7.7826977614  CLST         416          1.0000000000
      1247       416  TIP3  H1            5.1282635019       13.2226640011       -8.0176669178  CLST         416          1.0000000000
      1248       416  TIP3  H2            6.6650256680       12.1958313742       -8.1030127155  CLST         416          1.0000000000
      1249       417  TIP3  OH2          12.5719287590      -11.1857908398        2.7607830738  CLST         417          1.0000000000
      1250       417  TIP3  H1           11.7693162612      -11.6723153993        2.4001538598  CLST         417          1.0000000000
      1251       417  TIP3  H2           12.7029941023      -10.3509231967        2.2714153182  CLST         417          1.0000000000
      1252       418  TIP3  OH2          -9.1296546338       -1.6222918443        8.4011404927  CLST         418          1.0000000000
      1253       418  TIP3  H1           -8.6242710784       -1.2483482082        7.6507705851  CLST         418          1.0000000000
      1254       418  TIP3  H2           -9.0478521843       -0.9048977067        9.0496368140  CLST         418          1.0000000000
      1255       419  TIP3  OH2          14.4552112985        0.2419098224       -6.0773095463  CLST         419          1.0000000000
      1256       419  TIP3  H1           13.6078202316        1.1300064482       -5.7661039032  CLST         419          1.0000000000
      1257       419  TIP3  H2           14.1727347493        0.6910880076       -5.0481758884  CLST         419          1.0000000000
      1258       420  TIP3  OH2          -8.1763981019       -8.2545812031        3.6880985153  CLST         420          1.0000000000
      1259       420  TIP3  H1           -8.9611196380       -7.8050094249        3.2534407864  CLST         420          1.0000000000
      1260       420  TIP3  H2           -8.4110410761       -9.1947832595        3.5655044796  CLST         420          1.0000000000
      1261       421  TIP3  OH2           3.5308083141       -6.2664219864      -13.4344927770  CLST         421          1.0000000000
      1262       421  TIP3  H1            4.4710148124       -6.4447728925      -13.3285750597  CLST         421          1.0000000000
      1263       421  TIP3  H2            3.1239171403       -7.1783709914      -13.5428992480  CLST         421          1.0000000000
      1264       422  TIP3  OH2          -1.8969339058       -9.3499949225       -1.6457672268  CLST         422          1.0000000000
      1265       422  TIP3  H1           -1.1252835918       -9.8938304836       -1.9585141774  CLST         422          1.0000000000
      1266       422  TIP3  H2           -2.7580104973       -9.8841277767       -1.9153370524  CLST         422          1.0000000000
      1267       423  TIP3  OH2           1.6928053373        4.7947801661       -3.9569493189  CLST         423          1.0000000000
      1268       423  TIP3  H1            2.4218236650        5.1910112527       -4.5443141348  CLST         423          1.0000000000
      1269       423  TIP3  H2            2.2449755011        4.3804397567       -3.2536240923  CLST         423          1.0000000000
      1270       424  TIP3  OH2          -8.8506913886        4.3971110637        4.3878112440  CLST         424          1.0000000000
      1271       424  TIP3  H1           -8.7218624819        3.8304554771        3.5879956807  CLST         424          1.0000000000
      1272       424  TIP3  H2           -8.0483949237        4.9988981849        4.3688010179  CLST         424          1.0000000000
      1273       425  TIP3  OH2           8.1670613622      -12.7416560577        8.2894830066  CLST         425          1.0000000000
      1274       425  TIP3  H1            8.2932377787      -12.3940916904        7.3681233749  CLST         425          1.0000000000
      1275       425  TIP3  H2            7.7592653941      -11.8969722555        8.5640834402  CLST         425          1.0000000000
      1276       426  TIP3  OH2           8.3235277084        2.2405562601        8.2199465627  CLST         426          1.0000000000
      1277       426  TIP3  H1            9.1012088882        2.0943502679        8.8415422544  CLST         426          1.0000000000
      1278       426  TIP3  H2            8.5191023937        3.2050071358        8.0959016183  CLST         426          1.0000000000
      1279       427  TIP3  OH2          11.4634887001        7.4387779486       10.9787477127  CLST         427          1.0000000000
      1280       427  TIP3  H1           11.2365212304        7.8237831369       11.8553739712  CLST         427          1.0000000000
      1281       427  TIP3  H2           10.6496430613        6.9401891967       10.8066606270  CLST         427          1.0000000000
      1282       428  TIP3  OH2          12.4450978916        7.6705461172        1.3833619652  CLST         428          1.0000000000
      1283       428  TIP3  H1           12.4481153845        9.0245961993       -0.5602125936  CLST         428          1.0000000000
      1284       428  TIP3  H2           13.3223114640        7.9406427366        0.7969638381  CLST         428          1.0000000000
      1285       429  TIP3  OH2          12.0408096652       -9.9750142955       -0.8411505212  CLST         429          1.0000000000
      1286       429  TIP3  H1           12.4192520089       -9.3346839160       -0.0217375182  CLST         429          1.0000000000
      1287       429  TIP3  H2           11.8075647951       -9.2845931431       -1.5853424583  CLST         429          1.0000000000
      1288       430  TIP3  OH2           9.7717565987       -6.6736879316        3.6583321472  CLST         430          1.0000000000
      1289       430  TIP3  H1            9.7902282985       -7.1731107251        2.7688447599  CLST         430          1.0000000000
      1290       430  TIP3  H2           10.7058673796       -6.4302020022        3.6445592562  CLST         430          1.0000000000
      1291       431  TIP3  OH2         -12.8078462643        9.4404008132       -2.6233709093  CLST         431          1.0000000000
      1292       431  TIP3  H1          -13.6758245351        9.5975935672       -2.9676835690  CLST         431          1.0000000000
      1293       431  TIP3  H2          -13.1710646610        9.0662926543       -1.7132764467  CLST         431          1.0000000000
      1294       432  TIP3  OH2           5.4572126005        8.6104939397      -10.0629014376  CLST         432          1.0000000000
      1295       432  TIP3  H1            5.7812468231        8.9174925080       -9.1656671590  CLST         432          1.0000000000
      1296       432  TIP3  H2            4.7636788915        9.2870668589      -10.0835588482  CLST         432          1.0000000000
      1297       433  TIP3  OH2          -0.7333837797        8.0633436754        7.7325076864  CLST         433          1.0000000000
      1298       433  TIP3  H1           -1.5480382486        8.6045205192        7.8825300869  CLST         433          1.0000000000
      1299       433  TIP3  H2           -0.9861404003        7.4153976232        7.0465559843  CLST         433          1.0000000000
      1300       434  TIP3  OH2          -7.3575155708        0.7433809490        3.6754958494  CLST         434          1.0000000000
      1301       434  TIP3  H1           -7.7862724192        1.4153646725        3.1685908169  CLST         434          1.0000000000
      1302       434  TIP3  H2           -7.9600651785       -0.0905716854        3.4264708949  CLST         434          1.0000000000
      1303       435  TIP3  OH2          10.0678854488       -0.4426810920       -7.0008266744  CLST         435          1.0000000000
      1304       435  TIP3  H1           10.5988459918       -0.8512020096       -6.2080856069  CLST         435          1.0000000000
      1305       435  TIP3  H2           10.4334674434        0.4147009811       -6.9903533776  CLST         435          1.0000000000
      1306       436  TIP3  OH2           3.8238701504       10.5095851450       -9.0910388271  CLST         436          1.0000000000
      1307       436  TIP3  H1            4.3008635462       11.1322462200       -8.5036397546  CLST         436          1.0000000000
      1308       436  TIP3  H2            2.9680345803       10.4066758639       -8.6889808497  CLST         436          1.0000000000
      1309       437  TIP3  OH2          -8.2958637942       -0.9332545063       -7.8595370994  CLST         437          1.0000000000
      1310       437  TIP3  H1           -8.5195004964       -0.3867159409       -8.6469613887  CLST         437          1.0000000000
      1311       437  TIP3  H2           -7.3161155387       -0.6834782523       -7.8969713559  CLST         437          1.0000000000
      1312       438  TIP3  OH2          -3.4372896326        5.5004999636       -8.0519248013  CLST         438          1.0000000000
      1313       438  TIP3  H1           -4.3229348730        5.9287520312       -7.8218429014  CLST         438          1.0000000000
      1314       438  TIP3  H2           -3.4051350469        5.9036099424       -8.9580101592  CLST         438          1.0000000000
      1315       439  TIP3  OH2          14.1398278066        1.6843570293       -4.2478839800  CLST         439          1.0000000000
      1316       439  TIP3  H1           14.0826029136        2.7609427758       -4.1605325580  CLST         439          1.0000000000
      1317       439  TIP3  H2           14.2205009114        1.4531186225       -3.2205093950  CLST         439          1.0000000000
      1318       440  TIP3  OH2           1.0490002738      -12.8538594478      -11.2881578858  CLST         440          1.0000000000
      1319       440  TIP3  H1            0.0743619843      -12.5190624149      -11.1724385545  CLST         440          1.0000000000
      1320       440  TIP3  H2            0.9500459648      -13.6546422489      -11.5260800704  CLST         440          1.0000000000
      1321       441  TIP3  OH2          -1.4552646265       -4.1899503888        3.2001260455  CLST         441          1.0000000000
      1322       441  TIP3  H1           -2.0846191539       -3.5763600774        3.4262935628  CLST         441          1.0000000000
      1323       441  TIP3  H2           -1.2097228087       -4.6457646045        4.0592978593  CLST         441          1.0000000000
      1324       442  TIP3  OH2           3.1802827003       -9.6769812141       -7.9476937338  CLST         442          1.0000000000
      1325       442  TIP3  H1            3.6644333354      -10.1187884245       -8.6718075567  CLST         442          1.0000000000
      1326       442  TIP3  H2            2.3805546601       -9.4137343074       -8.4850688192  CLST         442          1.0000000000
      1327       443  TIP3  OH2           1.3134255987       10.4451041168      -12.7761806092  CLST         443          1.0000000000
      1328       443  TIP3  H1            1.5252078201       11.3044192018      -12.1877572613  CLST         443          1.0000000000
      1329       443  TIP3  H2            1.7294477060       10.5135804775      -13.5619478508  CLST         443          1.0000000000
      1330       444  TIP3  OH2          -8.0482696048        1.3737441691       -1.8251497132  CLST         444          1.0000000000
      1331       444  TIP3  H1           -8.1431517782        2.1517544192       -2.4634384541  CLST         444          1.0000000000
      1332       444  TIP3  H2           -7.6684718379        1.8983115141       -1.0868918637  CLST         444          1.0000000000
      1333       445  TIP3  OH2         -11.5721480693       -5.2610131240        6.2152223525  CLST         445          1.0000000000
      1334       445  TIP3  H1          -11.6969173199       -4.2773473341        6.0331127318  CLST         445          1.0000000000
      1335       445  TIP3  H2          -11.4731400716       -5.1886618904        7.2252211509  CLST         445          1.0000000000
      1336       446  TIP3  OH2          -2.8463961443        4.5859038181       -5.4075790138  CLST         446          1.0000000000
      1337       446  TIP3  H1           -3.0499651066        4.8623080914       -6.3331774842  CLST         446          1.0000000000
      1338       446  TIP3  H2           -1.9571549790        5.0355075549       -5.3511906606  CLST         446          1.0000000000
      1339       447  TIP3  OH2          -5.0731945657      -12.5991042667       -3.8497388986  CLST         447          1.0000000000
      1340       447  TIP3  H1           -5.5398163599      -13.3365671827       -3.5709083202  CLST         447          1.0000000000
      1341       447  TIP3  H2           -4.5930588773      -12.2925652398       -2.9924999514  CLST         447          1.0000000000
      1342       448  TIP3  OH2           7.3002139816        9.5535333980        4.7451696476  CLST         448          1.0000000000
      1343       448  TIP3  H1            7.4007825211        9.4631568009        5.7420192534  CLST         448          1.0000000000
      1344       448  TIP3  H2            6.5812332733       10.2495647662        4.7997199953  CLST         448          1.0000000000
      1345       449  TIP3  OH2           4.2969183589        5.1095112160        8.5025270815  CLST         449          1.0000000000
      1346       449  TIP3  H1            4.8792310582        4.5234064969        9.0698704379  CLST         449          1.0000000000
      1347       449  TIP3  H2            4.1237506293        4.4982691491        7.7576128977  CLST         449          1.0000000000
      1348       450  TIP3  OH2          -4.0178569368        0.5096944669       -2.1022880488  CLST         450          1.0000000000
      1349       450  TIP3  H1           -3.4553899467        1.0959855685       -2.6395814151  CLST         450          1.0000000000
      1350       450  TIP3  H2           -3.2977843282        0.0686519683       -1.6018724707  CLST         450          1.0000000000
      1351       451  TIP3  OH2          13.4785763610       -1.8374680408       -5.8228659532  CLST         451          1.0000000000
      1352       451  TIP3  H1           14.8666458260       -1.8588342248       -5.9281851882  CLST         451          1.0000000000
      1353       451  TIP3  H2           14.2520659934       -0.9632574058       -6.1479800170  CLST         451          1.0000000000
      1354       452  TIP3  OH2           8.4557017829        5.1197000428        8.0210318444  CLST         452          1.0000000000
      1355       452  TIP3  H1            7.7022214723        5.7218316551        7.7551935353  CLST         452          1.0000000000
      1356       452  TIP3  H2            9.1412060164        5.6911950656        7.6126492969  CLST         452          1.0000000000
      1357       453  TIP3  OH2           6.8937916807        2.5880294260       -6.0717637547  CLST         453          1.0000000000
      1358       453  TIP3  H1            5.9909157784        2.4518849913       -5.6416489003  CLST         453          1.0000000000
      1359       453  TIP3  H2            6.5557200474        2.7289949436       -6.9757084753  CLST         453          1.0000000000
      1360       454  TIP3  OH2           1.2135431008        5.5190734714        1.9010886240  CLST         454          1.0000000000
      1361       454  TIP3  H1            0.2791071710        5.2650282074        1.7334435166  CLST         454          1.0000000000
      1362       454  TIP3  H2            1.0035294320        6.1138897908        2.6931804669  CLST         454          1.0000000000
      1363       455  TIP3  OH2          -1.3284968058        0.8387154015      -10.4540501174  CLST         455          1.0000000000
      1364       455  TIP3  H1           -1.7186720349        1.0682751431       -9.5734817961  CLST         455          1.0000000000
      1365       455  TIP3  H2           -1.0995759905        1.7817593131      -10.6298956458  CLST         455          1.0000000000
      1366       456  TIP3  OH2           5.3042564747       11.3312281168        5.0572586635  CLST         456          1.0000000000
      1367       456  TIP3  H1            4.7976035281       11.6420316736        4.2619177301  CLST         456          1.0000000000
      1368       456  TIP3  H2            4.6180520667       11.2970309643        5.7781308142  CLST         456          1.0000000000
      1369       457  TIP3  OH2          -4.6409995083       -7.6970851122        4.8965276528  CLST         457          1.0000000000
      1370       457  TIP3  H1           -5.3903687595       -7.7111923324        5.5030060373  CLST         457          1.0000000000
      1371       457  TIP3  H2           -5.0732501231       -7.2292684191        4.1287320905  CLST         457          1.0000000000
      1372       458  TIP3  OH2           8.0142235609       -6.4239300181      -11.2959768099  CLST         458          1.0000000000
      1373       458  TIP3  H1            8.9251817004       -6.3087673008      -11.6732413203  CLST         458          1.0000000000
      1374       458  TIP3  H2            7.9055602239       -5.5763453777      -10.8068216814  CLST         458          1.0000000000
      1375       459  TIP3  OH2           6.5506883592       -9.7677716992       -7.8523902578  CLST         459          1.0000000000
      1376       459  TIP3  H1            6.0745498322       -8.9651683721       -7.5171731582  CLST         459          1.0000000000
      1377       459  TIP3  H2            7.3124185431       -9.3411697206       -8.3547898102  CLST         459          1.0000000000
      1378       460  TIP3  OH2           9.2951530493       -2.1574564083       -2.8700895334  CLST         460          1.0000000000
      1379       460  TIP3  H1            9.8591921238       -2.8683269439       -2.6061258661  CLST         460          1.0000000000
      1380       460  TIP3  H2            9.9255057535       -1.6189063949       -3.4630494606  CLST         460          1.0000000000
      1381       461  TIP3  OH2          -1.3087103279      -12.6685788863       -5.4699937297  CLST         461          1.0000000000
      1382       461  TIP3  H1           -0.6714157351      -12.8051849467       -6.2424335736  CLST         461          1.0000000000
      1383       461  TIP3  H2           -0.7892672207      -13.0159492890       -4.7116641800  CLST         461          1.0000000000
      1384       462  TIP3  OH2           0.1491089890        5.3579842263      -12.6845383865  CLST         462          1.0000000000
      1385       462  TIP3  H1            0.5394935050        6.3070586295      -12.4660079052  CLST         462          1.0000000000
      1386       462  TIP3  H2            0.8113527756        5.0620928693      -13.1622617220  CLST         462          1.0000000000
      1387       463  TIP3  OH2          -1.7831566538        1.6947656919       -7.7671111557  CLST         463          1.0000000000
      1388       463  TIP3  H1           -1.6536439522        0.7957114494       -7.3305345550  CLST         463          1.0000000000
      1389       463  TIP3  H2           -2.7164287965        1.8805908955       -7.4477013233  CLST         463          1.0000000000
      1390       464  TIP3  OH2          -6.5998270148        6.2119227061        4.3403783486  CLST         464          1.0000000000
      1391       464  TIP3  H1           -6.1463767957        6.0317531840        5.0147814122  CLST         464          1.0000000000
      1392       464  TIP3  H2           -7.0054354373        7.2409818464        5.4890064432  CLST         464          1.0000000000
      1393       465  TIP3  OH2          -4.6721408991      -12.4137600484        6.2671488371  CLST         465          1.0000000000
      1394       465  TIP3  H1           -3.7979976631      -12.8590527032        6.2796427986  CLST         465          1.0000000000
      1395       465  TIP3  H2           -4.3294805898      -11.4857732658        6.1640968595  CLST         465          1.0000000000
      1396       466  TIP3  OH2          -2.5084576027        9.2342387790       -4.2475688638  CLST         466          1.0000000000
      1397       466  TIP3  H1           -3.1480677009        9.3727936103       -4.9921609400  CLST         466          1.0000000000
      1398       466  TIP3  H2           -2.7288371046       10.0065219259       -3.7231376928  CLST         466          1.0000000000
      1399       467  TIP3  OH2           8.3689790876        5.9201955530        4.6303880803  CLST         467          1.0000000000
      1400       467  TIP3  H1            8.9092229837        6.4305821321        5.2815132069  CLST         467          1.0000000000
      1401       467  TIP3  H2            8.0208672219        6.6647420836        4.0593071454  CLST         467          1.0000000000
      1402       468  TIP3  OH2          -0.5498716015      -12.4414014375       10.5088557558  CLST         468          1.0000000000
      1403       468  TIP3  H1           -0.9411959697      -12.0349980803       11.3344876294  CLST         468          1.0000000000
      1404       468  TIP3  H2            0.4341290425      -12.2575512663       10.5800327685  CLST         468          1.0000000000
      1405       469  TIP3  OH2           5.5826370002        8.4251048708       14.0846185599  CLST         469          1.0000000000
      1406       469  TIP3  H1            6.4522779092        8.5874185315       13.6972458334  CLST         469          1.0000000000
      1407       469  TIP3  H2            5.0826114725        9.0833263416       13.5851404917  CLST         469          1.0000000000
      1408       470  TIP3  OH2         -11.2467272934       12.8706619114        0.6442332310  CLST         470          1.0000000000
      1409       470  TIP3  H1          -10.9830510420       12.7545667078       -0.2659117737  CLST         470          1.0000000000
      1410       470  TIP3  H2          -11.6752914177       11.9585087891        0.7650884585  CLST         470          1.0000000000
      1411       471  TIP3  OH2          -4.2461289146        9.6085654855       -8.9164038461  CLST         471          1.0000000000
      1412       471  TIP3  H1           -4.2342876010        8.6341057555       -9.0635039778  CLST         471          1.0000000000
      1413       471  TIP3  H2           -4.6440448315        9.8764717599       -9.7864368619  CLST         471          1.0000000000
      1414       472  TIP3  OH2         -11.7854730490        3.9411450673        2.7064592579  CLST         472          1.0000000000
      1415       472  TIP3  H1          -12.3111809542        3.2114787293        3.0363777276  CLST         472          1.0000000000
      1416       472  TIP3  H2          -11.4861254175        3.4708151605        1.8809753734  CLST         472          1.0000000000
      1417       473  TIP3  OH2           5.3571246228        0.7207930252       10.0824108496  CLST         473          1.0000000000
      1418       473  TIP3  H1            5.8207318107        1.5307311267       10.3733924680  CLST         473          1.0000000000
      1419       473  TIP3  H2            4.6686493700        1.0456390116        9.4980373077  CLST         473          1.0000000000
      1420       474  TIP3  OH2           1.4493422500        1.7189942126        1.4062115110  CLST         474          1.0000000000
      1421       474  TIP3  H1            0.4889606262        1.5991184034        1.6637441940  CLST         474          1.0000000000
      1422       474  TIP3  H2            1.3305040877        1.6805019617        0.4156872523  CLST         474          1.0000000000
      1423       475  TIP3  OH2           6.0694536872       -8.6287041901       12.1014791096  CLST         475          1.0000000000
      1424       475  TIP3  H1            6.9970471846       -8.5354340855       12.3737859095  CLST         475          1.0000000000
      1425       475  TIP3  H2            6.2548879100       -9.1478938554       11.2808697584  CLST         475          1.0000000000
      1426       476  TIP3  OH2         -11.5413394795       -8.8137691941        0.0721298011  CLST         476          1.0000000000
      1427       476  TIP3  H1          -11.8661533404       -8.1114643063       -0.6105177763  CLST         476          1.0000000000
      1428       476  TIP3  H2          -10.8120108101       -8.9536787095       -0.5848933298  CLST         476          1.0000000000
      1429       477  TIP3  OH2         -12.4922226008        3.5588395842      -13.3819713955  CLST         477          1.0000000000
      1430       477  TIP3  H1          -11.8185774824        2.8487223890      -13.2269357084  CLST         477          1.0000000000
      1431       477  TIP3  H2          -12.0033950103        3.8175136591      -14.1939816425  CLST         477          1.0000000000
      1432       478  TIP3  OH2          -3.9739082863        6.5743559041      -10.5590064234  CLST         478          1.0000000000
      1433       478  TIP3  H1           -4.4295919237        6.2502364687      -11.3698838645  CLST         478          1.0000000000
      1434       478  TIP3  H2           -3.3806401444        7.2215520505      -11.0666454425  CLST         478          1.0000000000
      1435       479  TIP3  OH2           8.0052790876       -1.4468304087       -8.5168104043  CLST         479          1.0000000000
      1436       479  TIP3  H1            8.7371327689       -1.2226947182       -7.8406719234  CLST         479          1.0000000000
      1437       479  TIP3  H2            7.2529266203       -1.1822017434       -7.9057682941  CLST         479          1.0000000000
      1438       480  TIP3  OH2          -6.0558846891        7.5199100386       -0.0901774422  CLST         480          1.0000000000
      1439       480  TIP3  H1           -5.1456308608        7.8495461481       -0.3294200284  CLST         480          1.0000000000
      1440       480  TIP3  H2           -5.8618401830        6.5830094256        0.1328402404  CLST         480          1.0000000000
      1441       481  TIP3  OH2          -2.9814394782        2.5072776114       11.8420492555  CLST         481          1.0000000000
      1442       481  TIP3  H1           -2.0386115468        2.3726600209       11.5056349823  CLST         481          1.0000000000
      1443       481  TIP3  H2           -3.1388607726        1.7097769393       12.3186968024  CLST         481          1.0000000000
      1444       482  TIP3  OH2          -8.1523502351       11.4930711294       -7.5250513800  CLST         482          1.0000000000
      1445       482  TIP3  H1           -8.7381185016       11.1203685956       -8.2858993588  CLST         482          1.0000000000
      1446       482  TIP3  H2           -7.3851816061       11.9794008725       -8.1541086527  CLST         482          1.0000000000
      1447       483  TIP3  OH2           6.1882422911       -5.8355651009       12.6157325024  CLST         483          1.0000000000
      1448       483  TIP3  H1            5.8762271865       -6.7578793106       12.7690698433  CLST         483          1.0000000000
      1449       483  TIP3  H2            6.0316633520       -5.7775816480       11.6130411470  CLST         483          1.0000000000
      1450       484  TIP3  OH2           6.8945323680       -2.8991711498        2.9341092143  CLST         484          1.0000000000
      1451       484  TIP3  H1            5.9425499549       -3.1951409554        2.9539467220  CLST         484          1.0000000000
      1452       484  TIP3  H2            6.8609949319       -2.1664668600        3.6419174892  CLST         484          1.0000000000
      1453       485  TIP3  OH2         -11.7511547593        4.6825455194        9.9865341544  CLST         485          1.0000000000
      1454       485  TIP3  H1          -11.3042968888        3.7830957009        9.8009106024  CLST         485          1.0000000000
      1455       485  TIP3  H2          -12.5223462564        4.5185949964        9.3630053694  CLST         485          1.0000000000
      1456       486  TIP3  OH2           8.4969794158       -6.9949540485       13.6979911802  CLST         486          1.0000000000
      1457       486  TIP3  H1            8.6374972104       -6.5876685660       14.5137564269  CLST         486          1.0000000000
      1458       486  TIP3  H2            7.8195990676       -6.5031533159       13.2721850566  CLST         486          1.0000000000
      1459       487  TIP3  OH2          12.0651596038       -8.4724682268        6.0967984735  CLST         487          1.0000000000
      1460       487  TIP3  H1           11.1017854626       -8.3948155918        5.8810736485  CLST         487          1.0000000000
      1461       487  TIP3  H2           12.0120678826       -8.5586511044        7.0798097853  CLST         487          1.0000000000
      1462       488  TIP3  OH2          15.2205957396        8.4014158635        7.5523004833  CLST         488          1.0000000000
      1463       488  TIP3  H1           15.7738045911        7.7139704395        7.2661990336  CLST         488          1.0000000000
      1464       488  TIP3  H2           14.5393265937        7.8380289179        8.0425413277  CLST         488          1.0000000000
      1465       489  TIP3  OH2          -5.9559321097      -10.8338364776       11.7082060101  CLST         489          1.0000000000
      1466       489  TIP3  H1           -6.6730353578      -10.3071695799       11.3494898801  CLST         489          1.0000000000
      1467       489  TIP3  H2           -7.9100204811      -11.3121048799       11.2611163089  CLST         489          1.0000000000
      1468       490  TIP3  OH2           6.6972940773      -13.0348831601        2.2498167071  CLST         490          1.0000000000
      1469       490  TIP3  H1            6.5543198782      -12.1910670540        2.6422497979  CLST         490          1.0000000000
      1470       490  TIP3  H2            6.9219770541      -13.5690027029        2.9550264107  CLST         490          1.0000000000
      1471       491  TIP3  OH2           3.1372097975       -9.2952536914        4.9373415640  CLST         491          1.0000000000
      1472       491  TIP3  H1            2.1807629990       -9.3739856438        5.0271261219  CLST         491          1.0000000000
      1473       491  TIP3  H2            3.3807694075       -9.9096428307        4.2434606811  CLST         491          1.0000000000
      1474       492  TIP3  OH2          -0.3811433105       -6.3867392339       12.2318913976  CLST         492          1.0000000000
      1475       492  TIP3  H1           -0.5990880378       -8.0958768276       12.1901166193  CLST         492          1.0000000000
      1476       492  TIP3  H2           -1.1780474942       -6.7452282737       12.3745623781  CLST         492          1.0000000000
      1477       493  TIP3  OH2           3.4882799326       10.6737103223        7.1584074255  CLST         493          1.0000000000
      1478       493  TIP3  H1            4.3449063016       10.6674964852        7.8027415915  CLST         493          1.0000000000
      1479       493  TIP3  H2            2.7896568601       10.3887215633        7.8216794020  CLST         493          1.0000000000
      1480       494  TIP3  OH2          -9.2294386790        5.3270611307       -0.7833489520  CLST         494          1.0000000000
      1481       494  TIP3  H1           -9.7504280061        5.6758939601       -1.5081386931  CLST         494          1.0000000000
      1482       494  TIP3  H2           -9.6180055837        5.7938773940       -0.0244121113  CLST         494          1.0000000000
      1483       495  TIP3  OH2           5.0368320368       -6.8861358031       -1.9536699222  CLST         495          1.0000000000
      1484       495  TIP3  H1            5.7615602156       -6.3553667213       -2.3949635529  CLST         495          1.0000000000
      1485       495  TIP3  H2            5.7459167200       -7.5347772109       -1.6426293630  CLST         495          1.0000000000
      1486       496  TIP3  OH2         -12.7771195070      -10.9026899658        7.4381874872  CLST         496          1.0000000000
      1487       496  TIP3  H1          -13.6244709897      -11.0595334310        7.4601397815  CLST         496          1.0000000000
      1488       496  TIP3  H2          -12.3975237139      -11.6496371537        6.7458697506  CLST         496          1.0000000000
      1489       497  TIP3  OH2          -9.5550620341      -13.5186926316       -7.2276198364  CLST         497          1.0000000000
      1490       497  TIP3  H1           -9.6858898477      -14.3317906076       -7.2166721001  CLST         497          1.0000000000
      1491       497  TIP3  H2           -9.9187596668      -12.8191691813       -7.7296768959  CLST         497          1.0000000000
      1492       498  TIP3  OH2          -5.4441593989        0.4773618463      -11.1623120480  CLST         498          1.0000000000
      1493       498  TIP3  H1           -5.7259321514        0.4740141294      -12.0969001416  CLST         498          1.0000000000
      1494       498  TIP3  H2           -5.1036138770        1.3388146377      -10.8854551679  CLST         498          1.0000000000
      1495       499  TIP3  OH2          11.5526096297        6.6684968538        3.6198646577  CLST         499          1.0000000000
      1496       499  TIP3  H1           11.8863968292        7.0579879124        2.7510148545  CLST         499          1.0000000000
      1497       499  TIP3  H2           11.2301154732        7.5275952949        4.0279331520  CLST         499          1.0000000000
      1498       500  TIP3  OH2           2.3950343822       -8.6757621143      -13.3722421381  CLST         500          1.0000000000
      1499       500  TIP3  H1            2.0978624356       -9.1571510216      -14.0093043871  CLST         500          1.0000000000
      1500       500  TIP3  H2            2.5366410916       -9.3825958438      -12.6160740584  CLST         500          1.0000000000
      1501       501  TIP3  OH2           1.3262661105      -10.9950373541       13.9652660053  CLST         501          1.0000000000
      1502       501  TIP3  H1            1.3890550242      -11.7267527616       13.3009213748  CLST         501          1.0000000000
      1503       501  TIP3  H2            2.2405699280      -10.6053153547       13.8565356521  CLST         501          1.0000000000
      1504       502  TIP3  OH2           6.0695247296        3.7851538095        9.7527499838  CLST         502          1.0000000000
      1505       502  TIP3  H1            6.4276941030        4.1199366213       10.6030090180  CLST         502          1.0000000000
      1506       502  TIP3  H2            6.8731305003        3.4056642332        9.3357467626  CLST         502          1.0000000000
      1507       503  TIP3  OH2          10.3839778081       -0.8408199872        0.3141656021  CLST         503          1.0000000000
      1508       503  TIP3  H1           11.1702365082       -0.5357439356        0.8571354280  CLST         503          1.0000000000
      1509       503  TIP3  H2           10.2678329449       -0.0311267013       -0.2231164108  CLST         503          1.0000000000
      1510       504  TIP3  OH2           8.3299378666      -13.7047055374       11.0300937989  CLST         504          1.0000000000
      1511       504  TIP3  H1            8.4691834804      -13.6568177567       10.0660993016  CLST         504          1.0000000000
      1512       504  TIP3  H2            8.5438077333      -14.5853497051       11.1999576379  CLST         504          1.0000000000
      1513       505  TIP3  OH2           3.5073935953      -10.8873697292       -5.6022415834  CLST         505          1.0000000000
      1514       505  TIP3  H1            3.3858122568      -10.2747685697       -6.4060668844  CLST         505          1.0000000000
      1515       505  TIP3  H2            2.8994908839      -10.4629855615       -4.9714828101  CLST         505          1.0000000000
      1516       506  TIP3  OH2          -9.1508397007       -3.4057854140       -8.1352280109  CLST         506          1.0000000000
      1517       506  TIP3  H1           -8.8398276247       -2.4506143121       -8.0399923187  CLST         506          1.0000000000
      1518       506  TIP3  H2           -9.7530869493       -3.2767545418       -8.8849750952  CLST         506          1.0000000000
      1519       507  TIP3  OH2          11.0433248237        9.0256608597      -12.6046149423  CLST         507          1.0000000000
      1520       507  TIP3  H1           11.5103474901        8.8881015751      -13.3917314403  CLST         507          1.0000000000
      1521       507  TIP3  H2           10.9151373862        8.0861886006      -12.3329964847  CLST         507          1.0000000000
      1522       508  TIP3  OH2           9.0969683854       12.3494232812        8.9617369936  CLST         508          1.0000000000
      1523       508  TIP3  H1            8.7507814215       12.2493110990        8.0419045681  CLST         508          1.0000000000
      1524       508  TIP3  H2           10.0541979283       12.4840616982        8.7063126696  CLST         508          1.0000000000
      1525       509  TIP3  OH2          -0.6729065520       -1.5906142806      -11.4241467713  CLST         509          1.0000000000
      1526       509  TIP3  H1           -1.6009951060       -1.8354321042      -11.5767722565  CLST         509          1.0000000000
      1527       509  TIP3  H2           -0.7617856392       -0.6791179536      -11.0252436561  CLST         509          1.0000000000
      1528       510  TIP3  OH2           8.2773397898        2.1921487535       11.6222223827  CLST         510          1.0000000000
      1529       510  TIP3  H1            8.1392410401        1.1855588068       11.5790535638  CLST         510          1.0000000000
      1530       510  TIP3  H2            9.1874473108        2.2847102490       11.2062930413  CLST         510          1.0000000000
      1531       511  TIP3  OH2          -8.8176243657       -5.9686228070       -0.6095057801  CLST         511          1.0000000000
      1532       511  TIP3  H1           -9.6843354349       -6.1283015565       -0.9995385016  CLST         511          1.0000000000
      1533       511  TIP3  H2           -8.4476213061       -5.4914740251       -1.3555310551  CLST         511          1.0000000000
      1534       512  TIP3  OH2          10.1113716961        7.0738224069        6.9383021697  CLST         512          1.0000000000
      1535       512  TIP3  H1           10.2928544952        7.6479709316        7.7144506681  CLST         512          1.0000000000
      1536       512  TIP3  H2           10.3129957920        7.6900414234        6.1909428203  CLST         512          1.0000000000
      1537       513  TIP3  OH2         -11.7074205461       10.6920857001        9.3122795818  CLST         513          1.0000000000
      1538       513  TIP3  H1          -11.0734857663       11.4225121236        9.5595285028  CLST         513          1.0000000000
      1539       513  TIP3  H2          -11.5780936500       10.1941250122       10.1824050739  CLST         513          1.0000000000
      1540       514  TIP3  OH2          -4.8482566591        4.9526687251        0.1971391199  CLST         514          1.0000000000
      1541       514  TIP3  H1           -4.0017727621        5.3070874057        0.5513457263  CLST         514          1.0000000000
      1542       514  TIP3  H2           -4.5940729130        4.8449525174       -0.7640162220  CLST         514          1.0000000000
      1543       515  TIP3  OH2          -0.8984106378        0.9049114905       -4.4106492754  CLST         515          1.0000000000
      1544       515  TIP3  H1           -1.7240160440        1.4839975852       -4.4742663636  CLST         515          1.0000000000
      1545       515  TIP3  H2           -0.2004571409        1.4880561955       -4.7915240079  CLST         515          1.0000000000
      1546       516  TIP3  OH2          -7.2952652709       -8.4798724823        6.4401037141  CLST         516          1.0000000000
      1547       516  TIP3  H1           -7.5619908057       -8.6551326656        5.4895484010  CLST         516          1.0000000000
      1548       516  TIP3  H2           -7.9172117127       -7.6954358178        6.6213362049  CLST         516          1.0000000000
      1549       517  TIP3  OH2           0.6925364556       11.0930702113       11.4895965426  CLST         517          1.0000000000
      1550       517  TIP3  H1            0.4564884337       10.7420354464       10.5703503908  CLST         517          1.0000000000
      1551       517  TIP3  H2           -0.2575870714       11.2188884994       11.7318603550  CLST         517          1.0000000000
      1552       518  TIP3  OH2         -11.7574357273       -3.4044894194      -11.3796817081  CLST         518          1.0000000000
      1553       518  TIP3  H1          -12.1612093153       -3.0604202942      -12.1425777389  CLST         518          1.0000000000
      1554       518  TIP3  H2          -10.9586419252       -3.7623911128      -11.7486723001  CLST         518          1.0000000000
      1555       519  TIP3  OH2           2.1405932515        3.3663302663        3.4185391472  CLST         519          1.0000000000
      1556       519  TIP3  H1            1.9224675835        4.1561991685        2.8569070718  CLST         519          1.0000000000
      1557       519  TIP3  H2            1.8936501808        2.6439185341        2.7458966006  CLST         519          1.0000000000
      1558       520  TIP3  OH2          -9.8576402295        6.0369240211        8.1633555890  CLST         520          1.0000000000
      1559       520  TIP3  H1          -10.2647548641        5.5606176234        7.2757749035  CLST         520          1.0000000000
      1560       520  TIP3  H2          -10.4932787726        5.7466816941        8.8439057985  CLST         520          1.0000000000
      1561       521  TIP3  OH2           8.4326634338       -8.6652813242       -9.5203860303  CLST         521          1.0000000000
      1562       521  TIP3  H1            8.8162059086       -9.1773935421      -10.2418116326  CLST         521          1.0000000000
      1563       521  TIP3  H2            8.2383834845       -7.8236407855      -10.0284325240  CLST         521          1.0000000000
      1564       522  TIP3  OH2          -5.5410406181       -7.0261802215        8.1625815020  CLST         522          1.0000000000
      1565       522  TIP3  H1           -6.1523271880       -7.6933664107        7.9176180608  CLST         522          1.0000000000
      1566       522  TIP3  H2           -4.6446451420       -7.4295013195        8.2466095983  CLST         522          1.0000000000
      1567       523  TIP3  OH2          -4.0426204275       11.9025486137      -13.5868029268  CLST         523          1.0000000000
      1568       523  TIP3  H1           -3.0250492435       11.7152631785      -13.4594956541  CLST         523          1.0000000000
      1569       523  TIP3  H2           -3.9796636255       12.5395542965      -14.1563821797  CLST         523          1.0000000000
      1570       524  TIP3  OH2           6.9962917355        4.0198629292       -1.6882155094  CLST         524          1.0000000000
      1571       524  TIP3  H1            7.3278740180        3.2814889691       -2.2265802530  CLST         524          1.0000000000
      1572       524  TIP3  H2            6.0128180177        4.0179696790       -1.8573584603  CLST         524          1.0000000000
      1573       525  TIP3  OH2           0.6608840010        6.8310538278       -2.5724816301  CLST         525          1.0000000000
      1574       525  TIP3  H1            0.9662175679        6.1758552940       -3.2692173262  CLST         525          1.0000000000
      1575       525  TIP3  H2            0.3756406879        6.0529131723       -1.9829485802  CLST         525          1.0000000000
      1576       526  TIP3  OH2           7.0424439733       -5.5484735363       -3.5922320741  CLST         526          1.0000000000
      1577       526  TIP3  H1            7.2265840604       -5.9407239149       -4.4534887311  CLST         526          1.0000000000
      1578       526  TIP3  H2            7.9670011586       -5.5231748449       -3.1896917604  CLST         526          1.0000000000
      1579       527  TIP3  OH2           0.4351630185        7.1802562757        3.9311070224  CLST         527          1.0000000000
      1580       527  TIP3  H1            1.2228537837        7.2350638701        4.5879506682  CLST         527          1.0000000000
      1581       527  TIP3  H2            0.3425937350        8.1436086165        3.7877952904  CLST         527          1.0000000000
      1582       528  TIP3  OH2          -2.8192550923       10.0351319752        8.7794788558  CLST         528          1.0000000000
      1583       528  TIP3  H1           -3.1931502767        9.4706193185        9.5042544878  CLST         528          1.0000000000
      1584       528  TIP3  H2           -3.7291349972       10.3609537579        8.4647803073  CLST         528          1.0000000000
      1585       529  TIP3  OH2          -5.9884469841       12.2756930271       -9.4866985676  CLST         529          1.0000000000
      1586       529  TIP3  H1           -5.0954761356       12.2319222897       -9.1781255875  CLST         529          1.0000000000
      1587       529  TIP3  H2           -5.8472722492       11.9229040173      -10.4050580463  CLST         529          1.0000000000
      1588       530  TIP3  OH2          -4.5995960416       -5.5300546649      -13.3026760370  CLST         530          1.0000000000
      1589       530  TIP3  H1           -4.4645599653       -6.4832460664      -13.2431623382  CLST         530          1.0000000000
      1590       530  TIP3  H2           -3.6402759420       -5.2300049999      -13.1913993208  CLST         530          1.0000000000
      1591       531  TIP3  OH2         -11.4781957211       -0.1881370806       10.5531921779  CLST         531          1.0000000000
      1592       531  TIP3  H1          -11.9799043772       -0.4494135912       11.2752658995  CLST         531          1.0000000000
      1593       531  TIP3  H2          -11.8901248270       -0.8222095415        9.9347572598  CLST         531          1.0000000000
      1594       532  TIP3  OH2         -12.2086680471       -3.0736564264       -8.7789517777  CLST         532          1.0000000000
      1595       532  TIP3  H1          -12.7308370047       -3.8474777403       -8.6333545321  CLST         532          1.0000000000
      1596       532  TIP3  H2          -12.1386774054       -3.1361072767       -9.8091102094  CLST         532          1.0000000000
      1597       533  TIP3  OH2          -2.9201639661       -7.2600971786        8.6767009622  CLST         533          1.0000000000
      1598       533  TIP3  H1           -2.1791264748       -7.9044672832        8.6048640929  CLST         533          1.0000000000
      1599       533  TIP3  H2           -2.4290573057       -6.4540582955        8.3245218428  CLST         533          1.0000000000
      1600       534  TIP3  OH2           0.2627077566      -13.1223532834       -7.5163618911  CLST         534          1.0000000000
      1601       534  TIP3  H1            0.6682088763      -12.7170493590       -8.3139627189  CLST         534          1.0000000000
      1602       534  TIP3  H2            1.1726422746      -13.3316304257       -7.1653820327  CLST         534          1.0000000000
      1603       535  TIP3  OH2           2.8254119980        3.1898950171       -7.5399311261  CLST         535          1.0000000000
      1604       535  TIP3  H1            3.3317137024        2.5711368349       -6.8967718141  CLST         535          1.0000000000
      1605       535  TIP3  H2            1.9682022529        3.0384388133       -7.1863346619  CLST         535          1.0000000000
      1606       536  TIP3  OH2           7.9106998556      -12.5096423940       -3.5076428735  CLST         536          1.0000000000
      1607       536  TIP3  H1            7.2678957373      -12.4948821441       -4.2717732391  CLST         536          1.0000000000
      1608       536  TIP3  H2            8.1324929931      -13.3864490393       -3.3776470891  CLST         536          1.0000000000
      1609       537  TIP3  OH2          11.7903198848       -2.6391304686       -7.5965729978  CLST         537          1.0000000000
      1610       537  TIP3  H1           11.4661764387       -1.7636188705       -7.4815830956  CLST         537          1.0000000000
      1611       537  TIP3  H2           13.2266705617       -2.1948338207       -6.6612903756  CLST         537          1.0000000000
      1612       538  TIP3  OH2          -5.1746499040      -10.8851517874        0.8106858820  CLST         538          1.0000000000
      1613       538  TIP3  H1           -4.3797680803      -11.0676187997        1.3896185381  CLST         538          1.0000000000
      1614       538  TIP3  H2           -5.0623262117       -9.9147759195        0.7681645425  CLST         538          1.0000000000
      1615       539  TIP3  OH2           2.5430231661       -5.1329222358        0.9465643766  CLST         539          1.0000000000
      1616       539  TIP3  H1            1.5648579032       -5.3200408887        1.1923054671  CLST         539          1.0000000000
      1617       539  TIP3  H2            2.4011612783       -5.3600689754        0.0287378127  CLST         539          1.0000000000
      1618       540  TIP3  OH2           3.8818241657       -6.7826597780        4.6386946600  CLST         540          1.0000000000
      1619       540  TIP3  H1            3.6389934111       -7.6998843548        4.8888621518  CLST         540          1.0000000000
      1620       540  TIP3  H2            4.1590835196       -6.9077965008        3.7277949479  CLST         540          1.0000000000
      1621       541  TIP3  OH2          -5.6065564363       10.4078631642        2.1364605163  CLST         541          1.0000000000
      1622       541  TIP3  H1           -5.9673253926       10.4299275126        3.0582407303  CLST         541          1.0000000000
      1623       541  TIP3  H2           -5.0149992966       11.1909255477        2.2543032642  CLST         541          1.0000000000
      1624       542  TIP3  OH2         -10.8435774053       14.4677052785        5.6309163364  CLST         542          1.0000000000
      1625       542  TIP3  H1          -11.3181549832       15.2031285695        5.5136593544  CLST         542          1.0000000000
      1626       542  TIP3  H2          -10.6848275371       13.9771409639        4.7011932910  CLST         542          1.0000000000
      1627       543  TIP3  OH2         -10.8234642873       11.4373585680       -2.3698167741  CLST         543          1.0000000000
      1628       543  TIP3  H1          -11.7044126893       11.0521498795       -2.5609153720  CLST         543          1.0000000000
      1629       543  TIP3  H2          -10.5305246081       11.7040439575       -3.2344501051  CLST         543          1.0000000000
      1630       544  TIP3  OH2          -0.3765366539        5.6165752248       -5.5732850936  CLST         544          1.0000000000
      1631       544  TIP3  H1           -0.3438006100        5.2549358433       -6.5154803125  CLST         544          1.0000000000
      1632       544  TIP3  H2            0.3327192847        5.1502974247       -5.0858263102  CLST         544          1.0000000000
      1633       545  TIP3  OH2          -7.8253531314        2.4708901357      -12.6437028219  CLST         545          1.0000000000
      1634       545  TIP3  H1           -8.0695118656        2.1269603955      -13.5535644529  CLST         545          1.0000000000
      1635       545  TIP3  H2           -8.4525528969        3.2868483544      -12.6369454534  CLST         545          1.0000000000
      1636       546  TIP3  OH2           3.7316074790       11.0251435268       -2.0519502695  CLST         546          1.0000000000
      1637       546  TIP3  H1            3.1904086247       10.1278179884       -2.0891308221  CLST         546          1.0000000000
      1638       546  TIP3  H2            4.1519729218       10.9644363970       -1.0579100695  CLST         546          1.0000000000
      1639       547  TIP3  OH2          -3.5410468542       -2.2486372980      -11.1514545200  CLST         547          1.0000000000
      1640       547  TIP3  H1           -3.5030289951       -2.3784370293      -10.1843647089  CLST         547          1.0000000000
      1641       547  TIP3  H2           -3.9271719961       -1.3756959315      -11.1952929202  CLST         547          1.0000000000
      1642       548  TIP3  OH2          10.5577285621        2.3635980453        1.4161737479  CLST         548          1.0000000000
      1643       548  TIP3  H1            9.5488579381        2.3211143942        1.4663819905  CLST         548          1.0000000000
      1644       548  TIP3  H2           10.6119666660        3.0390649132        2.1285602221  CLST         548          1.0000000000
