* Geometry rescue: heat segment 7/8 at step 1500
*
        1644  EXT
         1         1  TIP3  OH2           4.4650001800       -1.5554082874       -2.2244915193  CLST           1          1.0000000000
         2         1  TIP3  H1            4.8160827800       -1.5166295059       -1.2778777692  CLST           1          1.0000000000
         3         1  TIP3  H2            5.1175306951       -2.2512423392       -2.5266089254  CLST           1          1.0000000000
         4         2  TIP3  OH2          10.7688009801        7.3860772187      -11.7462403573  CLST           2          1.0000000000
         5         2  TIP3  H1           11.0686392836        7.4081997470      -10.7975852005  CLST           2          1.0000000000
         6         2  TIP3  H2            9.8324529583        7.1083228846      -11.5412930578  CLST           2          1.0000000000
         7         3  TIP3  OH2           8.7697978374        5.3433831749       -4.3188519285  CLST           3          1.0000000000
         8         3  TIP3  H1            9.1651596196        5.6619989339       -3.4756696080  CLST           3          1.0000000000
         9         3  TIP3  H2            8.1301911827        6.0479982895       -4.4972869247  CLST           3          1.0000000000
        10         4  TIP3  OH2          -2.9219207830        6.7419633831       10.1335322478  CLST           4          1.0000000000
        11         4  TIP3  H1           -3.6214293712        6.9429573754        9.4815917415  CLST           4          1.0000000000
        12         4  TIP3  H2           -3.0789927099        7.4375848693       10.8036125445  CLST           4          1.0000000000
        13         5  TIP3  OH2           9.0604468719        6.3101890041       10.5999852450  CLST           5          1.0000000000
        14         5  TIP3  H1            8.5283823539        5.7685155815       11.2542333514  CLST           5          1.0000000000
        15         5  TIP3  H2            9.0078960438        5.6624504464        9.8421181988  CLST           5          1.0000000000
        16         6  TIP3  OH2          10.5419068622       -5.8096621302      -11.7116549946  CLST           6          1.0000000000
        17         6  TIP3  H1           11.0642044079       -5.3281728345      -11.0152232462  CLST           6          1.0000000000
        18         6  TIP3  H2           10.5962646672       -5.0826022884      -12.4095819209  CLST           6          1.0000000000
        19         7  TIP3  OH2         -12.2094810819        8.3992221059        5.6546339009  CLST           7          1.0000000000
        20         7  TIP3  H1          -12.7111793774        9.2287947947        5.8702805168  CLST           7          1.0000000000
        21         7  TIP3  H2          -11.5296662088        8.4832609170        6.4020477825  CLST           7          1.0000000000
        22         8  TIP3  OH2          -4.3950625320       -8.2957322860        0.5308646995  CLST           8          1.0000000000
        23         8  TIP3  H1           -4.6719896067       -7.8536714195        1.3716657727  CLST           8          1.0000000000
        24         8  TIP3  H2           -3.6326079398       -7.7536821051        0.2624004411  CLST           8          1.0000000000
        25         9  TIP3  OH2           2.6531927336      -14.3020481924       -4.1681697659  CLST           9          1.0000000000
        26         9  TIP3  H1            1.7397479231      -14.5222731374       -3.8477878671  CLST           9          1.0000000000
        27         9  TIP3  H2            2.7124605023      -13.5351857448       -3.5287229795  CLST           9          1.0000000000
        28        10  TIP3  OH2         -14.1895509066       -1.1353895561       -0.3275630880  CLST          10          1.0000000000
        29        10  TIP3  H1          -13.6612638504       -1.4446673182       -1.1411046953  CLST          10          1.0000000000
        30        10  TIP3  H2          -14.7158571682       -1.7381118684       -0.0404075217  CLST          10          1.0000000000
        31        11  TIP3  OH2           6.9428835200        6.8537465712       -1.9594882122  CLST          11          1.0000000000
        32        11  TIP3  H1            7.2481363708        5.9273077809       -1.7746082234  CLST          11          1.0000000000
        33        11  TIP3  H2            6.9301731635        6.8230191341       -2.9458029228  CLST          11          1.0000000000
        34        12  TIP3  OH2          -8.3687244966        2.8367511650        2.0392127355  CLST          12          1.0000000000
        35        12  TIP3  H1           -7.7010748224        3.0705430205        1.2845403849  CLST          12          1.0000000000
        36        12  TIP3  H2           -9.1714737146        2.8275303952        1.4605000519  CLST          12          1.0000000000
        37        13  TIP3  OH2           7.8128446865        2.4759743279        2.1013722606  CLST          13          1.0000000000
        38        13  TIP3  H1            7.7321480813        3.3526265204        1.7029441727  CLST          13          1.0000000000
        39        13  TIP3  H2            7.5819490267        2.6336043362        3.0154972580  CLST          13          1.0000000000
        40        14  TIP3  OH2          -0.4046662907        2.1787518348        7.8884118004  CLST          14          1.0000000000
        41        14  TIP3  H1           -0.1825576669        3.1362463023        7.6360811839  CLST          14          1.0000000000
        42        14  TIP3  H2            0.3433605852        1.7764845873        7.4037613630  CLST          14          1.0000000000
        43        15  TIP3  OH2          -8.9626065391       -3.9757324545      -12.5978093495  CLST          15          1.0000000000
        44        15  TIP3  H1           -8.1719696525       -3.9175215230      -13.1963787132  CLST          15          1.0000000000
        45        15  TIP3  H2           -8.4160556738       -4.6364828123      -11.9960042515  CLST          15          1.0000000000
        46        16  TIP3  OH2          -3.8027281275      -12.7920326337       -6.2164253671  CLST          16          1.0000000000
        47        16  TIP3  H1           -4.4672987719      -12.9490668844       -5.4798207029  CLST          16          1.0000000000
        48        16  TIP3  H2           -2.9217602870      -12.7147663117       -5.8268809539  CLST          16          1.0000000000
        49        17  TIP3  OH2           4.7986069393      -13.5368167018       -8.4458655519  CLST          17          1.0000000000
        50        17  TIP3  H1            5.4819206128      -13.4346485802       -7.7846258109  CLST          17          1.0000000000
        51        17  TIP3  H2            4.0644711954      -13.7272289879       -7.7662253102  CLST          17          1.0000000000
        52        18  TIP3  OH2         -11.7733883573       -6.7524219996       -1.4811704697  CLST          18          1.0000000000
        53        18  TIP3  H1          -12.1573484899       -5.8858995675       -1.7870158596  CLST          18          1.0000000000
        54        18  TIP3  H2          -11.6790724266       -7.0226530314       -2.4544420045  CLST          18          1.0000000000
        55        19  TIP3  OH2          10.8451665620        0.0020510764        9.4107428715  CLST          19          1.0000000000
        56        19  TIP3  H1           10.5119026649       -0.8037057734        9.7483615933  CLST          19          1.0000000000
        57        19  TIP3  H2           10.9750721176       -0.2307801638        8.4075113693  CLST          19          1.0000000000
        58        20  TIP3  OH2         -13.3294878302        1.6331071260        2.8128317599  CLST          20          1.0000000000
        59        20  TIP3  H1          -13.1062086184        1.2754733260        1.9193959885  CLST          20          1.0000000000
        60        20  TIP3  H2          -14.2409013359        1.6666110430        2.7139922154  CLST          20          1.0000000000
        61        21  TIP3  OH2          -9.9825941173       12.5855370754       -5.1905752060  CLST          21          1.0000000000
        62        21  TIP3  H1          -10.1252315069       13.2254914106       -5.8534907482  CLST          21          1.0000000000
        63        21  TIP3  H2           -9.1934648602       12.2911626551       -5.6608475592  CLST          21          1.0000000000
        64        22  TIP3  OH2           2.8810523055       12.1587285893       -6.4496625172  CLST          22          1.0000000000
        65        22  TIP3  H1            3.4435229066       11.3923492642       -6.3029708158  CLST          22          1.0000000000
        66        22  TIP3  H2            3.2257592671       12.6349061045       -5.5915983758  CLST          22          1.0000000000
        67        23  TIP3  OH2           5.6143942841       -1.6854714598       11.5756142069  CLST          23          1.0000000000
        68        23  TIP3  H1            5.0416993725       -2.3209807564       11.0447920115  CLST          23          1.0000000000
        69        23  TIP3  H2            5.2685518904       -0.8393924744       11.1839613309  CLST          23          1.0000000000
        70        24  TIP3  OH2          -0.1968307271        1.0847763816        4.4995292775  CLST          24          1.0000000000
        71        24  TIP3  H1            0.6947841012        0.9650539136        4.9217594644  CLST          24          1.0000000000
        72        24  TIP3  H2           -0.7241022375        0.4030825772        5.0197951805  CLST          24          1.0000000000
        73        25  TIP3  OH2           3.3627383018        2.0246866282       -2.5052798132  CLST          25          1.0000000000
        74        25  TIP3  H1            3.7878668060        1.3065289963       -1.9358785422  CLST          25          1.0000000000
        75        25  TIP3  H2            3.8200154563        2.8304745932       -2.2709370292  CLST          25          1.0000000000
        76        26  TIP3  OH2          11.3313655582        5.5552298987       -6.5985123359  CLST          26          1.0000000000
        77        26  TIP3  H1           10.4166173369        5.3565227594       -6.9745152138  CLST          26          1.0000000000
        78        26  TIP3  H2           11.0911501222        6.4201132862       -6.2291982416  CLST          26          1.0000000000
        79        27  TIP3  OH2         -10.3882538804        7.2162244565       -5.4814963757  CLST          27          1.0000000000
        80        27  TIP3  H1          -10.3291478557        7.7888625648       -4.6796260183  CLST          27          1.0000000000
        81        27  TIP3  H2          -10.6989835771        7.7404085745       -6.1713974441  CLST          27          1.0000000000
        82        28  TIP3  OH2          -4.2823137068      -10.2389030257       -6.7457919505  CLST          28          1.0000000000
        83        28  TIP3  H1           -4.0758292319      -11.2347237531       -6.6421562747  CLST          28          1.0000000000
        84        28  TIP3  H2           -5.0001061555      -10.2195730990       -6.0530868215  CLST          28          1.0000000000
        85        29  TIP3  OH2         -10.5971516596        7.5739935495       -2.7510622111  CLST          29          1.0000000000
        86        29  TIP3  H1          -10.1310347946        8.1626649881       -2.1017796304  CLST          29          1.0000000000
        87        29  TIP3  H2          -11.4750400850        8.1687803981       -2.6702471023  CLST          29          1.0000000000
        88        30  TIP3  OH2           8.9193136721      -10.4099026468       -2.1387783412  CLST          30          1.0000000000
        89        30  TIP3  H1            9.2714195501      -10.8247821992       -1.2750650548  CLST          30          1.0000000000
        90        30  TIP3  H2            8.5756373451      -11.2751735419       -2.4781974430  CLST          30          1.0000000000
        91        31  TIP3  OH2          -9.8328109290       -1.1245693885      -12.9210505939  CLST          31          1.0000000000
        92        31  TIP3  H1           -9.8445408616       -2.1016413334      -12.7340527393  CLST          31          1.0000000000
        93        31  TIP3  H2           -9.5977929924       -0.7408112478      -12.0410071328  CLST          31          1.0000000000
        94        32  TIP3  OH2          -8.8224607823       -6.5343046180        6.9207786151  CLST          32          1.0000000000
        95        32  TIP3  H1           -9.7767091035       -6.3673133601        6.8739054387  CLST          32          1.0000000000
        96        32  TIP3  H2           -8.6286281144       -5.7763258255        6.2687676257  CLST          32          1.0000000000
        97        33  TIP3  OH2          11.6260627257       -9.1256742416        8.8706583212  CLST          33          1.0000000000
        98        33  TIP3  H1           11.8103716751      -10.0789030386        8.9272917666  CLST          33          1.0000000000
        99        33  TIP3  H2           11.0146400112       -8.9974381646        9.6167492725  CLST          33          1.0000000000
       100        34  TIP3  OH2           4.2003687101       -3.9000951854        2.8562203686  CLST          34          1.0000000000
       101        34  TIP3  H1            3.5887286391       -4.1739076758        2.1599334719  CLST          34          1.0000000000
       102        34  TIP3  H2            4.4878076348       -4.7327931917        3.2794387142  CLST          34          1.0000000000
       103        35  TIP3  OH2           6.1365821056       -0.7637478822        4.3081119808  CLST          35          1.0000000000
       104        35  TIP3  H1            5.2450958851       -1.0490677664        4.6879563840  CLST          35          1.0000000000
       105        35  TIP3  H2            6.5294316627       -0.2784333232        5.1019510324  CLST          35          1.0000000000
       106        36  TIP3  OH2          -1.6549376263        1.2208567962        2.2919522617  CLST          36          1.0000000000
       107        36  TIP3  H1           -2.5180973891        1.1312600572        2.6897427842  CLST          36          1.0000000000
       108        36  TIP3  H2           -1.2076052558        1.0251235305        3.1461554531  CLST          36          1.0000000000
       109        37  TIP3  OH2          -4.4281819002       -8.1942587036      -13.0723566044  CLST          37          1.0000000000
       110        37  TIP3  H1           -4.9358101431       -8.5212717950      -12.3491918932  CLST          37          1.0000000000
       111        37  TIP3  H2           -4.1148601596       -9.0522946639      -13.4623962179  CLST          37          1.0000000000
       112        38  TIP3  OH2          -3.0672088640        2.1794182576       -4.4772038736  CLST          38          1.0000000000
       113        38  TIP3  H1           -2.9625516561        3.1372949156       -4.7564192674  CLST          38          1.0000000000
       114        38  TIP3  H2           -3.7056294550        1.9462102873       -5.1888967435  CLST          38          1.0000000000
       115        39  TIP3  OH2           1.6523194096      -10.8941372155        2.1078319687  CLST          39          1.0000000000
       116        39  TIP3  H1            1.3982270922      -11.4833604426        2.8506995647  CLST          39          1.0000000000
       117        39  TIP3  H2            0.7687825294      -10.4787281316        1.9820342662  CLST          39          1.0000000000
       118        40  TIP3  OH2          -7.1010267295       12.4551584367        8.2162598740  CLST          40          1.0000000000
       119        40  TIP3  H1           -7.9554672524       12.7536010533        7.8142661359  CLST          40          1.0000000000
       120        40  TIP3  H2           -6.4453637475       12.7381834671        7.5809452645  CLST          40          1.0000000000
       121        41  TIP3  OH2           9.7237116080       -2.4497208295      -11.1117437974  CLST          41          1.0000000000
       122        41  TIP3  H1            8.9597797619       -3.0148022772      -10.8166018768  CLST          41          1.0000000000
       123        41  TIP3  H2            9.4084592257       -1.5926122686      -10.9009636160  CLST          41          1.0000000000
       124        42  TIP3  OH2           9.6748582414       10.1826886565      -10.7095461073  CLST          42          1.0000000000
       125        42  TIP3  H1           10.4733672940       10.1704823104      -10.1499161069  CLST          42          1.0000000000
       126        42  TIP3  H2           10.1340301098       10.1056368489      -11.6112411356  CLST          42          1.0000000000
       127        43  TIP3  OH2          11.9193880860       12.6449180334        7.7193332299  CLST          43          1.0000000000
       128        43  TIP3  H1           12.6272967753       13.2049036429        7.9360946546  CLST          43          1.0000000000
       129        43  TIP3  H2           12.2396609980       11.8129086952        8.1619090310  CLST          43          1.0000000000
       130        44  TIP3  OH2           7.5958582770        0.8806811268        6.0592507873  CLST          44          1.0000000000
       131        44  TIP3  H1            7.8222255833        1.4288722642        6.8483730981  CLST          44          1.0000000000
       132        44  TIP3  H2            7.3598596865        1.6566103722        5.4741307809  CLST          44          1.0000000000
       133        45  TIP3  OH2           7.9697892414        9.3973058696        7.3043717279  CLST          45          1.0000000000
       134        45  TIP3  H1            7.9241108208        8.4724953527        7.5829786878  CLST          45          1.0000000000
       135        45  TIP3  H2            8.8426103002        9.6422414103        7.6762084263  CLST          45          1.0000000000
       136        46  TIP3  OH2          -5.7012956653       -3.2203777937      -13.0647435204  CLST          46          1.0000000000
       137        46  TIP3  H1           -5.3824911620       -4.1842612745      -13.0876132318  CLST          46          1.0000000000
       138        46  TIP3  H2           -4.8951456315       -2.9404831990      -12.5604508726  CLST          46          1.0000000000
       139        47  TIP3  OH2           1.1393246410       -6.5225376928      -10.9488997910  CLST          47          1.0000000000
       140        47  TIP3  H1            1.6739120490       -5.7208710990      -10.7180543133  CLST          47          1.0000000000
       141        47  TIP3  H2            1.1052358530       -6.2844337499      -11.9027718559  CLST          47          1.0000000000
       142        48  TIP3  OH2           5.0417547251        5.7212542818        0.9930892742  CLST          48          1.0000000000
       143        48  TIP3  H1            5.9704469979        5.3522351897        0.8611900473  CLST          48          1.0000000000
       144        48  TIP3  H2            5.3409196004        6.7248077537        0.9041749810  CLST          48          1.0000000000
       145        49  TIP3  OH2          -3.3519771888      -10.5900922707      -13.7203880208  CLST          49          1.0000000000
       146        49  TIP3  H1           -2.4272778150      -10.6451034178      -13.6873960303  CLST          49          1.0000000000
       147        49  TIP3  H2           -3.7163366727      -11.3429391448      -13.1994105631  CLST          49          1.0000000000
       148        50  TIP3  OH2           2.7525235383        3.8143400960        6.0353789582  CLST          50          1.0000000000
       149        50  TIP3  H1            1.9040107762        4.2289683964        6.3793768470  CLST          50          1.0000000000
       150        50  TIP3  H2            2.4469157104        3.5663416914        5.0854859430  CLST          50          1.0000000000
       151        51  TIP3  OH2          -6.5964141201       -9.9356681125       -4.6694554619  CLST          51          1.0000000000
       152        51  TIP3  H1           -6.6278306078       -9.8761957488       -3.6783689129  CLST          51          1.0000000000
       153        51  TIP3  H2           -6.4239039342      -10.8736349206       -4.7959726118  CLST          51          1.0000000000
       154        52  TIP3  OH2           9.0601565799       -5.6396567657       -0.2339587659  CLST          52          1.0000000000
       155        52  TIP3  H1            9.3255157819       -5.5066102015       -1.1844488686  CLST          52          1.0000000000
       156        52  TIP3  H2            9.1305483779       -4.7120854949        0.0373828741  CLST          52          1.0000000000
       157        53  TIP3  OH2          -9.5961630875        9.9864726235      -12.3419665920  CLST          53          1.0000000000
       158        53  TIP3  H1          -10.0541576094       10.3727895099      -13.4888836523  CLST          53          1.0000000000
       159        53  TIP3  H2           -8.9842568366        9.6730142856      -12.8553091919  CLST          53          1.0000000000
       160        54  TIP3  OH2           0.4571484668       -2.7718442679       -9.4532716595  CLST          54          1.0000000000
       161        54  TIP3  H1            1.0989475951       -3.1218408544      -10.0742356984  CLST          54          1.0000000000
       162        54  TIP3  H2           -0.0286574363       -2.1316517323      -10.0829207020  CLST          54          1.0000000000
       163        55  TIP3  OH2           2.9334305086       -4.0364518690      -14.7251608453  CLST          55          1.0000000000
       164        55  TIP3  H1            2.8895935974       -4.9415126369      -14.3798898128  CLST          55          1.0000000000
       165        55  TIP3  H2            3.3266775114       -4.3185392341      -15.5810150630  CLST          55          1.0000000000
       166        56  TIP3  OH2          -9.9871504191       11.1230754078        5.6827816925  CLST          56          1.0000000000
       167        56  TIP3  H1          -10.2973312915       10.2872928741        6.1422062634  CLST          56          1.0000000000
       168        56  TIP3  H2          -10.3147685464       10.9547033877        4.8003455926  CLST          56          1.0000000000
       169        57  TIP3  OH2           1.3965636422      -13.4352744855        0.4255597861  CLST          57          1.0000000000
       170        57  TIP3  H1            1.7013558286      -12.6569443872        0.9690388417  CLST          57          1.0000000000
       171        57  TIP3  H2            2.1896948271      -13.3499246182       -0.1660922489  CLST          57          1.0000000000
       172        58  TIP3  OH2         -12.9619432439       10.6010770969        6.8377072363  CLST          58          1.0000000000
       173        58  TIP3  H1          -12.6413742889       11.5124154490        6.8171881829  CLST          58          1.0000000000
       174        58  TIP3  H2          -12.7978633656       10.3441657123        7.7874645051  CLST          58          1.0000000000
       175        59  TIP3  OH2         -11.7593761361       -2.6857387855        5.5073556448  CLST          59          1.0000000000
       176        59  TIP3  H1          -11.8711522569       -2.3034209525        6.3933136785  CLST          59          1.0000000000
       177        59  TIP3  H2          -11.9830936485       -1.9386160853        4.9229396521  CLST          59          1.0000000000
       178        60  TIP3  OH2           1.4987086532        9.5552893184        8.4862894818  CLST          60          1.0000000000
       179        60  TIP3  H1            0.6651119185        8.9960580213        8.1541642505  CLST          60          1.0000000000
       180        60  TIP3  H2            1.9579890474        8.7465525103        8.8840691405  CLST          60          1.0000000000
       181        61  TIP3  OH2           2.8755307740       -0.7381899275       -5.4260881306  CLST          61          1.0000000000
       182        61  TIP3  H1            3.4351169574       -1.6631047415       -5.2686504070  CLST          61          1.0000000000
       183        61  TIP3  H2            2.2638706110       -1.1062440251       -6.1429864786  CLST          61          1.0000000000
       184        62  TIP3  OH2           8.1072397713        8.2610096847       12.5895448251  CLST          62          1.0000000000
       185        62  TIP3  H1            8.1563860360        7.6625659492       11.8204399659  CLST          62          1.0000000000
       186        62  TIP3  H2            8.2870103949        9.1614206932       12.1035500241  CLST          62          1.0000000000
       187        63  TIP3  OH2           4.5622615543       -6.9129246756      -10.1683454904  CLST          63          1.0000000000
       188        63  TIP3  H1            3.6750126576       -7.0566487909      -10.5651178728  CLST          63          1.0000000000
       189        63  TIP3  H2            5.1446913227       -7.2699860554      -10.9082270766  CLST          63          1.0000000000
       190        64  TIP3  OH2          -2.4052550499       11.7703694652        5.2693024771  CLST          64          1.0000000000
       191        64  TIP3  H1           -2.4108334536       10.7888280827        5.2130406225  CLST          64          1.0000000000
       192        64  TIP3  H2           -1.6811566572       11.9525315500        5.9074373360  CLST          64          1.0000000000
       193        65  TIP3  OH2          10.8054733287       -4.2624261874       -5.3597600858  CLST          65          1.0000000000
       194        65  TIP3  H1           11.0415719301       -3.9797728939       -6.2798695276  CLST          65          1.0000000000
       195        65  TIP3  H2           11.1405978813       -3.4043144204       -4.9824818654  CLST          65          1.0000000000
       196        66  TIP3  OH2           6.3112970696       -9.9473302135        9.1853127648  CLST          66          1.0000000000
       197        66  TIP3  H1            5.4411119908       -9.8413389572        8.6895423155  CLST          66          1.0000000000
       198        66  TIP3  H2            6.7754617403       -9.2129634952        8.7389805592  CLST          66          1.0000000000
       199        67  TIP3  OH2         -11.7305868011       -7.5830733756       -4.0399492474  CLST          67          1.0000000000
       200        67  TIP3  H1          -10.7971712164       -7.3449328803       -4.4175242471  CLST          67          1.0000000000
       201        67  TIP3  H2          -12.2214225384       -7.0596285040       -4.6830738298  CLST          67          1.0000000000
       202        68  TIP3  OH2          -0.6622008381       -5.5727812270        5.4089646043  CLST          68          1.0000000000
       203        68  TIP3  H1            0.3336723215       -5.3810862336        5.5589746600  CLST          68          1.0000000000
       204        68  TIP3  H2           -0.9302815112       -5.4487192966        6.3817515109  CLST          68          1.0000000000
       205        69  TIP3  OH2           8.1056154897       11.5086942423       -8.7458736988  CLST          69          1.0000000000
       206        69  TIP3  H1            8.3527962892       11.1500102938       -9.6333688484  CLST          69          1.0000000000
       207        69  TIP3  H2            9.0325116315       11.6609361471       -8.4312116637  CLST          69          1.0000000000
       208        70  TIP3  OH2          -1.0818559380      -12.4241622449       -0.5460368422  CLST          70          1.0000000000
       209        70  TIP3  H1           -0.0915941988      -12.3950582999       -0.4695275723  CLST          70          1.0000000000
       210        70  TIP3  H2           -1.2447281429      -12.5539245517        0.4210234186  CLST          70          1.0000000000
       211        71  TIP3  OH2         -10.2325597891       -7.4084343496        2.0215244844  CLST          71          1.0000000000
       212        71  TIP3  H1          -11.0457640017       -6.9177402432        2.2249894155  CLST          71          1.0000000000
       213        71  TIP3  H2          -10.5686549705       -8.0544310907        1.3387677336  CLST          71          1.0000000000
       214        72  TIP3  OH2           0.2255928279        2.0166697751       -1.4274846420  CLST          72          1.0000000000
       215        72  TIP3  H1           -0.0538472128        1.0621572155       -1.3958294471  CLST          72          1.0000000000
       216        72  TIP3  H2            1.0022166686        1.8703784674       -2.0233555844  CLST          72          1.0000000000
       217        73  TIP3  OH2          -9.6868963012       13.0724047514        7.4762951931  CLST          73          1.0000000000
       218        73  TIP3  H1           -9.8990564787       12.2912231669        6.8701265769  CLST          73          1.0000000000
       219        73  TIP3  H2          -10.2917400110       13.6939891809        6.8591524789  CLST          73          1.0000000000
       220        74  TIP3  OH2           6.6737815760       -2.7759659466       -3.5155645428  CLST          74          1.0000000000
       221        74  TIP3  H1            6.9118603957       -3.7218874304       -3.7753211338  CLST          74          1.0000000000
       222        74  TIP3  H2            7.5996713576       -2.5091095636       -3.2658961343  CLST          74          1.0000000000
       223        75  TIP3  OH2           2.8900623439      -13.3646628026       -6.7228069782  CLST          75          1.0000000000
       224        75  TIP3  H1            3.0260345685      -12.4393830038       -6.4078700676  CLST          75          1.0000000000
       225        75  TIP3  H2            2.9375805346      -13.8371677129       -5.8328097271  CLST          75          1.0000000000
       226        76  TIP3  OH2           3.9073430637       -9.7821031304        1.2975793764  CLST          76          1.0000000000
       227        76  TIP3  H1            3.9304453105       -8.8362465887        1.4902185436  CLST          76          1.0000000000
       228        76  TIP3  H2            3.0473705325      -10.1481052527        1.6099317014  CLST          76          1.0000000000
       229        77  TIP3  OH2          10.4173050888       -8.4657080990       -2.7322085436  CLST          77          1.0000000000
       230        77  TIP3  H1            9.7421708550       -9.2398936815       -2.7079321427  CLST          77          1.0000000000
       231        77  TIP3  H2           10.5379673953       -8.2594655809       -3.6183059068  CLST          77          1.0000000000
       232        78  TIP3  OH2          10.6177471646       11.7721640033       -7.9211324872  CLST          78          1.0000000000
       233        78  TIP3  H1           11.2780728961       11.0567293273       -8.2831611568  CLST          78          1.0000000000
       234        78  TIP3  H2           10.9136803912       12.1793709439       -7.2311931758  CLST          78          1.0000000000
       235        79  TIP3  OH2          12.7081759265        0.5852566584        1.0406119607  CLST          79          1.0000000000
       236        79  TIP3  H1           13.5734962434        0.6832253281        1.4058090853  CLST          79          1.0000000000
       237        79  TIP3  H2           12.2805106553        1.3787853262        1.3993355706  CLST          79          1.0000000000
       238        80  TIP3  OH2          -7.4834148687       -0.0077019758        6.6406821574  CLST          80          1.0000000000
       239        80  TIP3  H1           -7.3776394977        0.0614199400        5.6336199867  CLST          80          1.0000000000
       240        80  TIP3  H2           -6.5058054130       -0.1071168370        6.8120036210  CLST          80          1.0000000000
       241        81  TIP3  OH2          -7.6998780011      -10.9940839591        2.1463510326  CLST          81          1.0000000000
       242        81  TIP3  H1           -6.8973217367      -11.1563525059        1.5466781784  CLST          81          1.0000000000
       243        81  TIP3  H2           -7.1155268348      -11.0239416820        2.9529477540  CLST          81          1.0000000000
       244        82  TIP3  OH2          -1.6510546252       -9.9060189429       -6.5295652431  CLST          82          1.0000000000
       245        82  TIP3  H1           -2.6995367179       -9.8932033359       -6.5791986887  CLST          82          1.0000000000
       246        82  TIP3  H2           -1.4183878065      -10.6044397987       -5.9420039383  CLST          82          1.0000000000
       247        83  TIP3  OH2          12.1344468580       -8.4177932376        1.3433813093  CLST          83          1.0000000000
       248        83  TIP3  H1           12.3647095263       -7.7825895586        2.0537327111  CLST          83          1.0000000000
       249        83  TIP3  H2           11.1542925565       -8.3627269210        1.3381247623  CLST          83          1.0000000000
       250        84  TIP3  OH2          -3.6705822621       10.9590535935       -2.0805626232  CLST          84          1.0000000000
       251        84  TIP3  H1           -5.1254558845       10.2933744669       -3.0337834882  CLST          84          1.0000000000
       252        84  TIP3  H2           -4.1578981431       11.8232821629       -2.1020696539  CLST          84          1.0000000000
       253        85  TIP3  OH2           5.8837194895       -2.0631227988        0.1052844986  CLST          85          1.0000000000
       254        85  TIP3  H1            6.1872996246       -1.5205796328        0.8815086093  CLST          85          1.0000000000
       255        85  TIP3  H2            6.5202524163       -2.8058779937        0.1955378034  CLST          85          1.0000000000
       256        86  TIP3  OH2           6.4116401777       -8.3899204374        5.7489063253  CLST          86          1.0000000000
       257        86  TIP3  H1            5.5989741553       -8.4188074552        6.3137335537  CLST          86          1.0000000000
       258        86  TIP3  H2            6.4319131548       -7.4765269855        5.4069877276  CLST          86          1.0000000000
       259        87  TIP3  OH2          -1.3603347260       -3.4920788051       10.7854154720  CLST          87          1.0000000000
       260        87  TIP3  H1           -0.7578223809       -3.7085154690       11.5516061200  CLST          87          1.0000000000
       261        87  TIP3  H2           -2.1691958011       -4.0491820767       10.9948898371  CLST          87          1.0000000000
       262        88  TIP3  OH2          -1.0162972896        4.4272376333       -7.8842614851  CLST          88          1.0000000000
       263        88  TIP3  H1           -1.1911553640        3.4475572877       -7.6779029872  CLST          88          1.0000000000
       264        88  TIP3  H2           -1.9540918431        4.7656467024       -7.8508194120  CLST          88          1.0000000000
       265        89  TIP3  OH2           3.4980386796        0.8295132335      -11.6257437784  CLST          89          1.0000000000
       266        89  TIP3  H1            3.3677892082        1.5974348609      -12.1291311937  CLST          89          1.0000000000
       267        89  TIP3  H2            3.2279154558        0.2641319079      -12.3286942685  CLST          89          1.0000000000
       268        90  TIP3  OH2           5.5780689271       11.2646710533       -5.5229513031  CLST          90          1.0000000000
       269        90  TIP3  H1            5.3798203641       12.1428175213       -4.9701786595  CLST          90          1.0000000000
       270        90  TIP3  H2            5.7469491635       11.6885033847       -6.4519825007  CLST          90          1.0000000000
       271        91  TIP3  OH2           5.9911437074       -7.9056874105      -12.2401854072  CLST          91          1.0000000000
       272        91  TIP3  H1            6.2766094295       -8.8285700775      -12.3799273404  CLST          91          1.0000000000
       273        91  TIP3  H2            6.8814173412       -7.4676916977      -12.1200119747  CLST          91          1.0000000000
       274        92  TIP3  OH2           9.8383636358       11.5909997835        2.3777770049  CLST          92          1.0000000000
       275        92  TIP3  H1           10.3315574297       11.7051399300        3.2901444084  CLST          92          1.0000000000
       276        92  TIP3  H2            9.5283072865       12.5180607766        2.3079402867  CLST          92          1.0000000000
       277        93  TIP3  OH2          -8.6775545479        7.2727864610        2.5304445048  CLST          93          1.0000000000
       278        93  TIP3  H1           -8.5604669069        8.2703131679        2.4087638629  CLST          93          1.0000000000
       279        93  TIP3  H2           -7.8521739900        6.9926998079        2.9492366654  CLST          93          1.0000000000
       280        94  TIP3  OH2         -14.1615565425        6.7869745349        6.4797224362  CLST          94          1.0000000000
       281        94  TIP3  H1          -13.3210153075        7.2516417696        6.1227214744  CLST          94          1.0000000000
       282        94  TIP3  H2          -14.4790161565        6.6469925613        5.5580654118  CLST          94          1.0000000000
       283        95  TIP3  OH2           9.6427033424        5.6919173564       -1.8386204854  CLST          95          1.0000000000
       284        95  TIP3  H1            9.7810506139        5.9646502596       -0.8969688360  CLST          95          1.0000000000
       285        95  TIP3  H2           10.1706598891        4.8483688694       -1.7953433521  CLST          95          1.0000000000
       286        96  TIP3  OH2           9.6415646975      -10.9336296068       11.2456488536  CLST          96          1.0000000000
       287        96  TIP3  H1           10.4641133838      -11.1969586755       10.7752061161  CLST          96          1.0000000000
       288        96  TIP3  H2            9.2048610559      -11.8085993775       11.3369697735  CLST          96          1.0000000000
       289        97  TIP3  OH2          -7.6774495617        6.8933124483        8.4731874112  CLST          97          1.0000000000
       290        97  TIP3  H1           -7.3439627514        5.9906772909        8.8007494493  CLST          97          1.0000000000
       291        97  TIP3  H2           -8.6562382078        6.7412977829        8.4841839654  CLST          97          1.0000000000
       292        98  TIP3  OH2           5.9538332139        0.6013605977       -3.4780155833  CLST          98          1.0000000000
       293        98  TIP3  H1            6.6381526549        0.4821128561       -2.7932412609  CLST          98          1.0000000000
       294        98  TIP3  H2            5.3547917101       -0.1036703064       -3.1335586179  CLST          98          1.0000000000
       295        99  TIP3  OH2          -6.7671814750      -11.6091555115        4.7534322603  CLST          99          1.0000000000
       296        99  TIP3  H1           -7.1367239377      -11.4920086843        5.6388229192  CLST          99          1.0000000000
       297        99  TIP3  H2           -5.8979162634      -12.0185123574        4.9731627305  CLST          99          1.0000000000
       298       100  TIP3  OH2           2.2705334519        0.5371542076       -9.0389961186  CLST         100          1.0000000000
       299       100  TIP3  H1            2.7098199490        0.5324475554       -9.9675839157  CLST         100          1.0000000000
       300       100  TIP3  H2            2.5971305142        1.3888651145       -8.7080395913  CLST         100          1.0000000000
       301       101  TIP3  OH2          12.6163825567       -6.9513254292        3.9462901364  CLST         101          1.0000000000
       302       101  TIP3  H1           12.6409331115       -7.4431031949        4.8654191662  CLST         101          1.0000000000
       303       101  TIP3  H2           13.1949999141       -6.3263842244        4.0020235049  CLST         101          1.0000000000
       304       102  TIP3  OH2         -12.0161121099       10.2281043803        1.3036029162  CLST         102          1.0000000000
       305       102  TIP3  H1          -12.7705383494       10.1052915897        1.9950837999  CLST         102          1.0000000000
       306       102  TIP3  H2          -12.4671050142        9.6253103108        0.6924819530  CLST         102          1.0000000000
       307       103  TIP3  OH2          -0.6819201769       -9.3779441179        7.8059849513  CLST         103          1.0000000000
       308       103  TIP3  H1           -0.0389080515       -9.5366126359        8.5567914514  CLST         103          1.0000000000
       309       103  TIP3  H2           -1.2002213617      -10.2196016435        7.9840247035  CLST         103          1.0000000000
       310       104  TIP3  OH2          -4.4845160362      -12.2574395343        9.9658498465  CLST         104          1.0000000000
       311       104  TIP3  H1           -5.1107824954      -11.9116345423       10.5635962706  CLST         104          1.0000000000
       312       104  TIP3  H2           -5.1357251323      -12.5100667588        9.1773197443  CLST         104          1.0000000000
       313       105  TIP3  OH2          -5.1913213897       10.7567303379      -11.4653306321  CLST         105          1.0000000000
       314       105  TIP3  H1           -4.9305227133       11.3478126031      -12.2247431209  CLST         105          1.0000000000
       315       105  TIP3  H2           -5.7980976926       10.1234796417      -11.9549841349  CLST         105          1.0000000000
       316       106  TIP3  OH2           7.4164729006       -8.1282136451       -1.4349958148  CLST         106          1.0000000000
       317       106  TIP3  H1            8.1887963419       -7.6044477348       -1.6949701295  CLST         106          1.0000000000
       318       106  TIP3  H2            7.7075129136       -9.0388778387       -1.6520380685  CLST         106          1.0000000000
       319       107  TIP3  OH2          -8.4140995224       -4.7634019665        5.1091301077  CLST         107          1.0000000000
       320       107  TIP3  H1           -9.1138025335       -4.4029593568        4.5450851887  CLST         107          1.0000000000
       321       107  TIP3  H2           -7.5775611727       -4.3546680323        4.7234342808  CLST         107          1.0000000000
       322       108  TIP3  OH2         -10.4016039697        2.0862235268        9.5433937454  CLST         108          1.0000000000
       323       108  TIP3  H1           -9.4534666521        1.8187171369        9.3150050054  CLST         108          1.0000000000
       324       108  TIP3  H2          -10.7419096922        1.2506435373        9.9528471364  CLST         108          1.0000000000
       325       109  TIP3  OH2           2.2248591203        6.9383593676        8.8359695918  CLST         109          1.0000000000
       326       109  TIP3  H1            1.4818785069        6.5037661726        9.3293085447  CLST         109          1.0000000000
       327       109  TIP3  H2            2.9906210699        6.3603710166        9.0070876374  CLST         109          1.0000000000
       328       110  TIP3  OH2           1.8177615975       12.3547258576      -11.1483082879  CLST         110          1.0000000000
       329       110  TIP3  H1            1.8060439602       13.2477690283      -11.2306443876  CLST         110          1.0000000000
       330       110  TIP3  H2            1.5265827245       12.2052103334      -10.2105313971  CLST         110          1.0000000000
       331       111  TIP3  OH2          11.8745396634      -11.8648178882        9.4061832895  CLST         111          1.0000000000
       332       111  TIP3  H1           12.8073300256      -12.0735610521        9.3203685217  CLST         111          1.0000000000
       333       111  TIP3  H2           11.5565499628      -12.4642212544        8.6978112344  CLST         111          1.0000000000
       334       112  TIP3  OH2           6.4567645230       -0.0958742899        1.8246792262  CLST         112          1.0000000000
       335       112  TIP3  H1            6.8983646352        0.7903359230        1.8389756725  CLST         112          1.0000000000
       336       112  TIP3  H2            6.3534033440       -0.2501986886        2.8135878679  CLST         112          1.0000000000
       337       113  TIP3  OH2         -12.9215132510        1.0552427297        0.1446198213  CLST         113          1.0000000000
       338       113  TIP3  H1          -13.5220661866        0.2280741868       -0.0459572754  CLST         113          1.0000000000
       339       113  TIP3  H2          -12.4969298886        1.0025770677       -0.7598387925  CLST         113          1.0000000000
       340       114  TIP3  OH2         -13.9409645431        3.6852148408       -0.3527683019  CLST         114          1.0000000000
       341       114  TIP3  H1          -13.7276639058        2.7530016545       -0.1560962638  CLST         114          1.0000000000
       342       114  TIP3  H2          -13.5905511118        3.6267367556       -1.3107432049  CLST         114          1.0000000000
       343       115  TIP3  OH2          -8.8417917117        0.3207716342      -10.8205827673  CLST         115          1.0000000000
       344       115  TIP3  H1           -8.2615993515        0.8453154169      -11.4104937275  CLST         115          1.0000000000
       345       115  TIP3  H2           -9.5176169175        1.0050212874      -10.6754617964  CLST         115          1.0000000000
       346       116  TIP3  OH2           6.9226229574       -5.5490088913        2.3444123580  CLST         116          1.0000000000
       347       116  TIP3  H1            7.7162265599       -5.5889314564        1.8024770759  CLST         116          1.0000000000
       348       116  TIP3  H2            6.9383375801       -4.5348377064        2.4725160654  CLST         116          1.0000000000
       349       117  TIP3  OH2          -0.7931128398       -0.0866499163       12.5658416516  CLST         117          1.0000000000
       350       117  TIP3  H1            0.0911136735       -0.5139571743       12.6983972347  CLST         117          1.0000000000
       351       117  TIP3  H2           -0.8557165582        0.3200250037       13.4402305301  CLST         117          1.0000000000
       352       118  TIP3  OH2           0.2483185343       -9.5221253190        5.1094007295  CLST         118          1.0000000000
       353       118  TIP3  H1           -0.0800491306       -9.1849541913        5.9700661186  CLST         118          1.0000000000
       354       118  TIP3  H2           -0.1330090180       -8.8896163770        4.4623383192  CLST         118          1.0000000000
       355       119  TIP3  OH2          -9.1123382777      -10.5741485432       -8.8986393094  CLST         119          1.0000000000
       356       119  TIP3  H1           -9.3783587106      -11.1154149931       -9.7196079455  CLST         119          1.0000000000
       357       119  TIP3  H2           -8.9914431544       -9.7542128710       -9.3442492022  CLST         119          1.0000000000
       358       120  TIP3  OH2           9.5580762760       -8.0448210527        1.2612147873  CLST         120          1.0000000000
       359       120  TIP3  H1            8.6938323537       -8.5348394531        1.2496055912  CLST         120          1.0000000000
       360       120  TIP3  H2            9.2891271244       -7.3560022215        0.6012586669  CLST         120          1.0000000000
       361       121  TIP3  OH2          -5.5971349990       -0.1670795556       -7.9533504573  CLST         121          1.0000000000
       362       121  TIP3  H1           -5.5574669455        0.0797875698       -8.9086635695  CLST         121          1.0000000000
       363       121  TIP3  H2           -4.8775889338       -0.8634060037       -7.9608949934  CLST         121          1.0000000000
       364       122  TIP3  OH2          10.4724170264       12.1371501423        5.2443987393  CLST         122          1.0000000000
       365       122  TIP3  H1            9.5029676555       12.3268444229        5.4557814309  CLST         122          1.0000000000
       366       122  TIP3  H2           10.8963550528       12.5624867016        6.0208639298  CLST         122          1.0000000000
       367       123  TIP3  OH2          -7.3143456896       -5.5346461626      -11.2182218322  CLST         123          1.0000000000
       368       123  TIP3  H1           -6.5835962283       -6.1152485674      -11.4560786434  CLST         123          1.0000000000
       369       123  TIP3  H2           -7.2194750999       -5.4737592977      -10.2466219474  CLST         123          1.0000000000
       370       124  TIP3  OH2          -6.0903736738       -8.6434670873      -10.7643965848  CLST         124          1.0000000000
       371       124  TIP3  H1           -5.4435808166       -9.0374405132      -10.0997503184  CLST         124          1.0000000000
       372       124  TIP3  H2           -6.7587709041       -8.3406748428      -10.0739635829  CLST         124          1.0000000000
       373       125  TIP3  OH2         -13.2654096612        4.1794233952        8.0567190150  CLST         125          1.0000000000
       374       125  TIP3  H1          -12.8062845362        3.6422935382        7.3909623181  CLST         125          1.0000000000
       375       125  TIP3  H2          -13.7339525546        4.9017872855        7.6710835868  CLST         125          1.0000000000
       376       126  TIP3  OH2          -6.9536230870      -10.7293806533      -12.0588800357  CLST         126          1.0000000000
       377       126  TIP3  H1           -6.1171812652      -11.2580924449      -11.8401989407  CLST         126          1.0000000000
       378       126  TIP3  H2           -6.6825857444       -9.8658304363      -11.6270892133  CLST         126          1.0000000000
       379       127  TIP3  OH2          -7.4259673297      -11.6438588487       -7.0232250805  CLST         127          1.0000000000
       380       127  TIP3  H1           -8.0802616117      -12.4240134201       -6.9104334349  CLST         127          1.0000000000
       381       127  TIP3  H2           -7.9322339965      -11.2699481192       -7.7616600769  CLST         127          1.0000000000
       382       128  TIP3  OH2          10.0357049169        0.7514047554       -2.4263733607  CLST         128          1.0000000000
       383       128  TIP3  H1            9.1034866147        0.4744924346       -2.1776099675  CLST         128          1.0000000000
       384       128  TIP3  H2            9.7846236006        1.5842650674       -3.0047675533  CLST         128          1.0000000000
       385       129  TIP3  OH2          -7.7975545731        9.6193730482        0.9508037563  CLST         129          1.0000000000
       386       129  TIP3  H1           -7.0057836459       10.0933874788        1.3389124049  CLST         129          1.0000000000
       387       129  TIP3  H2           -7.2199309293        8.9094825063        0.4784439796  CLST         129          1.0000000000
       388       130  TIP3  OH2          -3.9774696120        4.0860683233       10.0034180597  CLST         130          1.0000000000
       389       130  TIP3  H1           -3.5562526793        4.9738782286       10.1912954903  CLST         130          1.0000000000
       390       130  TIP3  H2           -3.6410066769        3.5571277566       10.7720700931  CLST         130          1.0000000000
       391       131  TIP3  OH2           7.7189103449       -3.7652300839       -9.9236094473  CLST         131          1.0000000000
       392       131  TIP3  H1            7.7688755932       -2.9433055861       -9.2463260388  CLST         131          1.0000000000
       393       131  TIP3  H2            6.7288374116       -3.8644391235       -9.8642676832  CLST         131          1.0000000000
       394       132  TIP3  OH2         -11.5158385041       11.3881561347       12.1877817033  CLST         132          1.0000000000
       395       132  TIP3  H1          -10.9712910026       11.9750913590       11.5989754830  CLST         132          1.0000000000
       396       132  TIP3  H2          -12.0158368871       11.8688238012       12.6587314206  CLST         132          1.0000000000
       397       133  TIP3  OH2          10.3197935514        9.3791782797        8.6220502597  CLST         133          1.0000000000
       398       133  TIP3  H1            9.9862100224        9.7229599913        9.4550612028  CLST         133          1.0000000000
       399       133  TIP3  H2           11.2850562168        9.5945349675        8.7978890844  CLST         133          1.0000000000
       400       134  TIP3  OH2          -7.6248336977        5.8682685495       -6.0913691450  CLST         134          1.0000000000
       401       134  TIP3  H1           -8.5774366855        6.0495065842       -6.0531841906  CLST         134          1.0000000000
       402       134  TIP3  H2           -7.3372756025        5.8825493739       -5.1417338281  CLST         134          1.0000000000
       403       135  TIP3  OH2          10.6779631673      -11.1691655440      -13.0779928664  CLST         135          1.0000000000
       404       135  TIP3  H1           10.9153793595      -10.4126435433      -12.4504362868  CLST         135          1.0000000000
       405       135  TIP3  H2           10.9927671600      -10.9080634762      -13.8347833887  CLST         135          1.0000000000
       406       136  TIP3  OH2          -4.3418717116        1.9123648717       -7.0025752752  CLST         136          1.0000000000
       407       136  TIP3  H1           -4.7491421035        1.0026114773       -7.1760493401  CLST         136          1.0000000000
       408       136  TIP3  H2           -5.1585355290        2.2223577645       -6.4601278856  CLST         136          1.0000000000
       409       137  TIP3  OH2          12.8384843719       10.3452889533        9.1167944769  CLST         137          1.0000000000
       410       137  TIP3  H1           12.9804928851       10.2170131587       10.0522694409  CLST         137          1.0000000000
       411       137  TIP3  H2           13.5122706550        9.6557602549        8.7018862830  CLST         137          1.0000000000
       412       138  TIP3  OH2          -0.8709333292       -9.7090973921        1.7174014639  CLST         138          1.0000000000
       413       138  TIP3  H1           -0.9836717146       -9.1011030680        0.9748155002  CLST         138          1.0000000000
       414       138  TIP3  H2           -0.9598599860       -9.0908422025        2.4589470873  CLST         138          1.0000000000
       415       139  TIP3  OH2          -9.5714401352      -10.8302611210        4.4515580649  CLST         139          1.0000000000
       416       139  TIP3  H1          -10.0872779146      -10.7877085424        3.6327972159  CLST         139          1.0000000000
       417       139  TIP3  H2           -8.8353429979      -11.3887797796        4.2503866324  CLST         139          1.0000000000
       418       140  TIP3  OH2          -7.1155746101        3.5790135526       -0.2014431831  CLST         140          1.0000000000
       419       140  TIP3  H1           -6.2993687856        4.0995901037       -0.0880499038  CLST         140          1.0000000000
       420       140  TIP3  H2           -7.7379360665        4.3948705053       -0.3528636657  CLST         140          1.0000000000
       421       141  TIP3  OH2           2.0475467644       -4.4710046866       -3.4588958314  CLST         141          1.0000000000
       422       141  TIP3  H1            1.7520820028       -3.5320045689       -3.2210973974  CLST         141          1.0000000000
       423       141  TIP3  H2            2.7678520586       -4.1557542631       -4.0272768305  CLST         141          1.0000000000
       424       142  TIP3  OH2         -11.7459172564        0.0675502776        4.6304064499  CLST         142          1.0000000000
       425       142  TIP3  H1          -11.5851464613        0.7492754487        5.3695835499  CLST         142          1.0000000000
       426       142  TIP3  H2          -12.5229560101        0.4929140113        4.2324386924  CLST         142          1.0000000000
       427       143  TIP3  OH2           9.4118533264       -5.7448718142       -8.3282424889  CLST         143          1.0000000000
       428       143  TIP3  H1            9.3556023551       -5.0401388684       -9.0242331630  CLST         143          1.0000000000
       429       143  TIP3  H2           10.2506792026       -6.1267843845       -8.5829714600  CLST         143          1.0000000000
       430       144  TIP3  OH2           3.3006812721       -2.7766105816        9.0907059273  CLST         144          1.0000000000
       431       144  TIP3  H1            2.3748602713       -2.4445579875        9.2873956741  CLST         144          1.0000000000
       432       144  TIP3  H2            3.6704592260       -2.0091657271        8.5783788272  CLST         144          1.0000000000
       433       145  TIP3  OH2         -10.2947958467       13.2600079611        3.1376256148  CLST         145          1.0000000000
       434       145  TIP3  H1          -10.5956660787       13.4940373377        2.2245968586  CLST         145          1.0000000000
       435       145  TIP3  H2          -10.0841018704       12.3241559827        2.9131412171  CLST         145          1.0000000000
       436       146  TIP3  OH2           9.3417355284        2.6830604399       -4.3398594724  CLST         146          1.0000000000
       437       146  TIP3  H1            9.1742656642        3.7023480641       -4.2930100426  CLST         146          1.0000000000
       438       146  TIP3  H2            8.5154743279        2.4706247244       -4.8976315172  CLST         146          1.0000000000
       439       147  TIP3  OH2         -11.1381591776       -0.3872917450       -4.2491640775  CLST         147          1.0000000000
       440       147  TIP3  H1          -10.2191469849       -0.7920304708       -4.3974064803  CLST         147          1.0000000000
       441       147  TIP3  H2          -11.4523984975       -0.7717263261       -5.1165230935  CLST         147          1.0000000000
       442       148  TIP3  OH2          -7.9429346268        1.4602198088        8.8761356113  CLST         148          1.0000000000
       443       148  TIP3  H1           -7.9380951074        0.9681162034        8.0291470914  CLST         148          1.0000000000
       444       148  TIP3  H2           -6.9767349631        1.6377679588        8.9793546097  CLST         148          1.0000000000
       445       149  TIP3  OH2           8.7412274828       -2.8636832178        0.8840731846  CLST         149          1.0000000000
       446       149  TIP3  H1            9.3891578359       -2.1242686972        0.7358738554  CLST         149          1.0000000000
       447       149  TIP3  H2            8.5267450975       -2.7238485188        1.8060357962  CLST         149          1.0000000000
       448       150  TIP3  OH2          -2.0643249115      -11.6194984078        8.4797599611  CLST         150          1.0000000000
       449       150  TIP3  H1           -2.9184045460      -11.8267097596        8.9271663289  CLST         150          1.0000000000
       450       150  TIP3  H2           -1.4090084438      -11.9349071705        9.2091357812  CLST         150          1.0000000000
       451       151  TIP3  OH2          -9.1917513089       -6.6944597902       -4.8963026085  CLST         151          1.0000000000
       452       151  TIP3  H1           -8.3013083957       -6.5844618658       -4.5202567236  CLST         151          1.0000000000
       453       151  TIP3  H2           -9.0273472587       -7.5393837958       -5.4518446104  CLST         151          1.0000000000
       454       152  TIP3  OH2           4.1432583904       -2.0970685579        5.0843862676  CLST         152          1.0000000000
       455       152  TIP3  H1            4.6221336007       -2.8587724732        5.5002968905  CLST         152          1.0000000000
       456       152  TIP3  H2            3.7015127519       -2.4673195716        4.3053513325  CLST         152          1.0000000000
       457       153  TIP3  OH2          -2.6798429246        4.8620960232      -14.1506822588  CLST         153          1.0000000000
       458       153  TIP3  H1           -1.7524577532        5.0863112352      -14.0214909083  CLST         153          1.0000000000
       459       153  TIP3  H2           -2.7518394105        4.1186096291      -13.5527100373  CLST         153          1.0000000000
       460       154  TIP3  OH2           4.5230571144       -7.0561841297        2.1902503595  CLST         154          1.0000000000
       461       154  TIP3  H1            5.4743876690       -6.7619940216        2.1050891655  CLST         154          1.0000000000
       462       154  TIP3  H2            4.1726627393       -6.5580664477        1.4321285759  CLST         154          1.0000000000
       463       155  TIP3  OH2           9.4306132209       -2.6683779179       10.1861507388  CLST         155          1.0000000000
       464       155  TIP3  H1            8.7358224950       -3.0519166070        9.6784912651  CLST         155          1.0000000000
       465       155  TIP3  H2            9.9470504471       -3.2392189278       10.6658335959  CLST         155          1.0000000000
       466       156  TIP3  OH2          -2.0962888938       11.3269068450       11.5748649616  CLST         156          1.0000000000
       467       156  TIP3  H1           -2.8558487349       11.8601365905       11.8035426723  CLST         156          1.0000000000
       468       156  TIP3  H2           -2.6314831620       10.4957521371       11.5607001671  CLST         156          1.0000000000
       469       157  TIP3  OH2           3.8251379681       -0.8313896831        7.4988295152  CLST         157          1.0000000000
       470       157  TIP3  H1            4.7752151497       -0.5179340302        7.6376715596  CLST         157          1.0000000000
       471       157  TIP3  H2            3.9474333292       -1.4008038295        6.6902693241  CLST         157          1.0000000000
       472       158  TIP3  OH2          10.5802334365        9.0751103824       13.0574714432  CLST         158          1.0000000000
       473       158  TIP3  H1            9.7701398593        8.4543466292       13.3794206062  CLST         158          1.0000000000
       474       158  TIP3  H2           10.0165684536        9.7369926713       12.6517439289  CLST         158          1.0000000000
       475       159  TIP3  OH2           0.4184485543      -12.1870456027        4.2489868196  CLST         159          1.0000000000
       476       159  TIP3  H1           -0.1939448582      -12.5140502575        4.9346143742  CLST         159          1.0000000000
       477       159  TIP3  H2            0.4843662669      -11.2420208532        4.6447429450  CLST         159          1.0000000000
       478       160  TIP3  OH2           7.2867993706       -3.5706153069        8.5235698265  CLST         160          1.0000000000
       479       160  TIP3  H1            6.8806891523       -3.6615069761        7.6205320789  CLST         160          1.0000000000
       480       160  TIP3  H2            6.8704945719       -2.6824477231        8.6589645805  CLST         160          1.0000000000
       481       161  TIP3  OH2          -2.3563498042       -2.3734505998        7.8399181622  CLST         161          1.0000000000
       482       161  TIP3  H1           -1.9544915598       -1.6905806681        8.4547859331  CLST         161          1.0000000000
       483       161  TIP3  H2           -3.2228539336       -2.4882265999        8.2971967849  CLST         161          1.0000000000
       484       162  TIP3  OH2          -0.8890441754        3.5473666819      -10.7832399467  CLST         162          1.0000000000
       485       162  TIP3  H1           -0.7685995388        4.2271001348      -11.4936962287  CLST         162          1.0000000000
       486       162  TIP3  H2           -0.7003400092        4.1369070371       -9.9873594013  CLST         162          1.0000000000
       487       163  TIP3  OH2         -10.0891702245        9.0855074203       11.2218684698  CLST         163          1.0000000000
       488       163  TIP3  H1          -10.8367620581        8.3738754929       11.2375214489  CLST         163          1.0000000000
       489       163  TIP3  H2          -10.4927881276        9.7727610298       11.8439989922  CLST         163          1.0000000000
       490       164  TIP3  OH2           4.0942763981      -10.3589241760       13.1205513467  CLST         164          1.0000000000
       491       164  TIP3  H1            4.6752134918       -9.7723290889       12.5764370290  CLST         164          1.0000000000
       492       164  TIP3  H2            4.7568543435      -11.0472086575       13.2050890059  CLST         164          1.0000000000
       493       165  TIP3  OH2         -12.2791819165       -5.3856664288        3.5106510176  CLST         165          1.0000000000
       494       165  TIP3  H1          -12.0549421896       -5.7091501625        4.4420087090  CLST         165          1.0000000000
       495       165  TIP3  H2          -13.1522617417       -5.0140885965        3.5953970695  CLST         165          1.0000000000
       496       166  TIP3  OH2          -1.5260032578       -6.3639401698      -10.4694593694  CLST         166          1.0000000000
       497       166  TIP3  H1           -0.6131453225       -6.7027114674      -10.5837840050  CLST         166          1.0000000000
       498       166  TIP3  H2           -2.0877487269       -7.0851134018      -10.6920480679  CLST         166          1.0000000000
       499       167  TIP3  OH2           7.9640867255       10.6331898206       -0.7952394151  CLST         167          1.0000000000
       500       167  TIP3  H1            8.5396227046       10.1526150733       -0.0753937156  CLST         167          1.0000000000
       501       167  TIP3  H2            8.3376793128       10.0217304859       -1.4679764137  CLST         167          1.0000000000
       502       168  TIP3  OH2          -0.6977548528      -13.4473126775        2.0657224362  CLST         168          1.0000000000
       503       168  TIP3  H1           -0.1499453264      -13.1071954509        2.8221668179  CLST         168          1.0000000000
       504       168  TIP3  H2           -0.0230353723      -13.8795872603        1.5095307742  CLST         168          1.0000000000
       505       169  TIP3  OH2           5.1800576108        4.0934511499        3.1095913813  CLST         169          1.0000000000
       506       169  TIP3  H1            4.3553676940        3.5392263083        3.2243016595  CLST         169          1.0000000000
       507       169  TIP3  H2            4.9889854030        4.5439444178        2.2683944512  CLST         169          1.0000000000
       508       170  TIP3  OH2          -1.0904815194        4.2247369477        1.4461851151  CLST         170          1.0000000000
       509       170  TIP3  H1           -1.7585416910        4.9840969235        1.2776383768  CLST         170          1.0000000000
       510       170  TIP3  H2           -1.6886080078        3.4638783390        1.3245875068  CLST         170          1.0000000000
       511       171  TIP3  OH2          -2.9173176658        1.2827340264        7.4501005655  CLST         171          1.0000000000
       512       171  TIP3  H1           -2.4847689503        0.8228399346        6.7324908496  CLST         171          1.0000000000
       513       171  TIP3  H2           -2.0639471281        1.7095924986        7.7922178427  CLST         171          1.0000000000
       514       172  TIP3  OH2          -6.0907057370      -12.8455616043        7.9576554310  CLST         172          1.0000000000
       515       172  TIP3  H1           -6.6784515750      -13.4659104374        7.5606672612  CLST         172          1.0000000000
       516       172  TIP3  H2           -5.3822391822      -12.7074972493        7.2901028403  CLST         172          1.0000000000
       517       173  TIP3  OH2          10.2454491727      -12.5821122021        1.7855579622  CLST         173          1.0000000000
       518       173  TIP3  H1           10.4687564418      -12.4186379086        0.7232805358  CLST         173          1.0000000000
       519       173  TIP3  H2            9.2786261362      -12.4701236122        1.7023936927  CLST         173          1.0000000000
       520       174  TIP3  OH2           0.1176910129        5.5852066664        9.8051548891  CLST         174          1.0000000000
       521       174  TIP3  H1           -0.2181802385        5.0818807118       10.5942108808  CLST         174          1.0000000000
       522       174  TIP3  H2           -0.5879741579        6.2596558394        9.8004500251  CLST         174          1.0000000000
       523       175  TIP3  OH2          -5.7135594808       10.2318109854       -3.6605693891  CLST         175          1.0000000000
       524       175  TIP3  H1           -5.3973961614        9.9816787050       -4.5862513021  CLST         175          1.0000000000
       525       175  TIP3  H2           -6.6758703270       10.3438835570       -3.9837069418  CLST         175          1.0000000000
       526       176  TIP3  OH2           6.8229519245        9.3604285401       -7.6258798748  CLST         176          1.0000000000
       527       176  TIP3  H1            7.2555862979       10.1979409670       -7.9518767940  CLST         176          1.0000000000
       528       176  TIP3  H2            6.5393143090        9.7151686546       -6.7695626698  CLST         176          1.0000000000
       529       177  TIP3  OH2          -3.8010256475      -11.4839204041       -1.4481009891  CLST         177          1.0000000000
       530       177  TIP3  H1           -2.9140473963      -11.7638672236       -1.1275976847  CLST         177          1.0000000000
       531       177  TIP3  H2           -4.2639783662      -11.4464889892       -0.5983174821  CLST         177          1.0000000000
       532       178  TIP3  OH2          11.0517840510       -9.0534602935      -11.5201046635  CLST         178          1.0000000000
       533       178  TIP3  H1           11.1636870345       -8.8982062439      -10.5709894613  CLST         178          1.0000000000
       534       178  TIP3  H2           10.9201410584       -8.1188402760      -11.7491105264  CLST         178          1.0000000000
       535       179  TIP3  OH2           6.4552140615       -0.8820079641        8.4365720238  CLST         179          1.0000000000
       536       179  TIP3  H1            6.2039912812       -0.1972074410        9.1244297541  CLST         179          1.0000000000
       537       179  TIP3  H2            7.3089606150       -0.5097016503        8.1236223835  CLST         179          1.0000000000
       538       180  TIP3  OH2          -7.4805355219        8.1055703203        5.9466614793  CLST         180          1.0000000000
       539       180  TIP3  H1           -7.2440409534        8.1761103479        6.9075817423  CLST         180          1.0000000000
       540       180  TIP3  H2           -8.4461930133        8.1740088490        6.1385106877  CLST         180          1.0000000000
       541       181  TIP3  OH2           5.9135756380      -13.0244480210       -0.2953652140  CLST         181          1.0000000000
       542       181  TIP3  H1            6.5647571271      -12.9556367573       -1.0035637776  CLST         181          1.0000000000
       543       181  TIP3  H2            6.4464769455      -13.1252610012        0.5246511555  CLST         181          1.0000000000
       544       182  TIP3  OH2          -1.7574859241       10.4621924435      -10.3121666970  CLST         182          1.0000000000
       545       182  TIP3  H1           -1.0901666822       10.9407272430       -9.7681324311  CLST         182          1.0000000000
       546       182  TIP3  H2           -2.5507300580       10.3688886032       -9.7602324432  CLST         182          1.0000000000
       547       183  TIP3  OH2          -5.3800634737        3.5246633903      -12.2740100219  CLST         183          1.0000000000
       548       183  TIP3  H1           -4.9997001170        3.5302169065      -11.3696271090  CLST         183          1.0000000000
       549       183  TIP3  H2           -6.2276969648        3.0131565907      -12.2019083801  CLST         183          1.0000000000
       550       184  TIP3  OH2           2.9338995895        8.2089127956       -2.4862219300  CLST         184          1.0000000000
       551       184  TIP3  H1            3.1019870408        7.7055102129       -1.6382832715  CLST         184          1.0000000000
       552       184  TIP3  H2            1.9970035534        7.9365780429       -2.5493966711  CLST         184          1.0000000000
       553       185  TIP3  OH2           7.5137124735        4.6848755585       12.1684945556  CLST         185          1.0000000000
       554       185  TIP3  H1            7.7780906514        3.6963425721       12.1096387653  CLST         185          1.0000000000
       555       185  TIP3  H2            6.9564411001        4.7215109525       12.9797466078  CLST         185          1.0000000000
       556       186  TIP3  OH2           3.8493044913        5.9093274921       -5.1727918437  CLST         186          1.0000000000
       557       186  TIP3  H1            4.0738280739        6.8392722455       -5.0208437976  CLST         186          1.0000000000
       558       186  TIP3  H2            4.0269846481        5.8896779720       -6.1133874511  CLST         186          1.0000000000
       559       187  TIP3  OH2           4.1060747126        1.6140922423       -5.5751507281  CLST         187          1.0000000000
       560       187  TIP3  H1            4.2387292698        1.6801446387       -4.6002341701  CLST         187          1.0000000000
       561       187  TIP3  H2            3.7394548379        0.6835234230       -5.5804213375  CLST         187          1.0000000000
       562       188  TIP3  OH2          -4.5285360466       -1.5832617002        4.7768194713  CLST         188          1.0000000000
       563       188  TIP3  H1           -4.7213816368       -0.7723466447        4.2333380464  CLST         188          1.0000000000
       564       188  TIP3  H2           -4.8410951122       -1.2868784659        5.6625422781  CLST         188          1.0000000000
       565       189  TIP3  OH2          -4.9713213125        3.5329648924      -15.1307546759  CLST         189          1.0000000000
       566       189  TIP3  H1           -5.0910656724        3.2405311561      -14.2176096497  CLST         189          1.0000000000
       567       189  TIP3  H2           -4.1920012547        4.1182186183      -15.0031387003  CLST         189          1.0000000000
       568       190  TIP3  OH2           7.3366333523       -5.5916751135        5.3613100850  CLST         190          1.0000000000
       569       190  TIP3  H1            7.5772430275       -5.5180139459        4.4297912959  CLST         190          1.0000000000
       570       190  TIP3  H2            8.1369770532       -5.8988572814        5.7690231841  CLST         190          1.0000000000
       571       191  TIP3  OH2         -10.9306664288       -4.8021755373       -6.5473551108  CLST         191          1.0000000000
       572       191  TIP3  H1          -10.2737650946       -4.3858724379       -7.2606144463  CLST         191          1.0000000000
       573       191  TIP3  H2          -10.1896800168       -5.2166971635       -6.0188704805  CLST         191          1.0000000000
       574       192  TIP3  OH2           8.6468815838       14.4229759791        1.9355487596  CLST         192          1.0000000000
       575       192  TIP3  H1            7.9891607564       14.5619452231        2.6096267622  CLST         192          1.0000000000
       576       192  TIP3  H2            8.9792393813       15.3130249575        1.7078111301  CLST         192          1.0000000000
       577       193  TIP3  OH2           6.0456072698      -12.2380614585       11.9237890272  CLST         193          1.0000000000
       578       193  TIP3  H1            6.8152248814      -12.7866141820       11.7318357163  CLST         193          1.0000000000
       579       193  TIP3  H2            6.0208221572      -11.6359699154       11.1962905749  CLST         193          1.0000000000
       580       194  TIP3  OH2          -6.2365325089       -4.4449375519       11.1401992636  CLST         194          1.0000000000
       581       194  TIP3  H1           -6.7099269736       -4.5625107323       11.8927853417  CLST         194          1.0000000000
       582       194  TIP3  H2           -6.9963166721       -4.4196559556       10.4126235680  CLST         194          1.0000000000
       583       195  TIP3  OH2          -7.6451346783        8.9853371204       10.1889923281  CLST         195          1.0000000000
       584       195  TIP3  H1           -8.5825610941        9.0330933951       10.4464890116  CLST         195          1.0000000000
       585       195  TIP3  H2           -7.6478291771        8.1441058203        9.6787438519  CLST         195          1.0000000000
       586       196  TIP3  OH2           6.1192494239      -12.1330736562       -5.9085160204  CLST         196          1.0000000000
       587       196  TIP3  H1            6.3825891207      -11.3520701640       -6.4537615430  CLST         196          1.0000000000
       588       196  TIP3  H2            5.2271861787      -11.8067662559       -5.6853107996  CLST         196          1.0000000000
       589       197  TIP3  OH2           2.2206520332       -9.1974948044       -2.8675534533  CLST         197          1.0000000000
       590       197  TIP3  H1            1.8956128306       -8.3263647520       -2.4630145182  CLST         197          1.0000000000
       591       197  TIP3  H2            3.1396443931       -9.0391300120       -2.6796000660  CLST         197          1.0000000000
       592       198  TIP3  OH2          10.8433215688        2.0069640075        4.7114585222  CLST         198          1.0000000000
       593       198  TIP3  H1            9.9464448446        1.7826675859        4.7093330447  CLST         198          1.0000000000
       594       198  TIP3  H2           10.6178197261        2.9382989103        4.3558296257  CLST         198          1.0000000000
       595       199  TIP3  OH2          -0.0412678238        8.5340602174       -5.7693209641  CLST         199          1.0000000000
       596       199  TIP3  H1           -0.8586867824        8.8326999586       -5.3272179464  CLST         199          1.0000000000
       597       199  TIP3  H2           -0.1677690596        7.5873744157       -5.6783268069  CLST         199          1.0000000000
       598       200  TIP3  OH2          -7.5424293185       11.8580054648       10.7619062409  CLST         200          1.0000000000
       599       200  TIP3  H1           -7.5754527009       10.9204443268       10.4483279752  CLST         200          1.0000000000
       600       200  TIP3  H2           -7.1857062933       12.2601752737        9.9259776032  CLST         200          1.0000000000
       601       201  TIP3  OH2           4.5206053171        0.9843709394       -0.0613463563  CLST         201          1.0000000000
       602       201  TIP3  H1            3.9868544028        1.4877275023        0.5613516434  CLST         201          1.0000000000
       603       201  TIP3  H2            4.8569235770        0.3217463172        0.5417600189  CLST         201          1.0000000000
       604       202  TIP3  OH2          -2.0360816436       -4.2890106160      -12.3568832693  CLST         202          1.0000000000
       605       202  TIP3  H1           -1.8777125774       -4.9956242641      -11.6600211754  CLST         202          1.0000000000
       606       202  TIP3  H2           -2.4584218332       -3.5746803272      -11.8126388441  CLST         202          1.0000000000
       607       203  TIP3  OH2          -0.7493629426       11.5433181848        7.6696166648  CLST         203          1.0000000000
       608       203  TIP3  H1            0.1221097046       11.0990466881        7.8488425976  CLST         203          1.0000000000
       609       203  TIP3  H2           -1.3577036760       10.9763280676        8.2064304089  CLST         203          1.0000000000
       610       204  TIP3  OH2          -5.3442919450        6.3676358686      -13.2164833620  CLST         204          1.0000000000
       611       204  TIP3  H1           -4.5119796506        6.1341331386      -13.6661541704  CLST         204          1.0000000000
       612       204  TIP3  H2           -5.5566555688        5.4174671002      -12.9952607609  CLST         204          1.0000000000
       613       205  TIP3  OH2          -2.4919380518        7.2480282428       -2.7271525547  CLST         205          1.0000000000
       614       205  TIP3  H1           -2.3787773795        8.0240215650       -3.3539993004  CLST         205          1.0000000000
       615       205  TIP3  H2           -1.5346474834        7.0244167862       -2.5745649176  CLST         205          1.0000000000
       616       206  TIP3  OH2           4.9490122913      -11.2586453884       -9.6941991900  CLST         206          1.0000000000
       617       206  TIP3  H1            4.8309470003      -12.2013664545       -9.3198355243  CLST         206          1.0000000000
       618       206  TIP3  H2            5.7408198083      -11.0080998132       -9.1308514761  CLST         206          1.0000000000
       619       207  TIP3  OH2          12.8743248871       10.0328851519       12.1671314046  CLST         207          1.0000000000
       620       207  TIP3  H1           11.8357364035        9.7148799764       12.6383132818  CLST         207          1.0000000000
       621       207  TIP3  H2           13.5791191893       10.2184607880       12.5304923358  CLST         207          1.0000000000
       622       208  TIP3  OH2         -11.5139752428        2.3550121996        6.7338889436  CLST         208          1.0000000000
       623       208  TIP3  H1          -11.1130938643        2.3071580924        7.6088510503  CLST         208          1.0000000000
       624       208  TIP3  H2          -11.1741152698        3.2115852391        6.3628961010  CLST         208          1.0000000000
       625       209  TIP3  OH2           4.4276177893       -9.0969570158        7.4851576549  CLST         209          1.0000000000
       626       209  TIP3  H1            4.0330048852       -9.5421999205        6.7152076229  CLST         209          1.0000000000
       627       209  TIP3  H2            3.5867226254       -8.5558389998        7.6651686508  CLST         209          1.0000000000
       628       210  TIP3  OH2          12.1260534639      -11.1626787280        5.3408653844  CLST         210          1.0000000000
       629       210  TIP3  H1           12.4598595544      -11.1780748748        4.3736436022  CLST         210          1.0000000000
       630       210  TIP3  H2           12.3347309108      -10.2034065884        5.5394387714  CLST         210          1.0000000000
       631       211  TIP3  OH2          -0.2414554706       -9.2986886150       12.1811114814  CLST         211          1.0000000000
       632       211  TIP3  H1            0.1955644872       -9.9378638682       12.8667654064  CLST         211          1.0000000000
       633       211  TIP3  H2           -1.1279626258       -9.8053948851       12.1009791814  CLST         211          1.0000000000
       634       212  TIP3  OH2         -12.2687132292        3.3614692676       -2.5088249439  CLST         212          1.0000000000
       635       212  TIP3  H1          -11.7154221671        4.0092813035       -2.9997084788  CLST         212          1.0000000000
       636       212  TIP3  H2          -11.6749800029        2.5602632983       -2.4160408621  CLST         212          1.0000000000
       637       213  TIP3  OH2          -9.4873070835      -11.3738394590      -11.3069032346  CLST         213          1.0000000000
       638       213  TIP3  H1           -9.4845285676      -11.7339220691      -12.2412342834  CLST         213          1.0000000000
       639       213  TIP3  H2           -7.8256009531      -11.0778587947      -12.0238097907  CLST         213          1.0000000000
       640       214  TIP3  OH2          -6.4242635476        2.2275620491       -5.4384947139  CLST         214          1.0000000000
       641       214  TIP3  H1           -6.2950844122        1.3328617497       -4.9996822297  CLST         214          1.0000000000
       642       214  TIP3  H2           -7.1213344984        2.6097592987       -4.8404802973  CLST         214          1.0000000000
       643       215  TIP3  OH2         -11.8870416543      -12.6544006626        5.7026628919  CLST         215          1.0000000000
       644       215  TIP3  H1          -10.9748898180      -12.3149942048        5.6595180320  CLST         215          1.0000000000
       645       215  TIP3  H2          -12.0242977121      -12.8183450980        4.7513221654  CLST         215          1.0000000000
       646       216  TIP3  OH2         -11.7776624806       -2.2143744473        8.2153257184  CLST         216          1.0000000000
       647       216  TIP3  H1          -10.7868834552       -1.9799585849        8.2949790165  CLST         216          1.0000000000
       648       216  TIP3  H2          -11.6668564198       -3.2030615719        8.3090500919  CLST         216          1.0000000000
       649       217  TIP3  OH2           7.6599306393       -0.3046529206       -1.6431862110  CLST         217          1.0000000000
       650       217  TIP3  H1            7.8657965810       -1.1551290491       -2.0476849389  CLST         217          1.0000000000
       651       217  TIP3  H2            7.0472104905       -0.5148506428       -0.8982182873  CLST         217          1.0000000000
       652       218  TIP3  OH2          -8.2391337275       -3.9735578508        9.1721931807  CLST         218          1.0000000000
       653       218  TIP3  H1           -8.5632851998       -3.0487984981        8.9977224113  CLST         218          1.0000000000
       654       218  TIP3  H2           -7.6647871737       -4.1435309273        8.4207736787  CLST         218          1.0000000000
       655       219  TIP3  OH2         -12.6379034693       -4.3884899496       -2.6718612166  CLST         219          1.0000000000
       656       219  TIP3  H1          -12.4347402641       -3.4451930576       -2.4074057525  CLST         219          1.0000000000
       657       219  TIP3  H2          -13.0912229903       -4.1462632588       -3.5288658422  CLST         219          1.0000000000
       658       220  TIP3  OH2           6.4330335588        6.7594527890        7.6700410787  CLST         220          1.0000000000
       659       220  TIP3  H1            5.9297394307        6.6368325791        6.8234452410  CLST         220          1.0000000000
       660       220  TIP3  H2            5.7589250946        6.2983474468        8.2763809725  CLST         220          1.0000000000
       661       221  TIP3  OH2         -10.4861442051       -6.9621651790       10.2093536033  CLST         221          1.0000000000
       662       221  TIP3  H1           -9.5712867570       -7.1314136375       10.3262482272  CLST         221          1.0000000000
       663       221  TIP3  H2          -10.7336687386       -7.8407351283        9.9010437318  CLST         221          1.0000000000
       664       222  TIP3  OH2          -6.8455655277       -0.6823045646      -13.6340666830  CLST         222          1.0000000000
       665       222  TIP3  H1           -6.4267857847       -1.6024071234      -13.4418829126  CLST         222          1.0000000000
       666       222  TIP3  H2           -7.7618346354       -1.0225862935      -13.5019044058  CLST         222          1.0000000000
       667       223  TIP3  OH2           2.7161931007      -10.7941069714      -11.5687943905  CLST         223          1.0000000000
       668       223  TIP3  H1            2.0801414607      -11.6625875574      -11.4015639113  CLST         223          1.0000000000
       669       223  TIP3  H2            3.4790864782      -11.0496001641      -11.0317483449  CLST         223          1.0000000000
       670       224  TIP3  OH2           7.4367887621        4.6372585733        0.5823109826  CLST         224          1.0000000000
       671       224  TIP3  H1            8.1643434079        5.2973640210        0.6061532337  CLST         224          1.0000000000
       672       224  TIP3  H2            7.4459245247        4.1924897898       -0.2865381921  CLST         224          1.0000000000
       673       225  TIP3  OH2          -0.2537935577        4.5742092013       -1.2580067637  CLST         225          1.0000000000
       674       225  TIP3  H1           -0.4090713111        4.5275489925       -0.2649315710  CLST         225          1.0000000000
       675       225  TIP3  H2           -0.2885062994        3.5777309901       -1.3622702502  CLST         225          1.0000000000
       676       226  TIP3  OH2          -5.7247564372       -4.4574222766        7.5815853225  CLST         226          1.0000000000
       677       226  TIP3  H1           -5.7432608055       -5.4744502728        7.7196534679  CLST         226          1.0000000000
       678       226  TIP3  H2           -5.5035202770       -4.3714611780        6.6569606167  CLST         226          1.0000000000
       679       227  TIP3  OH2          11.5544347111       -4.1545258249       -9.8435508401  CLST         227          1.0000000000
       680       227  TIP3  H1           11.6758440132       -3.6634992150       -9.0129281821  CLST         227          1.0000000000
       681       227  TIP3  H2           11.1862535258       -3.3962800458      -10.3659687739  CLST         227          1.0000000000
       682       228  TIP3  OH2           3.4442841642       12.3957918620        3.3678027876  CLST         228          1.0000000000
       683       228  TIP3  H1            2.5906080916       11.9151623957        3.7941922367  CLST         228          1.0000000000
       684       228  TIP3  H2            3.2913179925       12.1580527657        2.5003253414  CLST         228          1.0000000000
       685       229  TIP3  OH2         -11.6831105441      -13.1003425040        2.8627212721  CLST         229          1.0000000000
       686       229  TIP3  H1          -11.9946586581      -13.7113713918        2.2184815353  CLST         229          1.0000000000
       687       229  TIP3  H2          -11.4039746143      -12.3247417087        2.2922434654  CLST         229          1.0000000000
       688       230  TIP3  OH2          12.2964103709        6.1941569510       -3.4416923530  CLST         230          1.0000000000
       689       230  TIP3  H1           13.2243087395        6.3463928640       -3.2612298762  CLST         230          1.0000000000
       690       230  TIP3  H2           12.2749590749        5.2306284308       -3.3614184494  CLST         230          1.0000000000
       691       231  TIP3  OH2           7.1372953523        3.2417613970        4.7850474254  CLST         231          1.0000000000
       692       231  TIP3  H1            7.6544079930        4.0612613960        4.9553975622  CLST         231          1.0000000000
       693       231  TIP3  H2            6.3678311906        3.6814771232        4.3181213651  CLST         231          1.0000000000
       694       232  TIP3  OH2         -10.4124481097        8.9214117641        7.5298345709  CLST         232          1.0000000000
       695       232  TIP3  H1          -10.8519792923        9.4702464499        8.2289493997  CLST         232          1.0000000000
       696       232  TIP3  H2          -10.3261670744        8.0474273272        7.9773629310  CLST         232          1.0000000000
       697       233  TIP3  OH2           3.7386164833       -5.0715374475        8.0099226276  CLST         233          1.0000000000
       698       233  TIP3  H1            4.2672126284       -5.5358364494        8.7175783524  CLST         233          1.0000000000
       699       233  TIP3  H2            3.5617411314       -4.1992176901        8.5298956223  CLST         233          1.0000000000
       700       234  TIP3  OH2          -3.6255510396        8.5499166087       -0.6716765677  CLST         234          1.0000000000
       701       234  TIP3  H1           -3.1531234312        8.2237256762       -1.5010600001  CLST         234          1.0000000000
       702       234  TIP3  H2           -3.5649544007        9.5001563713       -0.8130677343  CLST         234          1.0000000000
       703       235  TIP3  OH2          -1.8757911685       -3.9464195222       -8.9404173221  CLST         235          1.0000000000
       704       235  TIP3  H1           -1.7977755348       -4.8503408815       -9.3033216377  CLST         235          1.0000000000
       705       235  TIP3  H2           -0.9082939548       -3.7354129871       -9.0293984738  CLST         235          1.0000000000
       706       236  TIP3  OH2          -0.1844329857      -13.5789312398       -2.9909997731  CLST         236          1.0000000000
       707       236  TIP3  H1            0.4420193554      -12.8892543939       -2.6307542289  CLST         236          1.0000000000
       708       236  TIP3  H2           -0.8463562003      -13.5692593857       -2.3281828600  CLST         236          1.0000000000
       709       237  TIP3  OH2          -3.6300688417       -5.0350568906       10.8521587232  CLST         237          1.0000000000
       710       237  TIP3  H1           -4.5560078430       -4.8349247147       11.1093315985  CLST         237          1.0000000000
       711       237  TIP3  H2           -3.7999330203       -5.7361219865       10.1868797677  CLST         237          1.0000000000
       712       238  TIP3  OH2           0.5076002369        4.6191504141        7.2756275020  CLST         238          1.0000000000
       713       238  TIP3  H1           -0.1485360224        5.2010361330        6.7809196268  CLST         238          1.0000000000
       714       238  TIP3  H2            0.4357112878        5.0425597890        8.2058036597  CLST         238          1.0000000000
       715       239  TIP3  OH2         -13.9785826315        6.0066610447        3.4925067389  CLST         239          1.0000000000
       716       239  TIP3  H1          -14.1138311894        6.2523955527        2.5362093042  CLST         239          1.0000000000
       717       239  TIP3  H2          -13.3753407707        5.2528721202        3.3063041007  CLST         239          1.0000000000
       718       240  TIP3  OH2         -14.0849110828        8.8562479729       -0.2562759380  CLST         240          1.0000000000
       719       240  TIP3  H1          -14.7350158878        9.4197200568        0.1218573938  CLST         240          1.0000000000
       720       240  TIP3  H2          -14.0202765894        7.8421465504        0.0983114928  CLST         240          1.0000000000
       721       241  TIP3  OH2          -7.6563780836       -7.8304357654       -8.6192326028  CLST         241          1.0000000000
       722       241  TIP3  H1           -7.9140018626       -8.0912682657       -7.7171349586  CLST         241          1.0000000000
       723       241  TIP3  H2           -7.6653569434       -6.8317629954       -8.4856675797  CLST         241          1.0000000000
       724       242  TIP3  OH2           6.0404602242       -5.5997241997        9.7878309036  CLST         242          1.0000000000
       725       242  TIP3  H1            6.4941434185       -4.7526533580        9.3930676036  CLST         242          1.0000000000
       726       242  TIP3  H2            6.7640946340       -6.2103162233        9.5308498721  CLST         242          1.0000000000
       727       243  TIP3  OH2          -6.5930351840       -7.1262988935       -4.4034941117  CLST         243          1.0000000000
       728       243  TIP3  H1           -6.5565169329       -7.8243230721       -5.0561947539  CLST         243          1.0000000000
       729       243  TIP3  H2           -6.5081369818       -7.7246871256       -3.6640538112  CLST         243          1.0000000000
       730       244  TIP3  OH2           4.7551644049        5.8056154522        5.3298724218  CLST         244          1.0000000000
       731       244  TIP3  H1            4.8815921039        5.5905203998        4.3938142034  CLST         244          1.0000000000
       732       244  TIP3  H2            4.1610198514        5.0459129836        5.5817348369  CLST         244          1.0000000000
       733       245  TIP3  OH2          -7.2227397221        3.7944246780       -7.8289647550  CLST         245          1.0000000000
       734       245  TIP3  H1           -7.1075775861        3.0727756608       -7.2164989037  CLST         245          1.0000000000
       735       245  TIP3  H2           -7.3637094869        4.5517653563       -7.1751263495  CLST         245          1.0000000000
       736       246  TIP3  OH2           2.2450871289       -6.5018493382       -1.9494972143  CLST         246          1.0000000000
       737       246  TIP3  H1            2.0082642624       -5.8088958206       -2.5982733097  CLST         246          1.0000000000
       738       246  TIP3  H2            3.2387399611       -6.4598619087       -2.0509794497  CLST         246          1.0000000000
       739       247  TIP3  OH2           6.1722083053        7.9443963245        0.4740418414  CLST         247          1.0000000000
       740       247  TIP3  H1            6.6096631118        7.8371984145       -0.3960061094  CLST         247          1.0000000000
       741       247  TIP3  H2            5.5977162408        8.7406698581        0.3024729978  CLST         247          1.0000000000
       742       248  TIP3  OH2          -2.4510078444        8.3637960051      -11.9873663096  CLST         248          1.0000000000
       743       248  TIP3  H1           -1.9532146004        8.3985082266      -12.7595202492  CLST         248          1.0000000000
       744       248  TIP3  H2           -1.9798236335        9.0281385111      -11.4411321071  CLST         248          1.0000000000
       745       249  TIP3  OH2           8.9177223208        4.7634337516       -7.7429020135  CLST         249          1.0000000000
       746       249  TIP3  H1            8.2173196066        5.3658979311       -7.3720790450  CLST         249          1.0000000000
       747       249  TIP3  H2            8.6953209132        3.9373864022       -7.2584802259  CLST         249          1.0000000000
       748       250  TIP3  OH2          -7.5257952288        9.6655352894       -5.3959086391  CLST         250          1.0000000000
       749       250  TIP3  H1           -7.0596109717        8.9680040505       -5.8779849633  CLST         250          1.0000000000
       750       250  TIP3  H2           -7.4555170048       10.4463862684       -5.9973946038  CLST         250          1.0000000000
       751       251  TIP3  OH2          -3.6533893226       12.3523236788        2.9814156160  CLST         251          1.0000000000
       752       251  TIP3  H1           -3.0937597208       13.0330423830        2.6610165987  CLST         251          1.0000000000
       753       251  TIP3  H2           -3.1311676266       12.1509563536        3.8003681311  CLST         251          1.0000000000
       754       252  TIP3  OH2           5.9647993867        5.3485565475       14.6497334674  CLST         252          1.0000000000
       755       252  TIP3  H1            5.6440113655        6.2710510422       14.5305927348  CLST         252          1.0000000000
       756       252  TIP3  H2            5.5149887523        5.0494460578       15.3936324594  CLST         252          1.0000000000
       757       253  TIP3  OH2           6.1603351000       13.8301329486        3.2811993153  CLST         253          1.0000000000
       758       253  TIP3  H1            5.2302586889       13.5933456784        3.5183652944  CLST         253          1.0000000000
       759       253  TIP3  H2            6.2082110965       13.4989748068        2.3848791483  CLST         253          1.0000000000
       760       254  TIP3  OH2          -4.1712094409        8.0303192944        2.9391067811  CLST         254          1.0000000000
       761       254  TIP3  H1           -4.6785890526        8.5600305584        2.2600384246  CLST         254          1.0000000000
       762       254  TIP3  H2           -4.9848807979        7.6412312992        3.3692601405  CLST         254          1.0000000000
       763       255  TIP3  OH2          -7.0231759418       10.5078927086        4.3393894502  CLST         255          1.0000000000
       764       255  TIP3  H1           -7.9289852117       10.8686558681        4.2536260348  CLST         255          1.0000000000
       765       255  TIP3  H2           -7.2380714971        9.7119570235        4.8759030215  CLST         255          1.0000000000
       766       256  TIP3  OH2          11.5139398538        3.7247890012       -1.4518578837  CLST         256          1.0000000000
       767       256  TIP3  H1           11.9564205720        2.9258252694       -1.8419516644  CLST         256          1.0000000000
       768       256  TIP3  H2           11.4466109548        3.3230000915       -0.5517223425  CLST         256          1.0000000000
       769       257  TIP3  OH2          -8.4199268113       -1.3069092364       -4.8756010614  CLST         257          1.0000000000
       770       257  TIP3  H1           -7.5663281826       -0.8896883823       -4.5303057871  CLST         257          1.0000000000
       771       257  TIP3  H2           -8.4235152093       -1.0891854790       -5.8271270907  CLST         257          1.0000000000
       772       258  TIP3  OH2          -5.3121737109       10.1779213205        7.8528314642  CLST         258          1.0000000000
       773       258  TIP3  H1           -5.2184056829       10.7194643039        7.0255116185  CLST         258          1.0000000000
       774       258  TIP3  H2           -6.1381585257       10.6296666278        8.1106101682  CLST         258          1.0000000000
       775       259  TIP3  OH2           9.9675826684        6.1988098826        1.0268002648  CLST         259          1.0000000000
       776       259  TIP3  H1           10.8332596778        6.6456495996        0.8673573373  CLST         259          1.0000000000
       777       259  TIP3  H2            9.8881316172        6.3301084168        1.9970498324  CLST         259          1.0000000000
       778       260  TIP3  OH2          -4.9314519010        7.5551491568        8.6646091838  CLST         260          1.0000000000
       779       260  TIP3  H1           -4.9278970088        8.4699713649        8.2775718048  CLST         260          1.0000000000
       780       260  TIP3  H2           -5.8239517566        7.2739697473        8.4224610084  CLST         260          1.0000000000
       781       261  TIP3  OH2           0.7248217846       -4.3148600846       12.6073240721  CLST         261          1.0000000000
       782       261  TIP3  H1            0.3122450237       -5.2782583605       12.5108524066  CLST         261          1.0000000000
       783       261  TIP3  H2            1.4964251747       -4.5975007270       13.1010263796  CLST         261          1.0000000000
       784       262  TIP3  OH2         -10.8828041296        4.7466136456        5.9726422064  CLST         262          1.0000000000
       785       262  TIP3  H1          -10.1193065222        4.5546467540        5.3433379073  CLST         262          1.0000000000
       786       262  TIP3  H2          -11.4600364768        5.1310022678        5.2859200728  CLST         262          1.0000000000
       787       263  TIP3  OH2           1.7054107704        0.8218258818        6.5043814718  CLST         263          1.0000000000
       788       263  TIP3  H1            2.5787073809        1.2199342560        6.5001474005  CLST         263          1.0000000000
       789       263  TIP3  H2            2.0318801154        0.0124816915        7.0448148251  CLST         263          1.0000000000
       790       264  TIP3  OH2           5.1011227912       -4.2983282964       -9.6962352059  CLST         264          1.0000000000
       791       264  TIP3  H1            5.1567196779       -5.2354951103       -9.8914873172  CLST         264          1.0000000000
       792       264  TIP3  H2            4.2164101512       -4.1694163437      -10.1737239709  CLST         264          1.0000000000
       793       265  TIP3  OH2           7.6110194486        5.0044022963      -10.1751270639  CLST         265          1.0000000000
       794       265  TIP3  H1            7.7643864695        5.9932555798      -10.2976096920  CLST         265          1.0000000000
       795       265  TIP3  H2            8.4119133104        4.8233515665       -9.5632286324  CLST         265          1.0000000000
       796       266  TIP3  OH2          -8.0599822225       -8.7996133044       -0.0148878622  CLST         266          1.0000000000
       797       266  TIP3  H1           -8.0043966584       -9.1666833445        0.8524864279  CLST         266          1.0000000000
       798       266  TIP3  H2           -8.1815715822       -7.8450372286        0.1377536143  CLST         266          1.0000000000
       799       267  TIP3  OH2           1.2798971108        2.3245421293       -5.1163437445  CLST         267          1.0000000000
       800       267  TIP3  H1            1.3336976831        3.2584220854       -4.7457287990  CLST         267          1.0000000000
       801       267  TIP3  H2            2.1894073346        2.0159793345       -5.0685889672  CLST         267          1.0000000000
       802       268  TIP3  OH2           5.2726284596       -4.6843640559       -6.8915024952  CLST         268          1.0000000000
       803       268  TIP3  H1            5.1949963725       -4.3338436936       -7.7971512939  CLST         268          1.0000000000
       804       268  TIP3  H2            4.9755422453       -5.6318550213       -7.0240691418  CLST         268          1.0000000000
       805       269  TIP3  OH2           5.4974887444       10.7519046560       -0.0215247982  CLST         269          1.0000000000
       806       269  TIP3  H1            6.3820518232       10.6727490384       -0.4753152402  CLST         269          1.0000000000
       807       269  TIP3  H2            5.8472393390       11.6250759009        0.4246541091  CLST         269          1.0000000000
       808       270  TIP3  OH2           1.2873162197        9.4546846307       -8.0107086156  CLST         270          1.0000000000
       809       270  TIP3  H1            1.1247004145        8.6225910858       -8.5475896122  CLST         270          1.0000000000
       810       270  TIP3  H2            0.7093062463        9.1597978630       -7.2043306858  CLST         270          1.0000000000
       811       271  TIP3  OH2          -6.4944555181       -9.1128755214       -2.2119267554  CLST         271          1.0000000000
       812       271  TIP3  H1           -5.6687164255       -9.0256649627       -1.6944671333  CLST         271          1.0000000000
       813       271  TIP3  H2           -7.1088530779       -9.0295321700       -1.4241440810  CLST         271          1.0000000000
       814       272  TIP3  OH2           9.4162063762       -8.0663809786        5.8264745155  CLST         272          1.0000000000
       815       272  TIP3  H1            8.5189283998       -8.4247087162        5.8149878936  CLST         272          1.0000000000
       816       272  TIP3  H2            9.3683782049       -7.6060227630        4.9383304196  CLST         272          1.0000000000
       817       273  TIP3  OH2         -13.9404277843        9.4939393679        3.1863204698  CLST         273          1.0000000000
       818       273  TIP3  H1          -14.5031247382        9.8198419336        4.0117058782  CLST         273          1.0000000000
       819       273  TIP3  H2          -13.8072108411        8.6051458859        3.6011841498  CLST         273          1.0000000000
       820       274  TIP3  OH2           4.1725434676       13.2077570838       -4.1496290488  CLST         274          1.0000000000
       821       274  TIP3  H1            3.8530509740       11.8725519859       -2.4826665065  CLST         274          1.0000000000
       822       274  TIP3  H2            3.9236480394       13.5619633457       -3.3789155521  CLST         274          1.0000000000
       823       275  TIP3  OH2           8.8554147081      -11.2564153811        5.7241008949  CLST         275          1.0000000000
       824       275  TIP3  H1            9.6316064744      -10.6837997463        5.6914032343  CLST         275          1.0000000000
       825       275  TIP3  H2            9.2837214065      -12.0903076431        5.3945354708  CLST         275          1.0000000000
       826       276  TIP3  OH2          -0.3863145061       -5.9631019696        1.3641114036  CLST         276          1.0000000000
       827       276  TIP3  H1           -0.9644118856       -6.1152309379        0.6468562533  CLST         276          1.0000000000
       828       276  TIP3  H2           -0.8025433313       -5.1491941263        1.9348948004  CLST         276          1.0000000000
       829       277  TIP3  OH2           6.5334997578        6.5224139232       -6.9864237053  CLST         277          1.0000000000
       830       277  TIP3  H1            5.7766292998        6.2750083055       -7.5493755024  CLST         277          1.0000000000
       831       277  TIP3  H2            6.6279081995        7.4584140722       -7.2858667991  CLST         277          1.0000000000
       832       278  TIP3  OH2          -0.8303837567       -7.5132675922        3.4582967138  CLST         278          1.0000000000
       833       278  TIP3  H1           -0.4938858737       -6.9858561682        2.6747695852  CLST         278          1.0000000000
       834       278  TIP3  H2           -1.0202463139       -6.7627013444        4.0846380041  CLST         278          1.0000000000
       835       279  TIP3  OH2         -13.6194269710        6.4085295049        0.3481973400  CLST         279          1.0000000000
       836       279  TIP3  H1          -13.7678054348        5.4769905218        0.0329195941  CLST         279          1.0000000000
       837       279  TIP3  H2          -12.6793179031        6.2980038033        0.5937458657  CLST         279          1.0000000000
       838       280  TIP3  OH2          -3.3500070047      -10.0149435157        5.5278438391  CLST         280          1.0000000000
       839       280  TIP3  H1           -2.8873132888       -9.4549303400        6.2280864771  CLST         280          1.0000000000
       840       280  TIP3  H2           -3.7376355518       -9.1912040795        5.0999499532  CLST         280          1.0000000000
       841       281  TIP3  OH2           8.0121111609        7.6833443789      -10.6050345106  CLST         281          1.0000000000
       842       281  TIP3  H1            8.3997892658        8.5865045842      -10.5679699926  CLST         281          1.0000000000
       843       281  TIP3  H2            7.0483210105        7.9700400353      -10.5203889135  CLST         281          1.0000000000
       844       282  TIP3  OH2          -7.8887696654      -11.9334506411       10.1842903454  CLST         282          1.0000000000
       845       282  TIP3  H1           -8.5914964567      -11.5166531473        9.7698750423  CLST         282          1.0000000000
       846       282  TIP3  H2           -7.4221835509      -12.4606485234        9.5191427284  CLST         282          1.0000000000
       847       283  TIP3  OH2           4.7449325683        8.5728095339       -4.7208775964  CLST         283          1.0000000000
       848       283  TIP3  H1            4.7495405626        9.5416331120       -4.9193584558  CLST         283          1.0000000000
       849       283  TIP3  H2            4.1627675021        8.5657493075       -3.8714757141  CLST         283          1.0000000000
       850       284  TIP3  OH2          12.0490874519        8.3547233658       -1.2480331481  CLST         284          1.0000000000
       851       284  TIP3  H1           11.7258570491        7.6197807356       -1.7751061255  CLST         284          1.0000000000
       852       284  TIP3  H2           11.2384896182        8.9153751627       -1.1788950367  CLST         284          1.0000000000
       853       285  TIP3  OH2          -5.5036693714        2.0738267277        9.0025202412  CLST         285          1.0000000000
       854       285  TIP3  H1           -4.7382222475        1.6517029481        8.5201122162  CLST         285          1.0000000000
       855       285  TIP3  H2           -5.0014154566        2.9279851094        9.2446042775  CLST         285          1.0000000000
       856       286  TIP3  OH2           2.8865771045        5.7617368582       -0.5887548732  CLST         286          1.0000000000
       857       286  TIP3  H1            2.0739158998        5.5946022655       -0.0964688148  CLST         286          1.0000000000
       858       286  TIP3  H2            3.5410710331        5.6878090145        0.1789653711  CLST         286          1.0000000000
       859       287  TIP3  OH2          -4.2376765292        9.1324848140       11.1745718371  CLST         287          1.0000000000
       860       287  TIP3  H1           -4.6048087523        9.9025474198       11.6446365755  CLST         287          1.0000000000
       861       287  TIP3  H2           -5.0583678730        8.7423755911       10.8210121302  CLST         287          1.0000000000
       862       288  TIP3  OH2           5.7516137952        3.4240131709       -9.4981509045  CLST         288          1.0000000000
       863       288  TIP3  H1            5.7246431454        2.9292955549      -10.1552273869  CLST         288          1.0000000000
       864       288  TIP3  H2            6.8286897047        4.3507354018      -10.0810645381  CLST         288          1.0000000000
       865       289  TIP3  OH2          -7.2673171301       -5.1471050546       -8.3292280603  CLST         289          1.0000000000
       866       289  TIP3  H1           -8.0795442462       -4.5647660245       -8.3585748483  CLST         289          1.0000000000
       867       289  TIP3  H2           -6.5794456651       -4.5556418856       -8.0500751447  CLST         289          1.0000000000
       868       290  TIP3  OH2           2.2016867292      -12.0430936464       11.0861669262  CLST         290          1.0000000000
       869       290  TIP3  H1            2.9516878599      -12.6287941246       10.8637987885  CLST         290          1.0000000000
       870       290  TIP3  H2            2.4619688191      -11.6827586986       11.9404117437  CLST         290          1.0000000000
       871       291  TIP3  OH2         -10.2927328440       -3.6278430559        3.0107259890  CLST         291          1.0000000000
       872       291  TIP3  H1          -11.0480427124       -4.2544234931        3.3268924638  CLST         291          1.0000000000
       873       291  TIP3  H2          -10.4759295002       -3.7221599403        2.0534831706  CLST         291          1.0000000000
       874       292  TIP3  OH2          12.1510776474        3.6196135457       -4.5854133828  CLST         292          1.0000000000
       875       292  TIP3  H1           11.2473015162        3.2297808748       -4.5782902202  CLST         292          1.0000000000
       876       292  TIP3  H2           11.9334125163        4.3569305314       -5.2568796853  CLST         292          1.0000000000
       877       293  TIP3  OH2           8.8654503782       10.4602714044       11.1870232601  CLST         293          1.0000000000
       878       293  TIP3  H1            8.9875341717       11.9952038602       10.9014986722  CLST         293          1.0000000000
       879       293  TIP3  H2            9.2350515491       11.0026326800       10.1913317418  CLST         293          1.0000000000
       880       294  TIP3  OH2           4.3592292355        4.4464855710       -2.3855289828  CLST         294          1.0000000000
       881       294  TIP3  H1            3.7498421521        4.9808522093       -1.7971275287  CLST         294          1.0000000000
       882       294  TIP3  H2            4.4828134984        5.0058009982       -3.1640280932  CLST         294          1.0000000000
       883       295  TIP3  OH2          -2.5092465769      -13.5410284515       -8.6681448382  CLST         295          1.0000000000
       884       295  TIP3  H1           -3.2103476053      -13.4760720520       -7.9284307939  CLST         295          1.0000000000
       885       295  TIP3  H2           -1.8159200765      -13.8790022302       -8.0734566535  CLST         295          1.0000000000
       886       296  TIP3  OH2          -1.6553852045       11.5001660722      -12.9797239803  CLST         296          1.0000000000
       887       296  TIP3  H1           -0.7263008744       11.2969484578      -13.1028087203  CLST         296          1.0000000000
       888       296  TIP3  H2           -1.7553442610       11.3697375154      -12.0357396595  CLST         296          1.0000000000
       889       297  TIP3  OH2           8.0073337452       -0.4608525922       11.4341511552  CLST         297          1.0000000000
       890       297  TIP3  H1            8.5985913380       -1.0909101931       11.0267315486  CLST         297          1.0000000000
       891       297  TIP3  H2            7.1926073714       -0.9762294494       11.4242848894  CLST         297          1.0000000000
       892       298  TIP3  OH2           1.0061506506       -1.2581620106       -7.4242709212  CLST         298          1.0000000000
       893       298  TIP3  H1            1.4693934770       -0.5924913699       -7.9939920000  CLST         298          1.0000000000
       894       298  TIP3  H2            0.7770801589       -1.8807854985       -8.1867633499  CLST         298          1.0000000000
       895       299  TIP3  OH2           2.8146682851       10.3322153023       12.9011383033  CLST         299          1.0000000000
       896       299  TIP3  H1            2.1211149579       10.6410774524       12.2238356139  CLST         299          1.0000000000
       897       299  TIP3  H2            2.1069568042       10.0062597842       13.4592945110  CLST         299          1.0000000000
       898       300  TIP3  OH2         -10.6333431694        5.1430432062       -3.7847976557  CLST         300          1.0000000000
       899       300  TIP3  H1          -10.8344766908        5.5720387921       -4.6615261478  CLST         300          1.0000000000
       900       300  TIP3  H2          -10.6533145741        6.0249813534       -3.3201729023  CLST         300          1.0000000000
       901       301  TIP3  OH2           9.5873854185       -8.4471147520       11.1447145111  CLST         301          1.0000000000
       902       301  TIP3  H1            9.4161795541       -7.9561503402       11.9757156287  CLST         301          1.0000000000
       903       301  TIP3  H2            9.5268404511       -9.4046713792       11.4686937767  CLST         301          1.0000000000
       904       302  TIP3  OH2           7.8957732327       12.7142835504        5.4710645752  CLST         302          1.0000000000
       905       302  TIP3  H1            7.4046770940       13.3418318769        4.8313216897  CLST         302          1.0000000000
       906       302  TIP3  H2            7.0986695078       12.1894285527        5.7613937314  CLST         302          1.0000000000
       907       303  TIP3  OH2         -10.9804610181        1.2051572355       -2.1538963262  CLST         303          1.0000000000
       908       303  TIP3  H1          -10.0747252759        0.9167612691       -1.9155913942  CLST         303          1.0000000000
       909       303  TIP3  H2          -11.0578731017        0.6783439324       -3.0082012177  CLST         303          1.0000000000
       910       304  TIP3  OH2          -7.9542675550        1.2940911089      -14.8946685165  CLST         304          1.0000000000
       911       304  TIP3  H1           -7.4350344308        0.5700612551      -14.4765152472  CLST         304          1.0000000000
       912       304  TIP3  H2           -7.4068652325        1.6669284572      -15.5280419137  CLST         304          1.0000000000
       913       305  TIP3  OH2           3.4348845237       -3.8810788564       14.0277133083  CLST         305          1.0000000000
       914       305  TIP3  H1            4.3977193857       -3.8398261864       13.8606555108  CLST         305          1.0000000000
       915       305  TIP3  H2            3.3017857544       -2.9204101709       13.8041095361  CLST         305          1.0000000000
       916       306  TIP3  OH2           8.8392452120      -11.9470782836      -11.4636648963  CLST         306          1.0000000000
       917       306  TIP3  H1            9.4587564616      -11.8675256382      -12.3222205108  CLST         306          1.0000000000
       918       306  TIP3  H2            9.3176413860      -12.4504950485      -10.9390875618  CLST         306          1.0000000000
       919       307  TIP3  OH2           9.3270231779        7.8807697958       -7.4180513464  CLST         307          1.0000000000
       920       307  TIP3  H1            8.4596086794        8.3359493404       -7.6089418568  CLST         307          1.0000000000
       921       307  TIP3  H2            9.5961123840        8.1395052399       -6.5255574536  CLST         307          1.0000000000
       922       308  TIP3  OH2         -11.0329922955       -4.7166969888        8.8331771215  CLST         308          1.0000000000
       923       308  TIP3  H1          -11.1147980829       -5.5649129176        9.3592313032  CLST         308          1.0000000000
       924       308  TIP3  H2          -10.0606243268       -4.5692574666        8.9567612256  CLST         308          1.0000000000
       925       309  TIP3  OH2          -1.9988137150       -0.5827344988        5.5460884729  CLST         309          1.0000000000
       926       309  TIP3  H1           -2.8367516927       -0.7465446845        5.0351923919  CLST         309          1.0000000000
       927       309  TIP3  H2           -2.1788995557       -1.2637194819        6.2935174583  CLST         309          1.0000000000
       928       310  TIP3  OH2          -4.9290191824       -0.6163185667        7.2732860863  CLST         310          1.0000000000
       929       310  TIP3  H1           -4.1191629953       -0.0795763088        7.5153583143  CLST         310          1.0000000000
       930       310  TIP3  H2           -4.9135062086       -1.2359662480        8.0724766750  CLST         310          1.0000000000
       931       311  TIP3  OH2          -6.9990423270        8.4182704402      -12.3023613532  CLST         311          1.0000000000
       932       311  TIP3  H1           -6.4657006709        7.7296368830      -12.7508469133  CLST         311          1.0000000000
       933       311  TIP3  H2           -6.9594637239        8.1521594664      -11.3741375094  CLST         311          1.0000000000
       934       312  TIP3  OH2           6.5134191799       -0.9299949463       -6.4361689391  CLST         312          1.0000000000
       935       312  TIP3  H1            6.3967125113        0.0363136721       -6.4659707490  CLST         312          1.0000000000
       936       312  TIP3  H2            6.3997239347       -1.0979424256       -5.5004746847  CLST         312          1.0000000000
       937       313  TIP3  OH2          -8.9882898919      -10.5629967139        7.2154846465  CLST         313          1.0000000000
       938       313  TIP3  H1           -8.4244773559       -9.7618932683        7.0656135163  CLST         313          1.0000000000
       939       313  TIP3  H2           -9.3920639036      -10.5205326052        6.3028364686  CLST         313          1.0000000000
       940       314  TIP3  OH2          -1.2873821388      -12.1683349319      -10.6657516040  CLST         314          1.0000000000
       941       314  TIP3  H1           -1.0777255694      -11.3819702134      -10.0777646949  CLST         314          1.0000000000
       942       314  TIP3  H2           -1.7799607812      -12.5787889689       -9.9101320340  CLST         314          1.0000000000
       943       315  TIP3  OH2          -1.5170311506       -0.7086076270       -6.5113603161  CLST         315          1.0000000000
       944       315  TIP3  H1           -0.5923517656       -0.9924147177       -6.7439782117  CLST         315          1.0000000000
       945       315  TIP3  H2           -1.3353069962       -0.2514502230       -5.6187314457  CLST         315          1.0000000000
       946       316  TIP3  OH2         -13.1708796012       -3.7327526446       -5.3715404376  CLST         316          1.0000000000
       947       316  TIP3  H1          -12.4362944817       -4.2689219276       -5.7791520788  CLST         316          1.0000000000
       948       316  TIP3  H2          -12.9423284733       -2.8870174884       -5.8091376408  CLST         316          1.0000000000
       949       317  TIP3  OH2          -6.2080951372        0.0396635473       -3.8120231543  CLST         317          1.0000000000
       950       317  TIP3  H1           -5.3363599806       -0.1244273741       -3.3895245499  CLST         317          1.0000000000
       951       317  TIP3  H2           -6.6837008516        0.4672088311       -3.0250369307  CLST         317          1.0000000000
       952       318  TIP3  OH2          -4.1108070989       -9.6923265361       -9.3759250108  CLST         318          1.0000000000
       953       318  TIP3  H1           -4.2624348340       -9.8352918235       -8.3767032314  CLST         318          1.0000000000
       954       318  TIP3  H2           -3.1315209204       -9.6009411139       -9.2821987522  CLST         318          1.0000000000
       955       319  TIP3  OH2           5.7140240900       10.7661596995        8.5671308457  CLST         319          1.0000000000
       956       319  TIP3  H1            6.4470749684       10.1334190355        8.3126494164  CLST         319          1.0000000000
       957       319  TIP3  H2            6.2644198756       11.2475028701        9.2385352040  CLST         319          1.0000000000
       958       320  TIP3  OH2         -10.6929345787        0.9046030174      -14.5460315900  CLST         320          1.0000000000
       959       320  TIP3  H1           -9.7943783790        1.1875292324      -14.8894304274  CLST         320          1.0000000000
       960       320  TIP3  H2          -10.2583410261        0.1294999595      -14.0665562953  CLST         320          1.0000000000
       961       321  TIP3  OH2          -9.8457528034       10.2580620553       -9.6475027405  CLST         321          1.0000000000
       962       321  TIP3  H1          -10.6341291428       10.1456539511       -9.8702705679  CLST         321          1.0000000000
       963       321  TIP3  H2           -9.9375133206       10.2191824337      -11.0098133574  CLST         321          1.0000000000
       964       322  TIP3  OH2         -12.5474890538       -1.7424739796       -2.2156546915  CLST         322          1.0000000000
       965       322  TIP3  H1          -12.2758152880       -1.4144276774       -3.0979527352  CLST         322          1.0000000000
       966       322  TIP3  H2          -11.6531388516       -1.8070675717       -1.7681806560  CLST         322          1.0000000000
       967       323  TIP3  OH2          -1.0447638076        3.9444848978        4.3212185275  CLST         323          1.0000000000
       968       323  TIP3  H1           -0.8055629362        3.0489774093        4.6440040243  CLST         323          1.0000000000
       969       323  TIP3  H2           -0.9064325239        3.7991613330        3.3645333869  CLST         323          1.0000000000
       970       324  TIP3  OH2         -10.9505320295        6.1532449304        1.5078864803  CLST         324          1.0000000000
       971       324  TIP3  H1          -11.1414658127        5.3150086406        1.9879610743  CLST         324          1.0000000000
       972       324  TIP3  H2          -10.2415166110        6.5422019281        2.1361297020  CLST         324          1.0000000000
       973       325  TIP3  OH2          -4.6313673815        0.8163133481        3.6742197144  CLST         325          1.0000000000
       974       325  TIP3  H1           -5.6313139250        0.8081830322        3.4953920483  CLST         325          1.0000000000
       975       325  TIP3  H2           -4.5565974880        1.5900917353        4.2242204928  CLST         325          1.0000000000
       976       326  TIP3  OH2           9.0554364054        8.7410185711       -2.8132754736  CLST         326          1.0000000000
       977       326  TIP3  H1            8.6316752564        7.9232057484       -2.4793648340  CLST         326          1.0000000000
       978       326  TIP3  H2            8.3296917005        8.8556957619       -3.5024927913  CLST         326          1.0000000000
       979       327  TIP3  OH2          10.5175108425       -3.8708054748      -13.2942344242  CLST         327          1.0000000000
       980       327  TIP3  H1           10.8794862285       -3.3248769282      -13.9400488350  CLST         327          1.0000000000
       981       327  TIP3  H2           10.1338389048       -3.2207281178      -12.7256399462  CLST         327          1.0000000000
       982       328  TIP3  OH2           2.3221850854        7.1228458265       -9.9245915779  CLST         328          1.0000000000
       983       328  TIP3  H1            2.1557460975        6.2758194282       -9.5277422436  CLST         328          1.0000000000
       984       328  TIP3  H2            3.2790243406        7.1333325128       -9.8878228458  CLST         328          1.0000000000
       985       329  TIP3  OH2           1.4314382908      -11.6837008327       -2.3855955265  CLST         329          1.0000000000
       986       329  TIP3  H1            1.6393214318      -10.7209281816       -2.7184195659  CLST         329          1.0000000000
       987       329  TIP3  H2            2.2829215479      -11.6965012498       -1.8094607460  CLST         329          1.0000000000
       988       330  TIP3  OH2          -9.4074845822       -0.9841751689        3.2853542713  CLST         330          1.0000000000
       989       330  TIP3  H1           -9.7589835240       -1.9238258747        3.1913426607  CLST         330          1.0000000000
       990       330  TIP3  H2          -10.1913173219       -0.5839948278        3.7924890060  CLST         330          1.0000000000
       991       331  TIP3  OH2          12.1939097529        9.8838320325       -9.1179736913  CLST         331          1.0000000000
       992       331  TIP3  H1           12.9323090387        9.9491281703       -9.6417697897  CLST         331          1.0000000000
       993       331  TIP3  H2           12.1416106339        8.8585191544       -8.9495459837  CLST         331          1.0000000000
       994       332  TIP3  OH2          11.2368332068       -1.3804301719       -4.6576687682  CLST         332          1.0000000000
       995       332  TIP3  H1           12.1884184609       -1.5856094430       -5.0949247044  CLST         332          1.0000000000
       996       332  TIP3  H2           11.6069486924       -0.6399783394       -4.1391409262  CLST         332          1.0000000000
       997       333  TIP3  OH2          10.6059267307      -14.1637748562        7.9986673845  CLST         333          1.0000000000
       998       333  TIP3  H1            9.7234099414      -13.7693122979        8.1191003189  CLST         333          1.0000000000
       999       333  TIP3  H2           10.7116526016      -14.1717374336        7.0158423568  CLST         333          1.0000000000
      1000       334  TIP3  OH2         -10.6489626698       -9.7092974014        9.2117897643  CLST         334          1.0000000000
      1001       334  TIP3  H1          -11.4951923308       -9.8766865598        8.7112933182  CLST         334          1.0000000000
      1002       334  TIP3  H2          -10.0433941924      -10.1198858613        8.5711894385  CLST         334          1.0000000000
      1003       335  TIP3  OH2           6.7217283867      -10.1180192084        1.4783652648  CLST         335          1.0000000000
      1004       335  TIP3  H1            6.7221851427      -10.1731655016        2.4670169229  CLST         335          1.0000000000
      1005       335  TIP3  H2            5.7479196725       -9.9725764963        1.3447874076  CLST         335          1.0000000000
      1006       336  TIP3  OH2          -9.2913561058       -3.7075641200       -3.4151386023  CLST         336          1.0000000000
      1007       336  TIP3  H1           -9.7279598749       -4.1875070163       -4.1170783206  CLST         336          1.0000000000
      1008       336  TIP3  H2           -8.7920264071       -3.0568015057       -3.9136151148  CLST         336          1.0000000000
      1009       337  TIP3  OH2          -1.5805262487       -4.9109685222        7.9725508808  CLST         337          1.0000000000
      1010       337  TIP3  H1           -1.1720060655       -4.7410762110        8.8418599190  CLST         337          1.0000000000
      1011       337  TIP3  H2           -1.8846870969       -3.9566395311        7.8207396625  CLST         337          1.0000000000
      1012       338  TIP3  OH2          -0.4389581087        2.5866598209       10.8646181930  CLST         338          1.0000000000
      1013       338  TIP3  H1           -0.4724211801        2.5740236049        9.8927144399  CLST         338          1.0000000000
      1014       338  TIP3  H2            0.1056311494        1.7931594725       10.9982083660  CLST         338          1.0000000000
      1015       339  TIP3  OH2           7.9334104970        8.0654284635        2.8185632577  CLST         339          1.0000000000
      1016       339  TIP3  H1            7.6065023661        8.7554789617        3.4487814609  CLST         339          1.0000000000
      1017       339  TIP3  H2            7.2969336002        8.0461966494        2.1016030554  CLST         339          1.0000000000
      1018       340  TIP3  OH2          -4.6417329668      -11.7176191984      -11.1362737508  CLST         340          1.0000000000
      1019       340  TIP3  H1           -4.3660260992      -11.0264220662      -10.4697970341  CLST         340          1.0000000000
      1020       340  TIP3  H2           -4.1262807827      -12.4599554770      -10.7776265110  CLST         340          1.0000000000
      1021       341  TIP3  OH2          -6.7743444157        4.7147134773        9.3788292323  CLST         341          1.0000000000
      1022       341  TIP3  H1           -5.8722411255        4.5851590154        9.7196754322  CLST         341          1.0000000000
      1023       341  TIP3  H2           -7.0996347749        3.8018849338        9.2685014727  CLST         341          1.0000000000
      1024       342  TIP3  OH2          -4.5157735456      -10.9708060328       13.8145719624  CLST         342          1.0000000000
      1025       342  TIP3  H1           -5.2320528255      -11.1140423842       13.1228687421  CLST         342          1.0000000000
      1026       342  TIP3  H2           -4.5979786224      -11.2086750958       14.5926960506  CLST         342          1.0000000000
      1027       343  TIP3  OH2           1.3981109711       -9.0407387207       -9.8691961415  CLST         343          1.0000000000
      1028       343  TIP3  H1            1.3092764514       -8.1395394120      -10.3514526534  CLST         343          1.0000000000
      1029       343  TIP3  H2            1.8703943111       -9.5049048835      -10.6285911136  CLST         343          1.0000000000
      1030       344  TIP3  OH2           5.3448207135       -3.9496244157        6.3133449061  CLST         344          1.0000000000
      1031       344  TIP3  H1            4.7930868680       -4.5523933505        6.9303022805  CLST         344          1.0000000000
      1032       344  TIP3  H2            5.9668626902       -4.6007937485        5.8767125498  CLST         344          1.0000000000
      1033       345  TIP3  OH2          13.1928598013        7.2164142186        8.8458594907  CLST         345          1.0000000000
      1034       345  TIP3  H1           12.6627266827        6.4815468027        8.4374647550  CLST         345          1.0000000000
      1035       345  TIP3  H2           12.4542832199        7.4409290354        9.6736379972  CLST         345          1.0000000000
      1036       346  TIP3  OH2           9.5814402564        9.5310318644        0.9042274524  CLST         346          1.0000000000
      1037       346  TIP3  H1            9.8649648397       10.3000480955        1.4982360874  CLST         346          1.0000000000
      1038       346  TIP3  H2            9.1723111168        8.9563068459        1.5854790870  CLST         346          1.0000000000
      1039       347  TIP3  OH2          -5.0422015190        2.8168791266       -9.6659132657  CLST         347          1.0000000000
      1040       347  TIP3  H1           -5.8376406158        3.2944574686       -9.3056658648  CLST         347          1.0000000000
      1041       347  TIP3  H2           -4.6406453294        2.8492929969       -8.7621316287  CLST         347          1.0000000000
      1042       348  TIP3  OH2          -1.2425749866        6.1058123427        5.8130429777  CLST         348          1.0000000000
      1043       348  TIP3  H1           -1.3888241854        5.2536973731        5.3015726432  CLST         348          1.0000000000
      1044       348  TIP3  H2           -0.6563114697        6.4394171698        5.0321461341  CLST         348          1.0000000000
      1045       349  TIP3  OH2          -4.2247031154        5.1212027021       -2.4867423883  CLST         349          1.0000000000
      1046       349  TIP3  H1           -3.8782238644        4.5468549933       -3.1556586371  CLST         349          1.0000000000
      1047       349  TIP3  H2           -3.6214410090        5.9181845426       -2.5375329808  CLST         349          1.0000000000
      1048       350  TIP3  OH2          -2.8114174294        9.0089827465        5.0581515977  CLST         350          1.0000000000
      1049       350  TIP3  H1           -3.2526657932        8.6983061062        4.2556607555  CLST         350          1.0000000000
      1050       350  TIP3  H2           -2.6432685221        8.1971269608        5.5654794060  CLST         350          1.0000000000
      1051       351  TIP3  OH2           4.8204940522       -7.6436158415       -7.6580727057  CLST         351          1.0000000000
      1052       351  TIP3  H1            4.1078535478       -8.3287399634       -7.6569611309  CLST         351          1.0000000000
      1053       351  TIP3  H2            4.7434412895       -7.3249931925       -8.5843868568  CLST         351          1.0000000000
      1054       352  TIP3  OH2         -10.4539086342      -11.0534704655        1.8522747446  CLST         352          1.0000000000
      1055       352  TIP3  H1           -9.4576016219      -11.0683727479        1.7691441407  CLST         352          1.0000000000
      1056       352  TIP3  H2          -10.7710317332      -10.4453621149        1.1251213183  CLST         352          1.0000000000
      1057       353  TIP3  OH2          10.8590414522       -8.1649373339       -8.5638043316  CLST         353          1.0000000000
      1058       353  TIP3  H1            9.9236866118       -8.4586608603       -8.6566836098  CLST         353          1.0000000000
      1059       353  TIP3  H2           11.0625031710       -8.3477600742       -7.6634269760  CLST         353          1.0000000000
      1060       354  TIP3  OH2           6.8976507784      -10.5465890447        4.0592283529  CLST         354          1.0000000000
      1061       354  TIP3  H1            7.5714556339      -10.8919498980        4.7349301454  CLST         354          1.0000000000
      1062       354  TIP3  H2            6.6247468451       -9.7531670886        4.6190655671  CLST         354          1.0000000000
      1063       355  TIP3  OH2          -7.1547065315        9.0089943065       -8.9286263444  CLST         355          1.0000000000
      1064       355  TIP3  H1           -6.4819200252        9.7190804429       -8.9463393456  CLST         355          1.0000000000
      1065       355  TIP3  H2           -7.9108373700        9.5210879847       -9.2913607759  CLST         355          1.0000000000
      1066       356  TIP3  OH2          12.4238908788        1.0009925515       -1.9555102192  CLST         356          1.0000000000
      1067       356  TIP3  H1           11.4610992473        0.8407496139       -2.1770815503  CLST         356          1.0000000000
      1068       356  TIP3  H2           12.4889272535        0.7045116103       -1.0325555243  CLST         356          1.0000000000
      1069       357  TIP3  OH2          -0.5162821328       -0.4203712638       -1.9295586880  CLST         357          1.0000000000
      1070       357  TIP3  H1            0.2612098915       -0.9696476451       -2.1749412247  CLST         357          1.0000000000
      1071       357  TIP3  H2           -0.8223454306       -0.1575149292       -2.8221844934  CLST         357          1.0000000000
      1072       358  TIP3  OH2          -5.5644273880        7.0633822221       -7.6107136146  CLST         358          1.0000000000
      1073       358  TIP3  H1           -6.2689582873        7.4693277921       -8.1828110330  CLST         358          1.0000000000
      1074       358  TIP3  H2           -6.2310442711        6.5816148081       -7.0032017553  CLST         358          1.0000000000
      1075       359  TIP3  OH2          -4.9836916862       12.2067148904        6.0828946978  CLST         359          1.0000000000
      1076       359  TIP3  H1           -5.3739970197       12.0643292832        5.1807507976  CLST         359          1.0000000000
      1077       359  TIP3  H2           -4.0555446150       12.2473056205        5.7608785029  CLST         359          1.0000000000
      1078       360  TIP3  OH2          -6.8781279915        5.5849648353       -3.3454077488  CLST         360          1.0000000000
      1079       360  TIP3  H1           -7.1566774148        6.2766759306       -2.6905347006  CLST         360          1.0000000000
      1080       360  TIP3  H2           -5.9361094248        5.4867334210       -3.0202071491  CLST         360          1.0000000000
      1081       361  TIP3  OH2          -1.4271535909       -0.9871760448       10.1247995645  CLST         361          1.0000000000
      1082       361  TIP3  H1           -1.2801728498       -0.5449405864       11.0228690869  CLST         361          1.0000000000
      1083       361  TIP3  H2           -1.5965800578       -1.8982091452       10.4796914577  CLST         361          1.0000000000
      1084       362  TIP3  OH2         -10.5971071616        2.8638464717        0.5497066508  CLST         362          1.0000000000
      1085       362  TIP3  H1          -10.5843639008        3.4283930625       -0.2401157146  CLST         362          1.0000000000
      1086       362  TIP3  H2          -11.2661759210        2.1999630076        0.2783676596  CLST         362          1.0000000000
      1087       363  TIP3  OH2          10.5414067069        2.3667183502       10.2987991970  CLST         363          1.0000000000
      1088       363  TIP3  H1           11.0352166524        1.2466498968        9.9541149870  CLST         363          1.0000000000
      1089       363  TIP3  H2           11.5956870456        1.9365970579       10.1426896081  CLST         363          1.0000000000
      1090       364  TIP3  OH2           7.6714784054       -5.7017395255       -6.1596957293  CLST         364          1.0000000000
      1091       364  TIP3  H1            6.8398271173       -5.2870948616       -6.5326103023  CLST         364          1.0000000000
      1092       364  TIP3  H2            8.2643977523       -5.5945491441       -6.9849022919  CLST         364          1.0000000000
      1093       365  TIP3  OH2          -6.1984681108       -6.7887655862        2.4492876850  CLST         365          1.0000000000
      1094       365  TIP3  H1           -6.7831201052       -6.0546053699        2.1057007744  CLST         365          1.0000000000
      1095       365  TIP3  H2           -6.9281858036       -7.4257226810        2.7715019220  CLST         365          1.0000000000
      1096       366  TIP3  OH2           1.7383802600       -1.4690502152       -2.9013715403  CLST         366          1.0000000000
      1097       366  TIP3  H1            2.6969186895       -1.5445869881       -2.6096174015  CLST         366          1.0000000000
      1098       366  TIP3  H2            2.0528844363       -1.1019989747       -3.7551068478  CLST         366          1.0000000000
      1099       367  TIP3  OH2          -5.2289306615       11.7870281099       12.3715998287  CLST         367          1.0000000000
      1100       367  TIP3  H1           -6.1332250204       11.7453150697       12.0925878933  CLST         367          1.0000000000
      1101       367  TIP3  H2           -5.3344403924       12.4633260716       12.8440331924  CLST         367          1.0000000000
      1102       368  TIP3  OH2          -2.7026977883        6.4115357157        1.0429810385  CLST         368          1.0000000000
      1103       368  TIP3  H1           -2.8060983003        7.1592727115        0.4065683854  CLST         368          1.0000000000
      1104       368  TIP3  H2           -3.0896157310        6.8577307212        1.8404765595  CLST         368          1.0000000000
      1105       369  TIP3  OH2         -11.5815777446       -1.7849332357       -6.4278585345  CLST         369          1.0000000000
      1106       369  TIP3  H1          -10.6991456742       -2.2118519994       -6.4347917622  CLST         369          1.0000000000
      1107       369  TIP3  H2          -11.7909796415       -2.1218990965       -7.3893590482  CLST         369          1.0000000000
      1108       370  TIP3  OH2         -12.0182464158        5.5444749039      -11.7027447773  CLST         370          1.0000000000
      1109       370  TIP3  H1          -12.4064992419        4.7311126169      -12.3487123969  CLST         370          1.0000000000
      1110       370  TIP3  H2          -12.6681612825        5.8468612583      -11.2131794413  CLST         370          1.0000000000
      1111       371  TIP3  OH2           2.1351535342        7.8223767472        5.8190553576  CLST         371          1.0000000000
      1112       371  TIP3  H1            1.9272823090        7.6260175541        6.7370765036  CLST         371          1.0000000000
      1113       371  TIP3  H2            2.9674727675        7.3625999462        5.6135308471  CLST         371          1.0000000000
      1114       372  TIP3  OH2           8.1932047333       -7.3731658693        9.0048111431  CLST         372          1.0000000000
      1115       372  TIP3  H1            8.7787420958       -7.4184674830        8.2297435097  CLST         372          1.0000000000
      1116       372  TIP3  H2            8.8311328934       -7.7354889973        9.6961850354  CLST         372          1.0000000000
      1117       373  TIP3  OH2          11.1146018752       -0.4966670690        6.5838888765  CLST         373          1.0000000000
      1118       373  TIP3  H1           11.5228874478        0.3276460577        6.1860675195  CLST         373          1.0000000000
      1119       373  TIP3  H2           10.3993725616       -0.3425197876        5.9311957589  CLST         373          1.0000000000
      1120       374  TIP3  OH2          -9.3672508065        4.7830226655      -12.1682899659  CLST         374          1.0000000000
      1121       374  TIP3  H1           -9.1179726013        5.6937121114      -12.2292766244  CLST         374          1.0000000000
      1122       374  TIP3  H2          -10.3807137005        4.9891665405      -11.9954116867  CLST         374          1.0000000000
      1123       375  TIP3  OH2           9.7401800922       -5.4642443286       -2.7963253887  CLST         375          1.0000000000
      1124       375  TIP3  H1           10.2382603707       -5.1466932724       -3.5973604508  CLST         375          1.0000000000
      1125       375  TIP3  H2            9.9903819450       -6.4178498510       -2.9564145471  CLST         375          1.0000000000
      1126       376  TIP3  OH2          -2.3370593300      -11.1802693960       11.9982331486  CLST         376          1.0000000000
      1127       376  TIP3  H1           -2.9879175331      -11.2736465400       12.7509500594  CLST         376          1.0000000000
      1128       376  TIP3  H2           -2.8537231781      -11.6328064766       11.3386834136  CLST         376          1.0000000000
      1129       377  TIP3  OH2         -10.1703963545       12.8488134430       10.4803593545  CLST         377          1.0000000000
      1130       377  TIP3  H1           -9.2317816422       12.5319041046       10.5932965497  CLST         377          1.0000000000
      1131       377  TIP3  H2          -10.0723168814       13.2960375647        9.6502283975  CLST         377          1.0000000000
      1132       378  TIP3  OH2           2.0776924340       -7.8451690841        7.3525742734  CLST         378          1.0000000000
      1133       378  TIP3  H1            1.8986299330       -6.9399643481        7.1078015617  CLST         378          1.0000000000
      1134       378  TIP3  H2            1.4769829001       -8.1780967402        8.0150630579  CLST         378          1.0000000000
      1135       379  TIP3  OH2          -9.6159762065        9.3309601225       -1.1300322109  CLST         379          1.0000000000
      1136       379  TIP3  H1           -9.1241013080        9.4739368248       -0.3269503830  CLST         379          1.0000000000
      1137       379  TIP3  H2           -9.8941027089       10.2209219989       -1.5205428634  CLST         379          1.0000000000
      1138       380  TIP3  OH2           2.9242492759       -4.4501580198      -11.1392923913  CLST         380          1.0000000000
      1139       380  TIP3  H1            2.4766708783       -3.6976197033      -11.6506120935  CLST         380          1.0000000000
      1140       380  TIP3  H2            3.4086593483       -4.8631773996      -11.9083652207  CLST         380          1.0000000000
      1141       381  TIP3  OH2          10.2831566606        4.3386166044        3.4636686124  CLST         381          1.0000000000
      1142       381  TIP3  H1            9.6070853432        4.8746419709        4.0119427099  CLST         381          1.0000000000
      1143       381  TIP3  H2           10.9232003030        5.1165212205        3.4044194108  CLST         381          1.0000000000
      1144       382  TIP3  OH2           1.9464097673       -5.3885786290        5.7588042627  CLST         382          1.0000000000
      1145       382  TIP3  H1            2.6658001538       -5.1972856863        6.3878299396  CLST         382          1.0000000000
      1146       382  TIP3  H2            2.5532151272       -5.7672621715        5.0862134050  CLST         382          1.0000000000
      1147       383  TIP3  OH2          10.3006875993        8.8947196031        4.8649979264  CLST         383          1.0000000000
      1148       383  TIP3  H1            9.4876301021        9.0893369306        4.3977815397  CLST         383          1.0000000000
      1149       383  TIP3  H2           10.5480376539        9.8627957572        4.9743066724  CLST         383          1.0000000000
      1150       384  TIP3  OH2          -3.3892061189       -1.8287941877       -8.1596712660  CLST         384          1.0000000000
      1151       384  TIP3  H1           -2.8635622143       -2.6905662254       -8.2851396030  CLST         384          1.0000000000
      1152       384  TIP3  H2           -2.7623616352       -1.4499999054       -7.4645708702  CLST         384          1.0000000000
      1153       385  TIP3  OH2           3.6052466970      -11.8604931702       -0.7522217663  CLST         385          1.0000000000
      1154       385  TIP3  H1            4.4955717469      -12.2646623337       -0.5535588553  CLST         385          1.0000000000
      1155       385  TIP3  H2            3.7917756218      -11.0266195222       -0.2201486485  CLST         385          1.0000000000
      1156       386  TIP3  OH2          -4.4708642764        9.3642111802       -6.1834012014  CLST         386          1.0000000000
      1157       386  TIP3  H1           -4.5664852046        8.4037071826       -6.5467770077  CLST         386          1.0000000000
      1158       386  TIP3  H2           -4.4106890979        9.7242093338       -7.1273452341  CLST         386          1.0000000000
      1159       387  TIP3  OH2          -9.6861734907       10.5984541396        2.6412257127  CLST         387          1.0000000000
      1160       387  TIP3  H1          -10.4669335054       10.2199459898        2.1186185768  CLST         387          1.0000000000
      1161       387  TIP3  H2           -9.0056749989       10.4077280922        1.9425688497  CLST         387          1.0000000000
      1162       388  TIP3  OH2          -1.7632453856      -12.4475462235        6.0377624161  CLST         388          1.0000000000
      1163       388  TIP3  H1           -2.0551948173      -11.5731281977        5.7382610218  CLST         388          1.0000000000
      1164       388  TIP3  H2           -1.7612081528      -12.2598660563        7.0117598272  CLST         388          1.0000000000
      1165       389  TIP3  OH2          -8.1176763887        3.3598548841       -3.6249049591  CLST         389          1.0000000000
      1166       389  TIP3  H1           -7.6176085225        4.2383575318       -3.5151588742  CLST         389          1.0000000000
      1167       389  TIP3  H2           -9.0196230400        3.7967966212       -3.5856971102  CLST         389          1.0000000000
      1168       390  TIP3  OH2          -5.7741153570       -3.8349229821        4.4473015367  CLST         390          1.0000000000
      1169       390  TIP3  H1           -5.3382411128       -2.9090033804        4.4428529424  CLST         390          1.0000000000
      1170       390  TIP3  H2           -5.1267130855       -4.2127044882        3.8574053760  CLST         390          1.0000000000
      1171       391  TIP3  OH2          -8.7355625974       -8.8921916850       -6.1982036282  CLST         391          1.0000000000
      1172       391  TIP3  H1           -9.2534375342       -9.6081446562       -6.6398647055  CLST         391          1.0000000000
      1173       391  TIP3  H2           -8.0767616022       -9.4949290346       -5.7857934848  CLST         391          1.0000000000
      1174       392  TIP3  OH2           1.0535653695       -2.0749326737        9.9204498453  CLST         392          1.0000000000
      1175       392  TIP3  H1            0.5275670640       -2.8875517836       10.0413753054  CLST         392          1.0000000000
      1176       392  TIP3  H2            0.2489946085       -1.4809517079        9.9312672716  CLST         392          1.0000000000
      1177       393  TIP3  OH2          10.7199589574      -12.2342185948       -0.8201151567  CLST         393          1.0000000000
      1178       393  TIP3  H1           12.3620960677      -10.9475310719       -1.0312335770  CLST         393          1.0000000000
      1179       393  TIP3  H2           11.4341970253      -12.2005192050       -1.2797437979  CLST         393          1.0000000000
      1180       394  TIP3  OH2           0.6116486259       11.9113768583       -8.6136227859  CLST         394          1.0000000000
      1181       394  TIP3  H1            0.8530137501       12.2126833225       -7.7066183252  CLST         394          1.0000000000
      1182       394  TIP3  H2            0.9004255064       10.9809571747       -8.4008354256  CLST         394          1.0000000000
      1183       395  TIP3  OH2           6.9884431720        7.4466372456       -4.4797360658  CLST         395          1.0000000000
      1184       395  TIP3  H1            6.1344180585        8.0042804668       -4.4157569470  CLST         395          1.0000000000
      1185       395  TIP3  H2            6.7926384886        7.1380527724       -5.4180550944  CLST         395          1.0000000000
      1186       396  TIP3  OH2          -1.0611262623       -9.9775598148       -9.1970404450  CLST         396          1.0000000000
      1187       396  TIP3  H1           -1.1584102189       -9.9084407555       -8.2073376938  CLST         396          1.0000000000
      1188       396  TIP3  H2           -0.1207159468       -9.6991271662       -9.3194188709  CLST         396          1.0000000000
      1189       397  TIP3  OH2          11.3692568840        7.4103247462       -8.9498994415  CLST         397          1.0000000000
      1190       397  TIP3  H1           11.4611119427        6.5602791476       -8.4365561524  CLST         397          1.0000000000
      1191       397  TIP3  H2           10.4940691588        7.6409567668       -8.4457310251  CLST         397          1.0000000000
      1192       398  TIP3  OH2          10.7304968882        7.7339122888       -4.8144423715  CLST         398          1.0000000000
      1193       398  TIP3  H1           10.4678921529        8.2403173061       -4.0163331119  CLST         398          1.0000000000
      1194       398  TIP3  H2           11.3667729314        7.0912717158       -4.3404800013  CLST         398          1.0000000000
      1195       399  TIP3  OH2           1.8046519855       11.0551572514        4.8908645118  CLST         399          1.0000000000
      1196       399  TIP3  H1            1.5486366574       10.1070860237        5.0201960145  CLST         399          1.0000000000
      1197       399  TIP3  H2            2.3338935257       11.0809535348        5.7411536842  CLST         399          1.0000000000
      1198       400  TIP3  OH2           4.0747628898       -3.0146723217       -5.0449124403  CLST         400          1.0000000000
      1199       400  TIP3  H1            4.8765169826       -2.9321181473       -4.4832649393  CLST         400          1.0000000000
      1200       400  TIP3  H2            4.4832045682       -3.5117156722       -5.7875651927  CLST         400          1.0000000000
      1201       401  TIP3  OH2         -15.1442668883       10.0169239189        5.6008247097  CLST         401          1.0000000000
      1202       401  TIP3  H1          -14.4522105155       10.4140935477        6.2715197895  CLST         401          1.0000000000
      1203       401  TIP3  H2          -15.5975596690        9.3079970464        6.2334787684  CLST         401          1.0000000000
      1204       402  TIP3  OH2           1.7363881326       -1.6382726262       12.8262196537  CLST         402          1.0000000000
      1205       402  TIP3  H1            1.3579384817       -2.5424955841       13.0112257259  CLST         402          1.0000000000
      1206       402  TIP3  H2            1.7218530330       -1.8223955402       11.8433120224  CLST         402          1.0000000000
      1207       403  TIP3  OH2          -2.0879670858       -6.9952191264       -0.7587898002  CLST         403          1.0000000000
      1208       403  TIP3  H1           -2.1574275539       -6.5814874423       -1.6670772888  CLST         403          1.0000000000
      1209       403  TIP3  H2           -1.6768786808       -8.5319849631       -1.6561983867  CLST         403          1.0000000000
      1210       404  TIP3  OH2          -4.9065588998       -2.4741959835        9.0981499212  CLST         404          1.0000000000
      1211       404  TIP3  H1           -4.9047025006       -2.8185364218       10.0071120481  CLST         404          1.0000000000
      1212       404  TIP3  H2           -5.2821721457       -3.2836599423        8.6683437258  CLST         404          1.0000000000
      1213       405  TIP3  OH2         -12.1009932686        7.2779472220       11.1924186699  CLST         405          1.0000000000
      1214       405  TIP3  H1          -11.9670346468        6.3378338060       10.8688262061  CLST         405          1.0000000000
      1215       405  TIP3  H2          -12.8204456557        7.1840555053       11.7225575858  CLST         405          1.0000000000
      1216       406  TIP3  OH2           1.0289874554        7.7563175974      -12.1821675899  CLST         406          1.0000000000
      1217       406  TIP3  H1            1.0674452615        8.7551423014      -12.3455874978  CLST         406          1.0000000000
      1218       406  TIP3  H2            1.5623946568        7.7539129933      -11.3750229065  CLST         406          1.0000000000
      1219       407  TIP3  OH2          10.4786558545      -13.2344864028        5.1232883393  CLST         407          1.0000000000
      1220       407  TIP3  H1           10.3819399706      -13.3456865117        4.1803469698  CLST         407          1.0000000000
      1221       407  TIP3  H2           11.3085339701      -12.6836778633        5.1807421924  CLST         407          1.0000000000
      1222       408  TIP3  OH2          -2.9111758646      -11.7458317853        2.0440379516  CLST         408          1.0000000000
      1223       408  TIP3  H1           -2.1969668985      -11.0706494736        2.0551307653  CLST         408          1.0000000000
      1224       408  TIP3  H2           -2.3816706335      -12.5345760314        2.2677795034  CLST         408          1.0000000000
      1225       409  TIP3  OH2           1.0418654242       -9.6017603402        9.8034517522  CLST         409          1.0000000000
      1226       409  TIP3  H1            0.6038459638       -9.2512036576       10.5919816879  CLST         409          1.0000000000
      1227       409  TIP3  H2            1.6189007307      -10.2358164041       10.2919847114  CLST         409          1.0000000000
      1228       410  TIP3  OH2           9.9895232848       -7.1741056048       -5.2301654628  CLST         410          1.0000000000
      1229       410  TIP3  H1            9.0575876393       -6.9447641108       -5.2450222986  CLST         410          1.0000000000
      1230       410  TIP3  H2           10.3080555319       -6.3146087719       -5.6419212444  CLST         410          1.0000000000
      1231       411  TIP3  OH2         -10.0293644332       -2.3328060000       -1.3700494299  CLST         411          1.0000000000
      1232       411  TIP3  H1           -9.1548865976       -2.1294780562       -0.9780075005  CLST         411          1.0000000000
      1233       411  TIP3  H2           -9.7773872240       -3.0165327934       -2.0617424368  CLST         411          1.0000000000
      1234       412  TIP3  OH2           6.7203256928      -10.5426907555      -11.9225832402  CLST         412          1.0000000000
      1235       412  TIP3  H1            6.0064388983      -11.0117115807      -11.4047070087  CLST         412          1.0000000000
      1236       412  TIP3  H2            7.5324685296      -11.1326363732      -11.8325128342  CLST         412          1.0000000000
      1237       413  TIP3  OH2           7.0494997052       13.0006750281        0.3497070430  CLST         413          1.0000000000
      1238       413  TIP3  H1            7.5898223016       12.4175611640       -0.1892955151  CLST         413          1.0000000000
      1239       413  TIP3  H2            7.7591947058       13.6228013240        0.7052476752  CLST         413          1.0000000000
      1240       414  TIP3  OH2           1.6065897812       -2.6271340531      -12.4759099500  CLST         414          1.0000000000
      1241       414  TIP3  H1            0.6802313848       -2.3789909107      -12.4191264128  CLST         414          1.0000000000
      1242       414  TIP3  H2            1.8363869424       -2.6614300929      -13.4173827032  CLST         414          1.0000000000
      1243       415  TIP3  OH2           4.0065713596        5.2306577889       -8.4330924931  CLST         415          1.0000000000
      1244       415  TIP3  H1            3.4285773878        4.4626549094       -8.0788510444  CLST         415          1.0000000000
      1245       415  TIP3  H2            4.7004396238        4.5781118470       -8.8339742349  CLST         415          1.0000000000
      1246       416  TIP3  OH2           5.6873300564       12.4606194289       -7.7215583743  CLST         416          1.0000000000
      1247       416  TIP3  H1            5.3012193915       13.3289576708       -7.7195682170  CLST         416          1.0000000000
      1248       416  TIP3  H2            6.4992692584       12.4550527204       -8.2622862750  CLST         416          1.0000000000
      1249       417  TIP3  OH2          12.5897380365      -11.2394007357        2.7879988153  CLST         417          1.0000000000
      1250       417  TIP3  H1           11.7314680829      -11.5963623667        2.3607205306  CLST         417          1.0000000000
      1251       417  TIP3  H2           12.7692896106      -10.4507054296        2.2231486831  CLST         417          1.0000000000
      1252       418  TIP3  OH2          -9.1657543166       -1.5582788856        8.4638015289  CLST         418          1.0000000000
      1253       418  TIP3  H1           -8.6635998848       -1.2159403722        7.6500980051  CLST         418          1.0000000000
      1254       418  TIP3  H2           -8.8173253259       -0.9651781997        9.1768448203  CLST         418          1.0000000000
      1255       419  TIP3  OH2          14.9293813432        0.5360823223       -6.1630159173  CLST         419          1.0000000000
      1256       419  TIP3  H1           14.3248473686        0.9269827207       -5.4722996773  CLST         419          1.0000000000
      1257       419  TIP3  H2           15.6844926260        1.0578860954       -5.9538096311  CLST         419          1.0000000000
      1258       420  TIP3  OH2          -8.2148919597       -8.2089063168        3.6361396692  CLST         420          1.0000000000
      1259       420  TIP3  H1           -8.9514698346       -7.6201283927        3.2931081881  CLST         420          1.0000000000
      1260       420  TIP3  H2           -8.7189767165       -9.0656900886        3.5757628286  CLST         420          1.0000000000
      1261       421  TIP3  OH2           3.6304943291       -6.4409544695      -13.2702980388  CLST         421          1.0000000000
      1262       421  TIP3  H1            4.5077245975       -6.8291093198      -13.1800468760  CLST         421          1.0000000000
      1263       421  TIP3  H2            3.2235442166       -7.3449091512      -13.2937657230  CLST         421          1.0000000000
      1264       422  TIP3  OH2          -1.6469078200       -9.3276486096       -1.7406143374  CLST         422          1.0000000000
      1265       422  TIP3  H1           -1.0623267317      -10.1431002411       -1.6548120501  CLST         422          1.0000000000
      1266       422  TIP3  H2           -2.4958468177       -9.8055078503       -1.9803474050  CLST         422          1.0000000000
      1267       423  TIP3  OH2           1.7147371580        4.7706956415       -4.1484079842  CLST         423          1.0000000000
      1268       423  TIP3  H1            2.5288647136        5.1622026918       -4.5421371904  CLST         423          1.0000000000
      1269       423  TIP3  H2            1.9320085587        4.5049369576       -3.2385344771  CLST         423          1.0000000000
      1270       424  TIP3  OH2          -8.9611451463        4.3718482054        4.1808125487  CLST         424          1.0000000000
      1271       424  TIP3  H1           -8.7752580146        3.7390960401        3.4418999573  CLST         424          1.0000000000
      1272       424  TIP3  H2           -8.1556440163        4.8983189084        4.2204881598  CLST         424          1.0000000000
      1273       425  TIP3  OH2           8.1895099792      -12.7439221597        8.4431709377  CLST         425          1.0000000000
      1274       425  TIP3  H1            8.2203160313      -12.6215243291        7.4587299648  CLST         425          1.0000000000
      1275       425  TIP3  H2            7.7943740366      -11.8473093999        8.5562585439  CLST         425          1.0000000000
      1276       426  TIP3  OH2           8.2294948262        2.4030947538        8.4304884096  CLST         426          1.0000000000
      1277       426  TIP3  H1            8.9411694253        2.1266329846        9.0324555169  CLST         426          1.0000000000
      1278       426  TIP3  H2            8.4744235524        3.3373161289        8.2700874467  CLST         426          1.0000000000
      1279       427  TIP3  OH2          11.4630737662        7.5374287424       10.7356892222  CLST         427          1.0000000000
      1280       427  TIP3  H1           11.3566574275        7.9569506663       11.6419684276  CLST         427          1.0000000000
      1281       427  TIP3  H2           10.4762121723        7.0597679070       10.6864802633  CLST         427          1.0000000000
      1282       428  TIP3  OH2          12.5215777848        7.4891010003        1.1460397854  CLST         428          1.0000000000
      1283       428  TIP3  H1           12.4786313851        8.0099596585        0.2171432821  CLST         428          1.0000000000
      1284       428  TIP3  H2           13.3543812464        7.5109050080        1.3618945297  CLST         428          1.0000000000
      1285       429  TIP3  OH2          11.9494832651       -9.8353731017       -0.9025907799  CLST         429          1.0000000000
      1286       429  TIP3  H1           12.1084474277       -9.2266108884       -0.1229486032  CLST         429          1.0000000000
      1287       429  TIP3  H2           11.5345169007       -9.2157316200       -1.6281219403  CLST         429          1.0000000000
      1288       430  TIP3  OH2           9.8474975188       -6.8464827720        3.5985258994  CLST         430          1.0000000000
      1289       430  TIP3  H1            9.7652924999       -7.3489775499        2.7423742124  CLST         430          1.0000000000
      1290       430  TIP3  H2           10.8001186373       -6.6296288127        3.6348985859  CLST         430          1.0000000000
      1291       431  TIP3  OH2         -12.7957670369        9.1507771913       -2.1290568426  CLST         431          1.0000000000
      1292       431  TIP3  H1          -13.5997946052        9.5226484107       -2.3835715676  CLST         431          1.0000000000
      1293       431  TIP3  H2          -13.0144733119        8.7029912541       -1.3264496298  CLST         431          1.0000000000
      1294       432  TIP3  OH2           5.4062814299        8.5587932636       -9.9632372669  CLST         432          1.0000000000
      1295       432  TIP3  H1            5.7325847654        8.9708424708       -9.1747204682  CLST         432          1.0000000000
      1296       432  TIP3  H2            4.5846949272        9.0909929668       -9.9911955530  CLST         432          1.0000000000
      1297       433  TIP3  OH2          -0.6608374956        8.2289453654        7.7681773289  CLST         433          1.0000000000
      1298       433  TIP3  H1           -1.4812673653        8.5881217978        8.1365035843  CLST         433          1.0000000000
      1299       433  TIP3  H2           -1.0375491037        7.6198185602        7.1084957192  CLST         433          1.0000000000
      1300       434  TIP3  OH2          -7.2325509688        0.7874143166        3.7931309017  CLST         434          1.0000000000
      1301       434  TIP3  H1           -7.6554576962        1.5194673315        3.2632435210  CLST         434          1.0000000000
      1302       434  TIP3  H2           -7.8751354684        0.0728160544        3.4842839312  CLST         434          1.0000000000
      1303       435  TIP3  OH2           9.9153340071       -0.2109434452       -7.1310798114  CLST         435          1.0000000000
      1304       435  TIP3  H1           10.1012031119       -0.5158779133       -6.2360520809  CLST         435          1.0000000000
      1305       435  TIP3  H2           10.4616278997        0.5375515908       -7.2451183775  CLST         435          1.0000000000
      1306       436  TIP3  OH2           3.7524132001       10.4017827269       -9.1020463363  CLST         436          1.0000000000
      1307       436  TIP3  H1            4.1328310641       11.1846827417       -8.6688092337  CLST         436          1.0000000000
      1308       436  TIP3  H2            2.9642813932       10.1307706612       -8.6016055804  CLST         436          1.0000000000
      1309       437  TIP3  OH2          -8.3399929642       -1.0567949898       -8.0664925470  CLST         437          1.0000000000
      1310       437  TIP3  H1           -8.4418649829       -0.3170839078       -8.8538600015  CLST         437          1.0000000000
      1311       437  TIP3  H2           -7.3773669639       -0.7253909326       -7.8672420629  CLST         437          1.0000000000
      1312       438  TIP3  OH2          -3.3648694383        5.5292682553       -8.0814777317  CLST         438          1.0000000000
      1313       438  TIP3  H1           -4.1584354950        6.1766820521       -7.8406346781  CLST         438          1.0000000000
      1314       438  TIP3  H2           -3.3927016225        5.7906992538       -9.0813710956  CLST         438          1.0000000000
      1315       439  TIP3  OH2          14.0650349810        1.6589901228       -3.9226825750  CLST         439          1.0000000000
      1316       439  TIP3  H1           13.4409590661        2.4639244691       -4.3084375880  CLST         439          1.0000000000
      1317       439  TIP3  H2           13.5227518489        1.5345693735       -3.0768115070  CLST         439          1.0000000000
      1318       440  TIP3  OH2           1.2149456116      -12.8370747895      -11.1397239906  CLST         440          1.0000000000
      1319       440  TIP3  H1           -0.3177949223      -12.7581700492      -11.7298804423  CLST         440          1.0000000000
      1320       440  TIP3  H2            0.7976678258      -13.7623705921      -11.4634834840  CLST         440          1.0000000000
      1321       441  TIP3  OH2          -1.3456686122       -4.2809608193        3.1891054223  CLST         441          1.0000000000
      1322       441  TIP3  H1           -1.6243323699       -3.4668366764        3.3072405255  CLST         441          1.0000000000
      1323       441  TIP3  H2           -1.1072123584       -4.6715596432        4.0802580705  CLST         441          1.0000000000
      1324       442  TIP3  OH2           3.2514404974       -9.8221097570       -8.0511253373  CLST         442          1.0000000000
      1325       442  TIP3  H1            3.8240033889      -10.2883032871       -8.6775771792  CLST         442          1.0000000000
      1326       442  TIP3  H2            2.4948379999       -9.5622777422       -8.6824827068  CLST         442          1.0000000000
      1327       443  TIP3  OH2           1.1761509467       10.4361189460      -12.9234190078  CLST         443          1.0000000000
      1328       443  TIP3  H1            1.5309998591       11.2161695889      -12.2430119111  CLST         443          1.0000000000
      1329       443  TIP3  H2            1.6257718697       10.7503405220      -13.6799370201  CLST         443          1.0000000000
      1330       444  TIP3  OH2          -7.7670096027        1.3198486753       -1.8908612775  CLST         444          1.0000000000
      1331       444  TIP3  H1           -7.8612738075        2.1982056293       -2.3769083765  CLST         444          1.0000000000
      1332       444  TIP3  H2           -7.4674557980        1.7724201118       -1.0576523631  CLST         444          1.0000000000
      1333       445  TIP3  OH2         -11.5681915173       -5.3104131235        6.0772728684  CLST         445          1.0000000000
      1334       445  TIP3  H1          -11.6068952610       -4.3167053152        5.8796266627  CLST         445          1.0000000000
      1335       445  TIP3  H2          -11.5308398175       -5.2310852239        7.0436437997  CLST         445          1.0000000000
      1336       446  TIP3  OH2          -2.9232855727        4.6250931662       -5.2779135998  CLST         446          1.0000000000
      1337       446  TIP3  H1           -3.0629591517        4.9294117268       -6.2028574376  CLST         446          1.0000000000
      1338       446  TIP3  H2           -2.0237516665        5.0404994379       -5.1854831602  CLST         446          1.0000000000
      1339       447  TIP3  OH2          -5.0838895448      -12.7678083796       -3.7611463342  CLST         447          1.0000000000
      1340       447  TIP3  H1           -5.6505463287      -13.4161983171       -3.5326317155  CLST         447          1.0000000000
      1341       447  TIP3  H2           -4.6784860921      -12.3479503139       -3.0079401520  CLST         447          1.0000000000
      1342       448  TIP3  OH2           7.2182283312        9.5063387140        4.7322861584  CLST         448          1.0000000000
      1343       448  TIP3  H1            7.5420443240        9.5108156014        5.6960298645  CLST         448          1.0000000000
      1344       448  TIP3  H2            6.4845826826       10.2255303741        4.9127884540  CLST         448          1.0000000000
      1345       449  TIP3  OH2           4.2830273055        5.2373308300        8.6055002249  CLST         449          1.0000000000
      1346       449  TIP3  H1            4.9119931354        4.6333322384        9.1321688760  CLST         449          1.0000000000
      1347       449  TIP3  H2            3.9571155476        4.6625038118        7.9090779800  CLST         449          1.0000000000
      1348       450  TIP3  OH2          -4.0863952439        0.3683248667       -2.2085273509  CLST         450          1.0000000000
      1349       450  TIP3  H1           -3.6056526525        1.1628438608       -2.5337026401  CLST         450          1.0000000000
      1350       450  TIP3  H2           -3.2929978654        0.0266379092       -1.7305374079  CLST         450          1.0000000000
      1351       451  TIP3  OH2          13.5765830377       -1.9735400387       -5.7704134598  CLST         451          1.0000000000
      1352       451  TIP3  H1           14.3804892695       -1.9133653673       -5.4673910855  CLST         451          1.0000000000
      1353       451  TIP3  H2           14.3619527140       -0.8409858310       -5.8585121017  CLST         451          1.0000000000
      1354       452  TIP3  OH2           8.5476695050        5.1819370253        8.1393073574  CLST         452          1.0000000000
      1355       452  TIP3  H1            7.7460560802        5.7959475448        7.9684719918  CLST         452          1.0000000000
      1356       452  TIP3  H2            9.1489478189        5.7246725262        7.5466056072  CLST         452          1.0000000000
      1357       453  TIP3  OH2           7.0208551045        2.7328220528       -6.0700340106  CLST         453          1.0000000000
      1358       453  TIP3  H1            6.2682188211        2.2820371194       -5.6400784689  CLST         453          1.0000000000
      1359       453  TIP3  H2            6.5504552396        3.1268809366       -6.8276820702  CLST         453          1.0000000000
      1360       454  TIP3  OH2           1.2100401638        5.3960257735        1.9922181614  CLST         454          1.0000000000
      1361       454  TIP3  H1            0.2562002328        5.1231284921        1.8895543759  CLST         454          1.0000000000
      1362       454  TIP3  H2            0.9638939715        6.1033600793        2.6810245680  CLST         454          1.0000000000
      1363       455  TIP3  OH2          -1.1570068950        1.0297518852      -10.3868497908  CLST         455          1.0000000000
      1364       455  TIP3  H1           -1.3152270949        1.2410235425       -9.4510001201  CLST         455          1.0000000000
      1365       455  TIP3  H2           -1.0677058713        1.9884092148      -10.6396557735  CLST         455          1.0000000000
      1366       456  TIP3  OH2           5.3967311737       11.2973995354        5.3523714245  CLST         456          1.0000000000
      1367       456  TIP3  H1            4.7248221791       11.4564570273        4.6778869313  CLST         456          1.0000000000
      1368       456  TIP3  H2            4.7311895135       11.1788132860        6.1236730856  CLST         456          1.0000000000
      1369       457  TIP3  OH2          -4.9193353978       -7.6766588079        4.7852029205  CLST         457          1.0000000000
      1370       457  TIP3  H1           -5.7057726441       -7.8918428269        5.3285958105  CLST         457          1.0000000000
      1371       457  TIP3  H2           -5.2822914119       -7.1939256312        4.0131108985  CLST         457          1.0000000000
      1372       458  TIP3  OH2           8.1124538681       -6.5215848900      -11.3252168857  CLST         458          1.0000000000
      1373       458  TIP3  H1            8.9908283378       -6.2466116803      -11.6817786277  CLST         458          1.0000000000
      1374       458  TIP3  H2            7.9031718843       -5.6668042624      -10.8971534990  CLST         458          1.0000000000
      1375       459  TIP3  OH2           6.5214667924       -9.9310053064       -7.9688458958  CLST         459          1.0000000000
      1376       459  TIP3  H1            6.1057025578       -9.0911567156       -7.6805707788  CLST         459          1.0000000000
      1377       459  TIP3  H2            7.2664630941       -9.4806314953       -8.5343252523  CLST         459          1.0000000000
      1378       460  TIP3  OH2           9.1245792238       -2.1736773635       -2.7345019617  CLST         460          1.0000000000
      1379       460  TIP3  H1            9.7757993775       -2.7981338024       -2.3208768317  CLST         460          1.0000000000
      1380       460  TIP3  H2            9.7248395247       -1.6853979720       -3.3314299532  CLST         460          1.0000000000
      1381       461  TIP3  OH2          -1.2876631676      -12.7852923418       -5.4215732425  CLST         461          1.0000000000
      1382       461  TIP3  H1           -0.5207793899      -12.8343861746       -6.0962583395  CLST         461          1.0000000000
      1383       461  TIP3  H2           -0.8027173097      -13.1525039303       -4.6068664070  CLST         461          1.0000000000
      1384       462  TIP3  OH2          -0.0485144128        5.4297077455      -12.8167614805  CLST         462          1.0000000000
      1385       462  TIP3  H1            0.3329252252        6.3727479655      -12.5874751409  CLST         462          1.0000000000
      1386       462  TIP3  H2            0.7731372541        5.1323876688      -13.2534114485  CLST         462          1.0000000000
      1387       463  TIP3  OH2          -1.7649646436        1.8406237090       -7.7335264715  CLST         463          1.0000000000
      1388       463  TIP3  H1           -1.5698572760        0.9603012578       -7.3419061096  CLST         463          1.0000000000
      1389       463  TIP3  H2           -2.7307294451        1.8882954503       -7.5768187332  CLST         463          1.0000000000
      1390       464  TIP3  OH2          -6.5770850051        6.2625041286        4.3962206206  CLST         464          1.0000000000
      1391       464  TIP3  H1           -6.0118954140        5.7056995459        4.8307971027  CLST         464          1.0000000000
      1392       464  TIP3  H2           -6.8688552557        6.9368498402        5.1327006686  CLST         464          1.0000000000
      1393       465  TIP3  OH2          -4.6668859415      -12.4003623838        6.2809876297  CLST         465          1.0000000000
      1394       465  TIP3  H1           -3.7622251545      -12.8649560046        6.1260330667  CLST         465          1.0000000000
      1395       465  TIP3  H2           -4.3378637817      -11.4611012454        5.8912324727  CLST         465          1.0000000000
      1396       466  TIP3  OH2          -2.4419675186        9.4525366636       -4.2724684561  CLST         466          1.0000000000
      1397       466  TIP3  H1           -3.1531260744        9.5933396214       -4.9232692171  CLST         466          1.0000000000
      1398       466  TIP3  H2           -2.5943552242       10.1752433002       -3.5688727812  CLST         466          1.0000000000
      1399       467  TIP3  OH2           8.4245275750        5.9787902966        4.6512939966  CLST         467          1.0000000000
      1400       467  TIP3  H1            8.6448065755        6.4208933507        5.4987139828  CLST         467          1.0000000000
      1401       467  TIP3  H2            8.1971494689        6.7256084233        4.0283343546  CLST         467          1.0000000000
      1402       468  TIP3  OH2          -0.4561836478      -12.4522253369       10.3623644488  CLST         468          1.0000000000
      1403       468  TIP3  H1           -0.8242756754      -12.0216013243       11.1493729671  CLST         468          1.0000000000
      1404       468  TIP3  H2            0.5277425309      -12.3084747077       10.5161592917  CLST         468          1.0000000000
      1405       469  TIP3  OH2           5.5535422618        8.2162204042       14.3141467196  CLST         469          1.0000000000
      1406       469  TIP3  H1            6.4191869586        8.3355498408       13.8815175096  CLST         469          1.0000000000
      1407       469  TIP3  H2            5.2505762138        9.0799890368       14.0077675886  CLST         469          1.0000000000
      1408       470  TIP3  OH2         -11.3566528883       12.8277406999        0.5530364862  CLST         470          1.0000000000
      1409       470  TIP3  H1          -11.1097446011       12.6372417259       -0.3081998192  CLST         470          1.0000000000
      1410       470  TIP3  H2          -11.5757009703       11.8812374397        0.7654042099  CLST         470          1.0000000000
      1411       471  TIP3  OH2          -4.2757857338        9.6298440562       -9.0907795489  CLST         471          1.0000000000
      1412       471  TIP3  H1           -4.3769339029        8.6423489829       -9.1072473201  CLST         471          1.0000000000
      1413       471  TIP3  H2           -4.5567844693        9.9028016973      -10.0002289884  CLST         471          1.0000000000
      1414       472  TIP3  OH2         -11.9731501382        3.8959827730        2.9440089004  CLST         472          1.0000000000
      1415       472  TIP3  H1          -12.4758793485        3.1430778937        3.3004694486  CLST         472          1.0000000000
      1416       472  TIP3  H2          -11.6304833521        3.4125867624        2.1578248396  CLST         472          1.0000000000
      1417       473  TIP3  OH2           5.3539846943        0.9434272089        9.9632206370  CLST         473          1.0000000000
      1418       473  TIP3  H1            5.9384844935        1.6025330883       10.3792917548  CLST         473          1.0000000000
      1419       473  TIP3  H2            4.5564463090        1.4269162968        9.8217135785  CLST         473          1.0000000000
      1420       474  TIP3  OH2           1.2339341278        1.6417442557        1.5752833437  CLST         474          1.0000000000
      1421       474  TIP3  H1            0.2486614982        1.5588130012        1.6545832298  CLST         474          1.0000000000
      1422       474  TIP3  H2            1.3562185808        1.3347636357        0.6500745874  CLST         474          1.0000000000
      1423       475  TIP3  OH2           5.9907817552       -8.6771842215       11.8203796449  CLST         475          1.0000000000
      1424       475  TIP3  H1            6.8528787222       -8.3893771703       12.1492424915  CLST         475          1.0000000000
      1425       475  TIP3  H2            6.1854894079       -9.0471680421       10.9349714942  CLST         475          1.0000000000
      1426       476  TIP3  OH2         -11.4303535181       -8.9108920664        0.0301809714  CLST         476          1.0000000000
      1427       476  TIP3  H1          -11.9422356705       -8.1289704693       -0.3568832823  CLST         476          1.0000000000
      1428       476  TIP3  H2          -10.6490387803       -8.7249513033       -0.5471522510  CLST         476          1.0000000000
      1429       477  TIP3  OH2         -12.4460305852        3.5582742660      -13.4162892550  CLST         477          1.0000000000
      1430       477  TIP3  H1          -13.1859318539        3.0378473523      -13.7022484958  CLST         477          1.0000000000
      1431       477  TIP3  H2          -11.7203786862        3.0289447187      -13.7317349495  CLST         477          1.0000000000
      1432       478  TIP3  OH2          -3.9688842688        6.5309085187      -10.7639610320  CLST         478          1.0000000000
      1433       478  TIP3  H1           -4.5367101701        6.5861981397      -11.6039704908  CLST         478          1.0000000000
      1434       478  TIP3  H2           -3.2688609357        7.1062340028      -11.1993210349  CLST         478          1.0000000000
      1435       479  TIP3  OH2           7.9787362484       -1.3932498173       -8.4535350299  CLST         479          1.0000000000
      1436       479  TIP3  H1            8.7322137642       -1.0577469814       -7.9407480636  CLST         479          1.0000000000
      1437       479  TIP3  H2            7.3056182207       -1.1318223384       -7.8640954219  CLST         479          1.0000000000
      1438       480  TIP3  OH2          -6.1125282987        7.6656095125       -0.0246118906  CLST         480          1.0000000000
      1439       480  TIP3  H1           -5.2207490089        8.0018615132       -0.3509827124  CLST         480          1.0000000000
      1440       480  TIP3  H2           -5.8516009937        6.7305531108        0.1801580003  CLST         480          1.0000000000
      1441       481  TIP3  OH2          -3.1052923236        2.5266485015       11.8434277704  CLST         481          1.0000000000
      1442       481  TIP3  H1           -2.1120817737        2.3949872445       11.6742218234  CLST         481          1.0000000000
      1443       481  TIP3  H2           -3.3329199090        1.8241265043       12.4271520779  CLST         481          1.0000000000
      1444       482  TIP3  OH2          -7.8572553500       11.7638849398       -7.6169440955  CLST         482          1.0000000000
      1445       482  TIP3  H1           -8.5747519079       11.5505125268       -8.1855883559  CLST         482          1.0000000000
      1446       482  TIP3  H2           -7.1871142191       12.0317312035       -8.3154778413  CLST         482          1.0000000000
      1447       483  TIP3  OH2           6.4931674458       -5.5842196258       12.5892779726  CLST         483          1.0000000000
      1448       483  TIP3  H1            5.9467593573       -6.3721900519       12.8082369219  CLST         483          1.0000000000
      1449       483  TIP3  H2            6.3060151591       -5.5626138566       11.5865842906  CLST         483          1.0000000000
      1450       484  TIP3  OH2           6.7849244563       -3.0713359250        2.9677968016  CLST         484          1.0000000000
      1451       484  TIP3  H1            5.7567676582       -3.1863954217        2.9687451386  CLST         484          1.0000000000
      1452       484  TIP3  H2            6.7847995489       -2.2890629855        3.5966014599  CLST         484          1.0000000000
      1453       485  TIP3  OH2         -11.6560965881        4.5759736517        9.9376241415  CLST         485          1.0000000000
      1454       485  TIP3  H1          -11.1486705346        3.7227743542        9.8319391355  CLST         485          1.0000000000
      1455       485  TIP3  H2          -12.4245052423        4.3919153785        9.3264363974  CLST         485          1.0000000000
      1456       486  TIP3  OH2           8.4469035568       -7.0839141765       13.5437880091  CLST         486          1.0000000000
      1457       486  TIP3  H1            8.7856507514       -6.9070152305       14.2852558430  CLST         486          1.0000000000
      1458       486  TIP3  H2            7.9160701819       -6.2819498126       13.1505950008  CLST         486          1.0000000000
      1459       487  TIP3  OH2          12.2361025119       -8.3989798925        6.1884871683  CLST         487          1.0000000000
      1460       487  TIP3  H1           11.2118684595       -8.3170617564        5.9986836013  CLST         487          1.0000000000
      1461       487  TIP3  H2           12.1317747696       -8.6053847927        7.1720960214  CLST         487          1.0000000000
      1462       488  TIP3  OH2          15.3493190540        8.3753683345        7.6760003661  CLST         488          1.0000000000
      1463       488  TIP3  H1           15.7041266803        7.5669616325        7.5794604658  CLST         488          1.0000000000
      1464       488  TIP3  H2           14.3701382706        7.3873778283        8.5307653666  CLST         488          1.0000000000
      1465       489  TIP3  OH2          -6.2385800289      -10.8821108694       11.8924313188  CLST         489          1.0000000000
      1466       489  TIP3  H1           -6.4980254655      -10.0524275031       11.8048238362  CLST         489          1.0000000000
      1467       489  TIP3  H2           -7.0099433038      -11.3751223754       11.3981186784  CLST         489          1.0000000000
      1468       490  TIP3  OH2           6.9080612130      -12.9608723073        2.3253005800  CLST         490          1.0000000000
      1469       490  TIP3  H1            6.8012743398      -12.0263954213        2.4165234163  CLST         490          1.0000000000
      1470       490  TIP3  H2            6.3092122147      -13.3619661726        2.9094832706  CLST         490          1.0000000000
      1471       491  TIP3  OH2           2.9801367558       -9.2709192387        5.1083572433  CLST         491          1.0000000000
      1472       491  TIP3  H1            2.0573955559       -9.2309163172        5.3839082496  CLST         491          1.0000000000
      1473       491  TIP3  H2            2.9574511191       -9.6514907533        4.2293443741  CLST         491          1.0000000000
      1474       492  TIP3  OH2          -0.5409957669       -6.6504682438       12.2707533743  CLST         492          1.0000000000
      1475       492  TIP3  H1           -0.3225644249       -7.6431511217       12.4182234370  CLST         492          1.0000000000
      1476       492  TIP3  H2           -1.3963974729       -6.7485186764       11.8766114901  CLST         492          1.0000000000
      1477       493  TIP3  OH2           3.5353341514       10.7326173419        7.1781276537  CLST         493          1.0000000000
      1478       493  TIP3  H1            4.3064177032       10.5243285586        7.7848278646  CLST         493          1.0000000000
      1479       493  TIP3  H2            2.8283280468       10.2127821183        7.7087636186  CLST         493          1.0000000000
      1480       494  TIP3  OH2          -9.0529292093        5.4381179925       -0.5965877958  CLST         494          1.0000000000
      1481       494  TIP3  H1           -9.5835163975        5.9505639724       -1.1858994910  CLST         494          1.0000000000
      1482       494  TIP3  H2           -9.4611561776        5.7893772883        0.2638505248  CLST         494          1.0000000000
      1483       495  TIP3  OH2           5.0667279969       -6.7698466510       -2.0012262817  CLST         495          1.0000000000
      1484       495  TIP3  H1            5.8777856620       -6.3139736515       -2.4176959772  CLST         495          1.0000000000
      1485       495  TIP3  H2            5.6631173539       -7.4758028125       -1.6021417048  CLST         495          1.0000000000
      1486       496  TIP3  OH2         -12.6700173508      -10.7848392715        7.4521880405  CLST         496          1.0000000000
      1487       496  TIP3  H1          -13.4873160669      -10.9314760821        7.6006526655  CLST         496          1.0000000000
      1488       496  TIP3  H2          -12.4530777016      -11.5236910568        6.7370168853  CLST         496          1.0000000000
      1489       497  TIP3  OH2          -9.6781760914      -13.1365807093       -7.1938464131  CLST         497          1.0000000000
      1490       497  TIP3  H1          -10.0909552096      -13.8297073277       -7.6583494114  CLST         497          1.0000000000
      1491       497  TIP3  H2          -10.2164050595      -12.3497357031       -7.2519672200  CLST         497          1.0000000000
      1492       498  TIP3  OH2          -5.3638793017        0.4176082514      -11.3170657582  CLST         498          1.0000000000
      1493       498  TIP3  H1           -5.7834288493        0.5022184028      -12.1827812400  CLST         498          1.0000000000
      1494       498  TIP3  H2           -5.1525254154        1.3100009688      -10.9808698893  CLST         498          1.0000000000
      1495       499  TIP3  OH2          11.3370352029        6.7290255218        3.5358421594  CLST         499          1.0000000000
      1496       499  TIP3  H1           11.7451639630        7.1250040763        2.7474936730  CLST         499          1.0000000000
      1497       499  TIP3  H2           11.0796613880        7.5158673177        4.0757074213  CLST         499          1.0000000000
      1498       500  TIP3  OH2           2.5521407705       -8.8378945125      -13.4352699846  CLST         500          1.0000000000
      1499       500  TIP3  H1            2.0853423064       -9.1313365272      -14.1313727587  CLST         500          1.0000000000
      1500       500  TIP3  H2            2.6053866477       -9.5632264123      -12.7985985142  CLST         500          1.0000000000
      1501       501  TIP3  OH2           1.2920218217      -10.8448632189       13.9350814116  CLST         501          1.0000000000
      1502       501  TIP3  H1            1.3222292047      -11.6267547629       14.4549774343  CLST         501          1.0000000000
      1503       501  TIP3  H2            2.2538502084      -10.5911494872       13.8567785168  CLST         501          1.0000000000
      1504       502  TIP3  OH2           6.2318454706        3.7931926105        9.6439910557  CLST         502          1.0000000000
      1505       502  TIP3  H1            6.6583795768        4.1529327678       10.4576099038  CLST         502          1.0000000000
      1506       502  TIP3  H2            6.9483105855        3.2017612517        9.3087645895  CLST         502          1.0000000000
      1507       503  TIP3  OH2          10.6302212623       -0.9510270700        0.2350973875  CLST         503          1.0000000000
      1508       503  TIP3  H1           11.3901771514       -0.4149566999        0.6883847272  CLST         503          1.0000000000
      1509       503  TIP3  H2           10.2970760857       -0.3346815599       -0.4624092876  CLST         503          1.0000000000
      1510       504  TIP3  OH2           8.1466451282      -13.7033728499       10.8343835249  CLST         504          1.0000000000
      1511       504  TIP3  H1            8.3806912971      -13.4555483107        9.9125655396  CLST         504          1.0000000000
      1512       504  TIP3  H2            8.6543873620      -14.3733957674       11.0998249514  CLST         504          1.0000000000
      1513       505  TIP3  OH2           3.4355246930      -10.9688663094       -5.6230631265  CLST         505          1.0000000000
      1514       505  TIP3  H1            3.3883110716      -10.3795413521       -6.4165512487  CLST         505          1.0000000000
      1515       505  TIP3  H2            3.0462539506      -10.5645942485       -4.9016693943  CLST         505          1.0000000000
      1516       506  TIP3  OH2          -9.2079460685       -3.3820826211       -8.0455326686  CLST         506          1.0000000000
      1517       506  TIP3  H1           -8.8639585812       -1.7647853387       -7.9726061488  CLST         506          1.0000000000
      1518       506  TIP3  H2          -10.4843043337       -2.6810771253       -8.7426262522  CLST         506          1.0000000000
      1519       507  TIP3  OH2          11.1401895222        9.6859277363      -12.8753134128  CLST         507          1.0000000000
      1520       507  TIP3  H1           11.1915385116        9.7151764233      -13.7048288955  CLST         507          1.0000000000
      1521       507  TIP3  H2           11.0764038224        8.7381916165      -12.6208613511  CLST         507          1.0000000000
      1522       508  TIP3  OH2           9.1359457579       12.2332149277        9.0998101917  CLST         508          1.0000000000
      1523       508  TIP3  H1            8.7526138255       12.3711331549        8.1684583284  CLST         508          1.0000000000
      1524       508  TIP3  H2           10.0207300368       12.3530629243        8.6193335217  CLST         508          1.0000000000
      1525       509  TIP3  OH2          -0.7217273158       -1.3916903127      -11.3303144547  CLST         509          1.0000000000
      1526       509  TIP3  H1           -1.6887076785       -1.6207364028      -11.4440924725  CLST         509          1.0000000000
      1527       509  TIP3  H2           -0.8855945558       -0.4586296642      -10.9910856054  CLST         509          1.0000000000
      1528       510  TIP3  OH2           8.2023800567        2.2285065029       11.6927521546  CLST         510          1.0000000000
      1529       510  TIP3  H1            8.1292192036        1.2030421145       11.6792531499  CLST         510          1.0000000000
      1530       510  TIP3  H2            9.1393215890        2.2539465943       11.3397145443  CLST         510          1.0000000000
      1531       511  TIP3  OH2          -8.7674394153       -5.9227648478       -0.6501413116  CLST         511          1.0000000000
      1532       511  TIP3  H1           -9.7069706845       -6.0267503192       -0.9769684273  CLST         511          1.0000000000
      1533       511  TIP3  H2           -8.3519582215       -5.4054493701       -1.3338217521  CLST         511          1.0000000000
      1534       512  TIP3  OH2           9.8943999863        7.0266561366        6.8847732772  CLST         512          1.0000000000
      1535       512  TIP3  H1           10.0682965424        7.6559060664        7.6437156663  CLST         512          1.0000000000
      1536       512  TIP3  H2           10.2226310953        7.6692659291        6.1812650265  CLST         512          1.0000000000
      1537       513  TIP3  OH2         -11.8509406391       10.4050555393        9.2656083848  CLST         513          1.0000000000
      1538       513  TIP3  H1          -11.5803703918       11.3219896679        9.5160150924  CLST         513          1.0000000000
      1539       513  TIP3  H2          -11.7737497651        9.9783146459       10.1406173579  CLST         513          1.0000000000
      1540       514  TIP3  OH2          -4.8421074615        5.1811011803       -0.0291116916  CLST         514          1.0000000000
      1541       514  TIP3  H1           -4.0530239619        5.6082010246        0.3841112813  CLST         514          1.0000000000
      1542       514  TIP3  H2           -4.6085004452        5.0719154860       -0.9740477172  CLST         514          1.0000000000
      1543       515  TIP3  OH2          -0.8313634026        0.9297655084       -4.4396715466  CLST         515          1.0000000000
      1544       515  TIP3  H1           -1.6116552712        1.5989035037       -4.4863339504  CLST         515          1.0000000000
      1545       515  TIP3  H2           -0.0509699124        1.4200757474       -4.7430154996  CLST         515          1.0000000000
      1546       516  TIP3  OH2          -7.3507909955       -8.5262868198        6.3346408853  CLST         516          1.0000000000
      1547       516  TIP3  H1           -7.5422513201       -8.5996970970        5.3783637814  CLST         516          1.0000000000
      1548       516  TIP3  H2           -7.9566343772       -7.6961952992        6.5287536815  CLST         516          1.0000000000
      1549       517  TIP3  OH2           0.6157502592       10.9580099046       11.4681475496  CLST         517          1.0000000000
      1550       517  TIP3  H1            0.6149038339       10.6968015136       10.4970189712  CLST         517          1.0000000000
      1551       517  TIP3  H2           -0.3275803898       11.2326558196       11.5137864518  CLST         517          1.0000000000
      1552       518  TIP3  OH2         -11.6426459259       -3.5992135999      -11.3544106681  CLST         518          1.0000000000
      1553       518  TIP3  H1          -12.1206023609       -3.4263946932      -12.1691717752  CLST         518          1.0000000000
      1554       518  TIP3  H2          -10.8162956013       -3.8597608317      -11.6403636410  CLST         518          1.0000000000
      1555       519  TIP3  OH2           2.1917786027        3.4180843871        3.3960529292  CLST         519          1.0000000000
      1556       519  TIP3  H1            1.9754763454        4.1969020269        2.8262437434  CLST         519          1.0000000000
      1557       519  TIP3  H2            1.8066417667        2.7252446663        2.7837488393  CLST         519          1.0000000000
      1558       520  TIP3  OH2         -10.2949247740        6.2249154608        8.2893550517  CLST         520          1.0000000000
      1559       520  TIP3  H1          -10.4866854405        5.6818944653        7.4961207609  CLST         520          1.0000000000
      1560       520  TIP3  H2          -10.8632350385        5.6593120269        8.9546770522  CLST         520          1.0000000000
      1561       521  TIP3  OH2           8.4323434121       -8.9211331478       -9.5210274941  CLST         521          1.0000000000
      1562       521  TIP3  H1            8.7186492050       -9.5904442865      -10.1916700932  CLST         521          1.0000000000
      1563       521  TIP3  H2            8.2838928332       -8.1211996653      -10.0562984904  CLST         521          1.0000000000
      1564       522  TIP3  OH2          -5.4912459580       -6.9077672000        8.1045248285  CLST         522          1.0000000000
      1565       522  TIP3  H1           -6.0511446941       -7.7127669218        7.8985243634  CLST         522          1.0000000000
      1566       522  TIP3  H2           -4.5487695046       -7.1919418838        8.2269097668  CLST         522          1.0000000000
      1567       523  TIP3  OH2          -4.1981405200       12.3383811846      -13.7229502887  CLST         523          1.0000000000
      1568       523  TIP3  H1           -3.1947091769       12.1268678629      -13.5206916373  CLST         523          1.0000000000
      1569       523  TIP3  H2           -3.9769663585       12.8754539397      -14.4663694086  CLST         523          1.0000000000
      1570       524  TIP3  OH2           6.8914429194        3.8200427228       -1.8728249873  CLST         524          1.0000000000
      1571       524  TIP3  H1            7.0843576651        3.0199916610       -2.3833966244  CLST         524          1.0000000000
      1572       524  TIP3  H2            5.9009220757        3.9514459829       -1.9565717786  CLST         524          1.0000000000
      1573       525  TIP3  OH2           0.2877453126        6.7898159294       -2.5039121048  CLST         525          1.0000000000
      1574       525  TIP3  H1            0.3978455006        6.4881386849       -3.4324581368  CLST         525          1.0000000000
      1575       525  TIP3  H2            0.1848172054        5.9047443628       -2.0506224214  CLST         525          1.0000000000
      1576       526  TIP3  OH2           7.1641766829       -5.5058596272       -3.5142226674  CLST         526          1.0000000000
      1577       526  TIP3  H1            7.1224907349       -5.7746319307       -4.4412417604  CLST         526          1.0000000000
      1578       526  TIP3  H2            8.1002213121       -5.4816229757       -3.2378570641  CLST         526          1.0000000000
      1579       527  TIP3  OH2           0.3500287247        7.0833981886        4.0407077368  CLST         527          1.0000000000
      1580       527  TIP3  H1            1.0439550357        7.2543371133        4.7617937374  CLST         527          1.0000000000
      1581       527  TIP3  H2            0.1850002771        8.0269414601        3.9005297636  CLST         527          1.0000000000
      1582       528  TIP3  OH2          -2.7239631146        9.7611297606        8.6988569405  CLST         528          1.0000000000
      1583       528  TIP3  H1           -3.0871508120        9.5543203321        9.5705060683  CLST         528          1.0000000000
      1584       528  TIP3  H2           -3.5075002783       10.1792984598        8.2976024127  CLST         528          1.0000000000
      1585       529  TIP3  OH2          -6.1031803327       12.2955702515       -9.4611199046  CLST         529          1.0000000000
      1586       529  TIP3  H1           -5.2892510130       12.5281075291       -9.0519678877  CLST         529          1.0000000000
      1587       529  TIP3  H2           -5.7709000408       12.0412639945      -10.3462370535  CLST         529          1.0000000000
      1588       530  TIP3  OH2          -4.4091039120       -5.5841159308      -13.0869479887  CLST         530          1.0000000000
      1589       530  TIP3  H1           -4.3391167765       -6.5990997918      -13.1179716172  CLST         530          1.0000000000
      1590       530  TIP3  H2           -3.5524451578       -5.2803819884      -13.3223072078  CLST         530          1.0000000000
      1591       531  TIP3  OH2         -11.7557889501       -0.3659266432       10.3379892123  CLST         531          1.0000000000
      1592       531  TIP3  H1          -12.3033537595       -0.4111348898       10.9606144689  CLST         531          1.0000000000
      1593       531  TIP3  H2          -11.8323714440       -1.0378765756        9.6151559311  CLST         531          1.0000000000
      1594       532  TIP3  OH2         -11.9087369811       -3.1474609163       -8.8278042732  CLST         532          1.0000000000
      1595       532  TIP3  H1          -12.3279501772       -3.9815478218       -8.4900812088  CLST         532          1.0000000000
      1596       532  TIP3  H2          -12.0087912536       -3.3813871592       -9.9646451089  CLST         532          1.0000000000
      1597       533  TIP3  OH2          -2.8228989078       -7.1532506161        8.7137208321  CLST         533          1.0000000000
      1598       533  TIP3  H1           -2.1290628996       -7.8593988884        8.6593414750  CLST         533          1.0000000000
      1599       533  TIP3  H2           -2.3257282972       -6.4044398489        8.3248548523  CLST         533          1.0000000000
      1600       534  TIP3  OH2           0.4033111633      -13.1707201975       -7.6628393379  CLST         534          1.0000000000
      1601       534  TIP3  H1            0.8036605451      -12.9157296846       -8.5011344641  CLST         534          1.0000000000
      1602       534  TIP3  H2            1.3167844855      -13.4205383573       -7.3058670165  CLST         534          1.0000000000
      1603       535  TIP3  OH2           2.8406354041        3.1078213952       -7.4287872566  CLST         535          1.0000000000
      1604       535  TIP3  H1            3.4635212753        2.6262143972       -6.8405409033  CLST         535          1.0000000000
      1605       535  TIP3  H2            1.9594009139        2.8488843132       -7.1794413109  CLST         535          1.0000000000
      1606       536  TIP3  OH2           7.7428993634      -12.5437906977       -3.4516655093  CLST         536          1.0000000000
      1607       536  TIP3  H1            7.1198601710      -12.3892548356       -4.1979404940  CLST         536          1.0000000000
      1608       536  TIP3  H2            8.1802461627      -13.2562863988       -3.8438683655  CLST         536          1.0000000000
      1609       537  TIP3  OH2          11.6092397362       -2.6289542852       -7.4892826877  CLST         537          1.0000000000
      1610       537  TIP3  H1           11.4132777134       -1.7066638392       -7.2865309602  CLST         537          1.0000000000
      1611       537  TIP3  H2           12.5390604845       -2.7076388989       -7.1507558824  CLST         537          1.0000000000
      1612       538  TIP3  OH2          -5.2514546572      -10.9800943282        0.8464996536  CLST         538          1.0000000000
      1613       538  TIP3  H1           -4.4789007112      -11.1873487271        1.4211711719  CLST         538          1.0000000000
      1614       538  TIP3  H2           -5.0639942215      -10.0088879374        0.6801694239  CLST         538          1.0000000000
      1615       539  TIP3  OH2           2.5291584377       -5.1512292554        0.7246108015  CLST         539          1.0000000000
      1616       539  TIP3  H1            1.6115060254       -5.4668261545        0.9773755889  CLST         539          1.0000000000
      1617       539  TIP3  H2            2.4324576387       -5.3907537350       -0.2605937183  CLST         539          1.0000000000
      1618       540  TIP3  OH2           4.0103166308       -6.7657301649        4.7661018147  CLST         540          1.0000000000
      1619       540  TIP3  H1            3.6059783845       -7.6410543050        5.0653007335  CLST         540          1.0000000000
      1620       540  TIP3  H2            4.1545283705       -6.9905716079        3.8011541469  CLST         540          1.0000000000
      1621       541  TIP3  OH2          -5.6250567048       10.4441291059        2.1710229590  CLST         541          1.0000000000
      1622       541  TIP3  H1           -5.9796804846       10.4302478696        3.0981537050  CLST         541          1.0000000000
      1623       541  TIP3  H2           -4.9505711929       11.1723861288        2.3241706922  CLST         541          1.0000000000
      1624       542  TIP3  OH2         -10.9442851750       14.3861172041        5.5793252993  CLST         542          1.0000000000
      1625       542  TIP3  H1          -10.8817104931       15.2734000962        5.3869796627  CLST         542          1.0000000000
      1626       542  TIP3  H2          -10.6240967886       14.0026583261        4.6440872906  CLST         542          1.0000000000
      1627       543  TIP3  OH2         -10.6223958333       11.3034833842       -2.4143044513  CLST         543          1.0000000000
      1628       543  TIP3  H1          -11.5800365711       10.7586918957       -2.4704564592  CLST         543          1.0000000000
      1629       543  TIP3  H2          -10.4251085275       11.5895965128       -3.2944654746  CLST         543          1.0000000000
      1630       544  TIP3  OH2          -0.4232540815        5.7073954268       -5.6667161812  CLST         544          1.0000000000
      1631       544  TIP3  H1           -0.4861906635        5.2868243679       -6.5878331314  CLST         544          1.0000000000
      1632       544  TIP3  H2            0.4058298635        5.2661906927       -5.3658204652  CLST         544          1.0000000000
      1633       545  TIP3  OH2          -7.9076473064        2.5074489718      -12.5389281051  CLST         545          1.0000000000
      1634       545  TIP3  H1           -8.0404734627        2.2362740919      -13.4932620271  CLST         545          1.0000000000
      1635       545  TIP3  H2           -8.4662255513        3.3441112518      -12.5086500138  CLST         545          1.0000000000
      1636       546  TIP3  OH2           3.7676212136       11.1924118606       -2.0530970247  CLST         546          1.0000000000
      1637       546  TIP3  H1            3.3244878790       10.2854420200       -2.0686397846  CLST         546          1.0000000000
      1638       546  TIP3  H2            4.2425397885       11.0268480052       -1.2151979427  CLST         546          1.0000000000
      1639       547  TIP3  OH2          -3.4232892384       -2.0748864704      -11.1373869602  CLST         547          1.0000000000
      1640       547  TIP3  H1           -3.6571842650       -2.1928879865      -10.1611118182  CLST         547          1.0000000000
      1641       547  TIP3  H2           -3.9895230832       -1.2372880325      -11.2279103770  CLST         547          1.0000000000
      1642       548  TIP3  OH2          10.6641802409        2.4767577652        1.4525843081  CLST         548          1.0000000000
      1643       548  TIP3  H1            9.7207643634        2.3400189005        1.6088385321  CLST         548          1.0000000000
      1644       548  TIP3  H2           10.7061603912        3.2077318392        2.0924073660  CLST         548          1.0000000000
