* Geometry rescue: heat segment 7/8 at step 2500
*
        1644  EXT
         1         1  TIP3  OH2           4.5232934185       -1.3935154391       -2.2358211044  CLST           1          1.0000000000
         2         1  TIP3  H1            4.7723465886       -1.6252778552       -1.3082281195  CLST           1          1.0000000000
         3         1  TIP3  H2            5.2952387124       -1.8483038473       -2.6444811988  CLST           1          1.0000000000
         4         2  TIP3  OH2          10.7082538809        7.4226861500      -11.7888819863  CLST           2          1.0000000000
         5         2  TIP3  H1           10.9709092868        7.3192022082      -10.8564383153  CLST           2          1.0000000000
         6         2  TIP3  H2            9.7206218374        7.3175537123      -11.7541640034  CLST           2          1.0000000000
         7         3  TIP3  OH2           8.8571934096        5.3928436027       -4.1819867054  CLST           3          1.0000000000
         8         3  TIP3  H1            9.2014547510        5.5450711343       -3.2352254541  CLST           3          1.0000000000
         9         3  TIP3  H2            8.7619497736        6.3400617903       -4.4506568656  CLST           3          1.0000000000
        10         4  TIP3  OH2          -2.8552078823        6.6644426874       10.0726943451  CLST           4          1.0000000000
        11         4  TIP3  H1           -3.5732908180        7.0210636931        9.4703429456  CLST           4          1.0000000000
        12         4  TIP3  H2           -3.0309235343        7.3056821114       10.7738058442  CLST           4          1.0000000000
        13         5  TIP3  OH2           9.2091636118        6.2422071415       10.5771688200  CLST           5          1.0000000000
        14         5  TIP3  H1            8.7803865912        5.4844343091       11.0665600128  CLST           5          1.0000000000
        15         5  TIP3  H2            8.9507209631        5.9785932803        9.6663738134  CLST           5          1.0000000000
        16         6  TIP3  OH2          10.6002670428       -5.8999642403      -11.6205657888  CLST           6          1.0000000000
        17         6  TIP3  H1           11.1537771826       -5.3623900370      -10.9552692580  CLST           6          1.0000000000
        18         6  TIP3  H2           10.5865830404       -5.0860041257      -12.2505932167  CLST           6          1.0000000000
        19         7  TIP3  OH2         -12.3727088638        8.3820473976        5.7288421643  CLST           7          1.0000000000
        20         7  TIP3  H1          -12.6607132596        9.2899658557        6.0420448806  CLST           7          1.0000000000
        21         7  TIP3  H2          -11.5631099368        8.4094179795        6.2997749797  CLST           7          1.0000000000
        22         8  TIP3  OH2          -4.5285785995       -8.3883190966        0.6262905461  CLST           8          1.0000000000
        23         8  TIP3  H1           -5.1586908859       -7.7020000035        0.8272511332  CLST           8          1.0000000000
        24         8  TIP3  H2           -3.8260446143       -7.8442154677        0.2279901236  CLST           8          1.0000000000
        25         9  TIP3  OH2           2.8001615948      -14.1270306721       -4.0743093686  CLST           9          1.0000000000
        26         9  TIP3  H1            1.8521361219      -14.2368942848       -4.0574190436  CLST           9          1.0000000000
        27         9  TIP3  H2            2.7846511428      -13.3354273320       -3.5362760354  CLST           9          1.0000000000
        28        10  TIP3  OH2         -14.2065829691       -1.1437048494       -0.3862934593  CLST          10          1.0000000000
        29        10  TIP3  H1          -13.7088772588       -1.3764642783       -1.2564454096  CLST          10          1.0000000000
        30        10  TIP3  H2          -14.7496130276       -1.8426215877       -0.1615480747  CLST          10          1.0000000000
        31        11  TIP3  OH2           7.0335099079        6.7347435200       -1.7736366863  CLST          11          1.0000000000
        32        11  TIP3  H1            7.0768149687        5.7696044836       -1.9560317013  CLST          11          1.0000000000
        33        11  TIP3  H2            6.9282630633        7.0450795104       -2.7092735917  CLST          11          1.0000000000
        34        12  TIP3  OH2          -8.2585079601        2.6949762309        1.9265509875  CLST          12          1.0000000000
        35        12  TIP3  H1           -7.6409247653        2.8253510309        1.1580306104  CLST          12          1.0000000000
        36        12  TIP3  H2           -9.1183561326        2.6932437811        1.4511540648  CLST          12          1.0000000000
        37        13  TIP3  OH2           7.6465047168        2.4341600893        2.0652721346  CLST          13          1.0000000000
        38        13  TIP3  H1            7.3369059672        3.2446837331        1.5825854193  CLST          13          1.0000000000
        39        13  TIP3  H2            7.7776852274        2.7397628335        2.9727798117  CLST          13          1.0000000000
        40        14  TIP3  OH2          -0.2924003287        2.3377530097        7.9477704476  CLST          14          1.0000000000
        41        14  TIP3  H1            0.0290900972        3.1486997944        7.4554926727  CLST          14          1.0000000000
        42        14  TIP3  H2            0.3491508517        1.6674543079        7.6100184144  CLST          14          1.0000000000
        43        15  TIP3  OH2          -8.9504714194       -3.8340591075      -12.7857058995  CLST          15          1.0000000000
        44        15  TIP3  H1           -8.4190840171       -4.0067043031      -13.5480280042  CLST          15          1.0000000000
        45        15  TIP3  H2           -8.4665405902       -4.5097172966      -12.2268159937  CLST          15          1.0000000000
        46        16  TIP3  OH2          -3.8379733114      -12.7829645798       -6.1402771275  CLST          16          1.0000000000
        47        16  TIP3  H1           -4.2780460660      -12.8586171171       -5.2329528139  CLST          16          1.0000000000
        48        16  TIP3  H2           -2.8663025209      -12.7857292000       -5.8055158070  CLST          16          1.0000000000
        49        17  TIP3  OH2           4.9927237969      -13.3501578119       -8.6581239372  CLST          17          1.0000000000
        50        17  TIP3  H1            5.4824514657      -13.3789788163       -7.7940025950  CLST          17          1.0000000000
        51        17  TIP3  H2            4.1139866602      -13.4342572154       -8.2167612346  CLST          17          1.0000000000
        52        18  TIP3  OH2         -11.6794929144       -6.7040328269       -1.4577479035  CLST          18          1.0000000000
        53        18  TIP3  H1          -12.0025290306       -5.7851303786       -1.8739956667  CLST          18          1.0000000000
        54        18  TIP3  H2          -11.7985346880       -7.1621593807       -2.3761584011  CLST          18          1.0000000000
        55        19  TIP3  OH2          11.0814048888        0.0302693805        9.5763553363  CLST          19          1.0000000000
        56        19  TIP3  H1           10.4642577034       -0.6439356863        9.8930201923  CLST          19          1.0000000000
        57        19  TIP3  H2           11.0535349714       -0.1800265680        8.6197592645  CLST          19          1.0000000000
        58        20  TIP3  OH2         -13.2785318865        1.5773053466        2.9297798150  CLST          20          1.0000000000
        59        20  TIP3  H1          -13.1279057068        1.2937138414        1.9776625431  CLST          20          1.0000000000
        60        20  TIP3  H2          -14.2394670375        1.6874285412        2.9114394039  CLST          20          1.0000000000
        61        21  TIP3  OH2          -9.9485532788       12.4905948493       -5.3005917429  CLST          21          1.0000000000
        62        21  TIP3  H1           -9.9790995005       13.3480821122       -5.7093451831  CLST          21          1.0000000000
        63        21  TIP3  H2           -9.2105026208       12.2274263711       -5.8653193760  CLST          21          1.0000000000
        64        22  TIP3  OH2           2.7773002837       12.2644500996       -6.6239824079  CLST          22          1.0000000000
        65        22  TIP3  H1            3.0424571388       11.3991100212       -6.3052820643  CLST          22          1.0000000000
        66        22  TIP3  H2            3.2083899073       12.7830356179       -5.8730680531  CLST          22          1.0000000000
        67        23  TIP3  OH2           5.5280441324       -1.6842751637       11.5774169582  CLST          23          1.0000000000
        68        23  TIP3  H1            5.0351417639       -2.3116022628       11.0255806376  CLST          23          1.0000000000
        69        23  TIP3  H2            5.0406245417       -0.8618817821       11.3960728027  CLST          23          1.0000000000
        70        24  TIP3  OH2          -0.0645237400        1.1239327034        4.5074611091  CLST          24          1.0000000000
        71        24  TIP3  H1            0.6077453754        1.0280979132        5.1601186252  CLST          24          1.0000000000
        72        24  TIP3  H2           -0.7998332591        0.4809596260        4.8752790098  CLST          24          1.0000000000
        73        25  TIP3  OH2           3.4209135447        2.1278837837       -2.6774572871  CLST          25          1.0000000000
        74        25  TIP3  H1            3.8521555353        1.7578175320       -1.8455368437  CLST          25          1.0000000000
        75        25  TIP3  H2            3.7681207224        3.0412603131       -2.6951372860  CLST          25          1.0000000000
        76        26  TIP3  OH2          11.3881943667        5.4763062917       -6.5588650229  CLST          26          1.0000000000
        77        26  TIP3  H1           10.5229609583        5.2218852527       -6.9802609595  CLST          26          1.0000000000
        78        26  TIP3  H2           11.1449972600        6.3059923238       -6.0880592879  CLST          26          1.0000000000
        79        27  TIP3  OH2         -10.3825673022        7.2831103212       -5.4708589468  CLST          27          1.0000000000
        80        27  TIP3  H1          -10.4987823573        7.7313621910       -4.5806139002  CLST          27          1.0000000000
        81        27  TIP3  H2          -10.9942957320        7.9528992209       -5.8679718416  CLST          27          1.0000000000
        82        28  TIP3  OH2          -4.2338901555      -10.1653063954       -6.8618367529  CLST          28          1.0000000000
        83        28  TIP3  H1           -4.3202514874      -11.1573309982       -6.5917630922  CLST          28          1.0000000000
        84        28  TIP3  H2           -5.1822796697       -9.9432934239       -6.5649457448  CLST          28          1.0000000000
        85        29  TIP3  OH2         -10.7184741633        7.5648735539       -2.5595371604  CLST          29          1.0000000000
        86        29  TIP3  H1          -10.0987762269        8.1575466842       -1.9426667316  CLST          29          1.0000000000
        87        29  TIP3  H2          -11.5964768959        8.1533905217       -2.3284664623  CLST          29          1.0000000000
        88        30  TIP3  OH2           8.8525511094      -10.5105499746       -2.0226656750  CLST          30          1.0000000000
        89        30  TIP3  H1            9.2083335087      -11.1873208991       -1.4112283670  CLST          30          1.0000000000
        90        30  TIP3  H2            8.4393172719      -11.2195649836       -2.7607958691  CLST          30          1.0000000000
        91        31  TIP3  OH2          -9.7558958717       -1.2628583234      -13.1672473293  CLST          31          1.0000000000
        92        31  TIP3  H1           -9.5910509225       -2.2460267350      -13.0141811586  CLST          31          1.0000000000
        93        31  TIP3  H2           -9.5468038984       -0.8607068845      -12.2941916836  CLST          31          1.0000000000
        94        32  TIP3  OH2          -8.7338790636       -6.5210603968        6.9980863131  CLST          32          1.0000000000
        95        32  TIP3  H1           -9.6918638043       -6.3264338116        7.1380271083  CLST          32          1.0000000000
        96        32  TIP3  H2           -8.6703235095       -5.8166587004        6.2301654896  CLST          32          1.0000000000
        97        33  TIP3  OH2          11.6311793009       -9.0486606389        8.9200593607  CLST          33          1.0000000000
        98        33  TIP3  H1           11.7963713878       -9.9588169378        9.2579234031  CLST          33          1.0000000000
        99        33  TIP3  H2           11.2501425675       -8.6132570436        9.6708735777  CLST          33          1.0000000000
       100        34  TIP3  OH2           4.2595375769       -3.9821033885        3.0168223750  CLST          34          1.0000000000
       101        34  TIP3  H1            3.7100267287       -4.1244750805        2.2124303613  CLST          34          1.0000000000
       102        34  TIP3  H2            3.9485024803       -4.7156384039        3.5811447751  CLST          34          1.0000000000
       103        35  TIP3  OH2           6.1735001115       -0.7911259952        4.5674048751  CLST          35          1.0000000000
       104        35  TIP3  H1            5.3472709150       -1.0281422120        5.0855544468  CLST          35          1.0000000000
       105        35  TIP3  H2            6.6880567484       -0.2595175684        5.1923966635  CLST          35          1.0000000000
       106        36  TIP3  OH2          -1.4783841558        1.3252506716        2.2344942190  CLST          36          1.0000000000
       107        36  TIP3  H1           -2.0899282194        0.6460646539        2.5887725724  CLST          36          1.0000000000
       108        36  TIP3  H2           -0.9282035267        1.2952417622        3.0762956412  CLST          36          1.0000000000
       109        37  TIP3  OH2          -4.4629569475       -8.1869718036      -13.0292970917  CLST          37          1.0000000000
       110        37  TIP3  H1           -5.0966956706       -8.3172895568      -12.3106138996  CLST          37          1.0000000000
       111        37  TIP3  H2           -4.0366392353       -9.0184871615      -13.2422307022  CLST          37          1.0000000000
       112        38  TIP3  OH2          -3.1043934040        2.0769626443       -4.4499598824  CLST          38          1.0000000000
       113        38  TIP3  H1           -3.0147477279        2.9503056050       -4.9124683217  CLST          38          1.0000000000
       114        38  TIP3  H2           -3.3619991923        1.5377759648       -5.2092625357  CLST          38          1.0000000000
       115        39  TIP3  OH2           1.7082229120      -10.8671555033        2.1247345965  CLST          39          1.0000000000
       116        39  TIP3  H1            1.5148053906      -11.5108150119        2.8410424321  CLST          39          1.0000000000
       117        39  TIP3  H2            0.7797811922      -10.6723973424        1.8485218741  CLST          39          1.0000000000
       118        40  TIP3  OH2          -6.9949052404       12.4636145856        8.1211589793  CLST          40          1.0000000000
       119        40  TIP3  H1           -7.8827743388       12.7694700696        7.7831649807  CLST          40          1.0000000000
       120        40  TIP3  H2           -6.4074887256       12.6540312158        7.3386219496  CLST          40          1.0000000000
       121        41  TIP3  OH2           9.7273911429       -2.3580610709      -11.0413615564  CLST          41          1.0000000000
       122        41  TIP3  H1            8.9900682651       -3.0196937187      -10.8560379336  CLST          41          1.0000000000
       123        41  TIP3  H2            9.3297534264       -1.6364996143      -10.5344751397  CLST          41          1.0000000000
       124        42  TIP3  OH2           9.7880268708       10.2774922586      -10.6985032419  CLST          42          1.0000000000
       125        42  TIP3  H1           10.6192924243       10.1093918351      -10.1891358191  CLST          42          1.0000000000
       126        42  TIP3  H2           10.2412692153       10.1789126430      -11.6138634678  CLST          42          1.0000000000
       127        43  TIP3  OH2          11.8666838402       12.7245164459        7.8009970553  CLST          43          1.0000000000
       128        43  TIP3  H1           12.5904038764       13.2904301163        7.7052759048  CLST          43          1.0000000000
       129        43  TIP3  H2           12.3033792076       11.8829937122        8.1946339985  CLST          43          1.0000000000
       130        44  TIP3  OH2           7.7453290416        0.9885085079        5.9397104785  CLST          44          1.0000000000
       131        44  TIP3  H1            8.0375213810        1.4003491298        6.8124553752  CLST          44          1.0000000000
       132        44  TIP3  H2            7.5765545909        1.8636452518        5.5023759484  CLST          44          1.0000000000
       133        45  TIP3  OH2           7.8860811873        9.4101361942        7.3855722479  CLST          45          1.0000000000
       134        45  TIP3  H1            7.3733178463        8.5885872577        7.5500179519  CLST          45          1.0000000000
       135        45  TIP3  H2            8.7042347155        9.3886238942        7.9495590316  CLST          45          1.0000000000
       136        46  TIP3  OH2          -5.6337863019       -3.2797072085      -13.0377086334  CLST          46          1.0000000000
       137        46  TIP3  H1           -5.2790717618       -4.2684132319      -13.1723691862  CLST          46          1.0000000000
       138        46  TIP3  H2           -4.7613875830       -3.0808271168      -12.6141126157  CLST          46          1.0000000000
       139        47  TIP3  OH2           1.4046052633       -6.6158666842      -11.0291240812  CLST          47          1.0000000000
       140        47  TIP3  H1            1.6284066330       -5.6673694423      -10.7857558893  CLST          47          1.0000000000
       141        47  TIP3  H2            1.7562040729       -6.5966437988      -11.9551939260  CLST          47          1.0000000000
       142        48  TIP3  OH2           5.1262473178        5.6136376330        1.1675626292  CLST          48          1.0000000000
       143        48  TIP3  H1            6.0155779976        5.2671293905        0.8017718276  CLST          48          1.0000000000
       144        48  TIP3  H2            5.4692826296        6.5467185306        1.2675446711  CLST          48          1.0000000000
       145        49  TIP3  OH2          -3.3231940844      -10.6988337004      -13.7575346027  CLST          49          1.0000000000
       146        49  TIP3  H1           -2.5032872951      -11.0659575866      -13.4685387379  CLST          49          1.0000000000
       147        49  TIP3  H2           -3.9848728652      -11.1146541410      -13.1810961728  CLST          49          1.0000000000
       148        50  TIP3  OH2           2.8669330378        3.8831905781        5.8142726714  CLST          50          1.0000000000
       149        50  TIP3  H1            2.1075618819        4.2665293649        6.3308069805  CLST          50          1.0000000000
       150        50  TIP3  H2            2.3611920652        3.6039621993        4.9876739373  CLST          50          1.0000000000
       151        51  TIP3  OH2          -6.4462712216      -10.1489245379       -4.6817670004  CLST          51          1.0000000000
       152        51  TIP3  H1           -6.4997026675       -9.9432430569       -3.7239706730  CLST          51          1.0000000000
       153        51  TIP3  H2           -6.3784838896      -11.1147071154       -4.6228140457  CLST          51          1.0000000000
       154        52  TIP3  OH2           9.1829993923       -5.6335524772       -0.0484544308  CLST          52          1.0000000000
       155        52  TIP3  H1            9.5279463807       -5.3538158853       -0.9180106645  CLST          52          1.0000000000
       156        52  TIP3  H2            8.9983420503       -4.7279935794        0.2620812518  CLST          52          1.0000000000
       157        53  TIP3  OH2          -9.8045864796       10.0120933670      -12.4833523185  CLST          53          1.0000000000
       158        53  TIP3  H1          -10.0562934180       10.2390284209      -13.3726563928  CLST          53          1.0000000000
       159        53  TIP3  H2           -8.8867040589        9.5521579431      -12.4200544001  CLST          53          1.0000000000
       160        54  TIP3  OH2           0.6007315076       -2.9890896293       -9.5787066434  CLST          54          1.0000000000
       161        54  TIP3  H1            1.5144624489       -3.0892229433       -9.9122699512  CLST          54          1.0000000000
       162        54  TIP3  H2            0.2350442280       -2.2886519407      -10.2402844748  CLST          54          1.0000000000
       163        55  TIP3  OH2           2.9863435788       -4.0701418528      -14.6111559721  CLST          55          1.0000000000
       164        55  TIP3  H1            3.2860785595       -4.9661812401      -14.3632714916  CLST          55          1.0000000000
       165        55  TIP3  H2            2.8929380587       -3.8332951149      -15.4392773690  CLST          55          1.0000000000
       166        56  TIP3  OH2         -10.0666052323       10.9570409457        5.6715973033  CLST          56          1.0000000000
       167        56  TIP3  H1          -10.1045706438       10.1656838751        6.2620601444  CLST          56          1.0000000000
       168        56  TIP3  H2          -10.2638951134       10.5725881461        4.8051127551  CLST          56          1.0000000000
       169        57  TIP3  OH2           1.7755577549      -13.4365416919        0.4264586576  CLST          57          1.0000000000
       170        57  TIP3  H1            2.0967319870      -12.5657838253        0.7694590069  CLST          57          1.0000000000
       171        57  TIP3  H2            2.4404859888      -13.4010309422       -0.3213959238  CLST          57          1.0000000000
       172        58  TIP3  OH2         -13.1679511311       10.7635558736        6.9775696591  CLST          58          1.0000000000
       173        58  TIP3  H1          -12.5745632543       11.4452957536        6.6618665954  CLST          58          1.0000000000
       174        58  TIP3  H2          -12.8849890962       10.6685953508        7.9461459274  CLST          58          1.0000000000
       175        59  TIP3  OH2         -11.6141622748       -2.7695868102        5.3960908968  CLST          59          1.0000000000
       176        59  TIP3  H1          -12.0732949462       -2.5548605972        6.2651718363  CLST          59          1.0000000000
       177        59  TIP3  H2          -11.6218137134       -1.7758005071        5.1544138795  CLST          59          1.0000000000
       178        60  TIP3  OH2           1.3907715674        9.5595330248        8.5830280541  CLST          60          1.0000000000
       179        60  TIP3  H1            0.5931352144        9.0162983650        8.2007703162  CLST          60          1.0000000000
       180        60  TIP3  H2            1.8797297825        8.7022920317        8.8090926782  CLST          60          1.0000000000
       181        61  TIP3  OH2           2.9116759979       -0.7073108839       -5.5114533768  CLST          61          1.0000000000
       182        61  TIP3  H1            3.3059445658       -1.5985744266       -5.4726010897  CLST          61          1.0000000000
       183        61  TIP3  H2            2.2550671060       -0.8022657781       -6.2582763978  CLST          61          1.0000000000
       184        62  TIP3  OH2           7.8373263973        8.5788739357       12.4465419489  CLST          62          1.0000000000
       185        62  TIP3  H1            7.8340146820        7.7245855088       12.0203879919  CLST          62          1.0000000000
       186        62  TIP3  H2            8.0392329332        9.2638251854       11.7722586516  CLST          62          1.0000000000
       187        63  TIP3  OH2           4.6140557729       -7.1040831189      -10.2256528558  CLST          63          1.0000000000
       188        63  TIP3  H1            3.6906628553       -7.0731840311      -10.5935245154  CLST          63          1.0000000000
       189        63  TIP3  H2            5.1433018419       -7.5677009666      -10.9154189737  CLST          63          1.0000000000
       190        64  TIP3  OH2          -2.4102796130       11.8251038560        5.3978128583  CLST          64          1.0000000000
       191        64  TIP3  H1           -2.4921896648       10.8393686461        5.5513574515  CLST          64          1.0000000000
       192        64  TIP3  H2           -1.6597112910       11.8811194542        6.0907250498  CLST          64          1.0000000000
       193        65  TIP3  OH2          10.9333212850       -4.3484107487       -5.4262538648  CLST          65          1.0000000000
       194        65  TIP3  H1           11.2498798154       -4.0731023377       -6.3326881594  CLST          65          1.0000000000
       195        65  TIP3  H2           10.6807023391       -3.4237859544       -5.1901140792  CLST          65          1.0000000000
       196        66  TIP3  OH2           6.1568262041       -9.8465898913        9.3409036595  CLST          66          1.0000000000
       197        66  TIP3  H1            5.4143174535       -9.4348086853        8.8032778353  CLST          66          1.0000000000
       198        66  TIP3  H2            6.7570709563       -9.0751806786        9.2396502229  CLST          66          1.0000000000
       199        67  TIP3  OH2         -11.6164942524       -7.6316023168       -3.9303058499  CLST          67          1.0000000000
       200        67  TIP3  H1          -10.8282613809       -7.1703534171       -4.3073135147  CLST          67          1.0000000000
       201        67  TIP3  H2          -11.7491200432       -8.3356889732       -4.5016097112  CLST          67          1.0000000000
       202        68  TIP3  OH2          -0.4868097285       -5.4941404648        5.4296285371  CLST          68          1.0000000000
       203        68  TIP3  H1            0.5350507833       -5.4855535308        5.5691917057  CLST          68          1.0000000000
       204        68  TIP3  H2           -0.7215402791       -5.4306035991        6.4063529149  CLST          68          1.0000000000
       205        69  TIP3  OH2           7.9260600728       11.7514632093       -8.7712276496  CLST          69          1.0000000000
       206        69  TIP3  H1            8.4075031265       11.6463304141       -9.6253678662  CLST          69          1.0000000000
       207        69  TIP3  H2            8.8025278850       11.7442831843       -8.2676555941  CLST          69          1.0000000000
       208        70  TIP3  OH2          -1.0765436030      -12.4348417456       -0.4734852765  CLST          70          1.0000000000
       209        70  TIP3  H1           -0.0957091848      -12.4266741738       -0.5111548457  CLST          70          1.0000000000
       210        70  TIP3  H2           -1.1764325275      -12.7442400129        0.4598778208  CLST          70          1.0000000000
       211        71  TIP3  OH2         -10.1733721506       -7.4154753691        2.0484049875  CLST          71          1.0000000000
       212        71  TIP3  H1          -10.3544646114       -6.4799490780        2.1405707080  CLST          71          1.0000000000
       213        71  TIP3  H2          -10.8788146291       -7.7505064802        1.4508749089  CLST          71          1.0000000000
       214        72  TIP3  OH2           0.0478784215        1.9901420618       -1.5419376289  CLST          72          1.0000000000
       215        72  TIP3  H1           -0.3717331242        1.0916120907       -1.6203419573  CLST          72          1.0000000000
       216        72  TIP3  H2            0.7195666931        1.7768183889       -2.2144099702  CLST          72          1.0000000000
       217        73  TIP3  OH2          -9.6543351640       13.0089172281        7.4766758703  CLST          73          1.0000000000
       218        73  TIP3  H1           -9.7642507520       12.2287419689        6.8203953594  CLST          73          1.0000000000
       219        73  TIP3  H2          -10.2678226396       13.6047412631        6.8590731985  CLST          73          1.0000000000
       220        74  TIP3  OH2           6.5949998052       -2.7721275434       -3.7798910825  CLST          74          1.0000000000
       221        74  TIP3  H1            6.5807327056       -3.6879959654       -3.3754399526  CLST          74          1.0000000000
       222        74  TIP3  H2            7.4824584125       -2.4687827245       -3.4523753576  CLST          74          1.0000000000
       223        75  TIP3  OH2           2.8960517513      -13.3572819764       -6.6579601814  CLST          75          1.0000000000
       224        75  TIP3  H1            3.0263355785      -12.5091844842       -6.1145587893  CLST          75          1.0000000000
       225        75  TIP3  H2            2.9598032668      -13.9350110369       -5.8239589172  CLST          75          1.0000000000
       226        76  TIP3  OH2           3.7596778482       -9.6492296714        1.2908169617  CLST          76          1.0000000000
       227        76  TIP3  H1            3.9359330795       -8.7038165877        1.5553666134  CLST          76          1.0000000000
       228        76  TIP3  H2            2.8737805117       -9.9546992003        1.6330322837  CLST          76          1.0000000000
       229        77  TIP3  OH2          10.3302131140       -8.2573040716       -2.7680197289  CLST          77          1.0000000000
       230        77  TIP3  H1            9.7607271951       -9.0191958698       -2.4881495668  CLST          77          1.0000000000
       231        77  TIP3  H2            9.9832541374       -8.1089949928       -3.6779426233  CLST          77          1.0000000000
       232        78  TIP3  OH2          10.7140804034       11.6191935560       -7.8713604000  CLST          78          1.0000000000
       233        78  TIP3  H1           11.4054828385       10.9613037726       -8.1626154779  CLST          78          1.0000000000
       234        78  TIP3  H2           11.3370183284       12.2079796767       -7.4829513630  CLST          78          1.0000000000
       235        79  TIP3  OH2          12.8460967162        0.6261853401        1.1751501407  CLST          79          1.0000000000
       236        79  TIP3  H1           13.4403346129        0.4226862244        1.7373327840  CLST          79          1.0000000000
       237        79  TIP3  H2           12.2003661669        1.3214697031        1.4494532791  CLST          79          1.0000000000
       238        80  TIP3  OH2          -7.4389187287       -0.0301179335        6.5720225993  CLST          80          1.0000000000
       239        80  TIP3  H1           -7.4833022047        0.4780219237        5.7014299133  CLST          80          1.0000000000
       240        80  TIP3  H2           -6.5684205489       -0.4527038519        6.5537479743  CLST          80          1.0000000000
       241        81  TIP3  OH2          -7.4873718373      -10.9076177260        2.2478957408  CLST          81          1.0000000000
       242        81  TIP3  H1           -6.6915393422      -10.9494045873        1.6205225423  CLST          81          1.0000000000
       243        81  TIP3  H2           -7.0107694432      -11.1403345426        3.0592312947  CLST          81          1.0000000000
       244        82  TIP3  OH2          -1.6335260845       -9.8288330655       -6.5691659815  CLST          82          1.0000000000
       245        82  TIP3  H1           -2.6241506876       -9.8296215937       -6.5484070115  CLST          82          1.0000000000
       246        82  TIP3  H2           -1.4760689855      -10.5429175018       -5.9461018401  CLST          82          1.0000000000
       247        83  TIP3  OH2          12.3573458117       -8.6599869875        1.5721997919  CLST          83          1.0000000000
       248        83  TIP3  H1           12.7478512002       -8.1341271046        2.2923986079  CLST          83          1.0000000000
       249        83  TIP3  H2           11.4181344319       -8.3064844549        1.5836299227  CLST          83          1.0000000000
       250        84  TIP3  OH2          -3.6329050635       10.9279385239       -2.1337797562  CLST          84          1.0000000000
       251        84  TIP3  H1           -4.5774761973       10.8435251100       -2.5265739323  CLST          84          1.0000000000
       252        84  TIP3  H2           -3.5490761468       11.7860944812       -2.0037123089  CLST          84          1.0000000000
       253        85  TIP3  OH2           5.8896325254       -2.1959532608        0.0523250892  CLST          85          1.0000000000
       254        85  TIP3  H1            5.7320137880       -1.6441077001        0.8348334858  CLST          85          1.0000000000
       255        85  TIP3  H2            6.7599184429       -2.6097440718        0.1986374280  CLST          85          1.0000000000
       256        86  TIP3  OH2           6.6151222912       -8.4479342584        5.9202925350  CLST          86          1.0000000000
       257        86  TIP3  H1            5.9006393232       -8.7942527294        6.5461747782  CLST          86          1.0000000000
       258        86  TIP3  H2            6.1842627687       -7.5587612065        5.7495082243  CLST          86          1.0000000000
       259        87  TIP3  OH2          -1.2919934532       -3.5876540519       10.7377442633  CLST          87          1.0000000000
       260        87  TIP3  H1           -0.6540351308       -4.0235570829       11.3755305602  CLST          87          1.0000000000
       261        87  TIP3  H2           -2.1317631145       -4.0555676671       10.9080196503  CLST          87          1.0000000000
       262        88  TIP3  OH2          -0.7362462002        4.5337525580       -7.9272236439  CLST          88          1.0000000000
       263        88  TIP3  H1           -1.0370846782        3.5999099700       -7.6693156477  CLST          88          1.0000000000
       264        88  TIP3  H2           -1.6034315810        4.9817328867       -8.1626958214  CLST          88          1.0000000000
       265        89  TIP3  OH2           3.4215928314        0.7962507972      -11.7630760804  CLST          89          1.0000000000
       266        89  TIP3  H1            3.4997132142        1.1828018229      -12.5136049823  CLST          89          1.0000000000
       267        89  TIP3  H2            3.3112276302        0.0325588766      -12.0749149215  CLST          89          1.0000000000
       268        90  TIP3  OH2           5.6109063714       11.2190305582       -5.4501423301  CLST          90          1.0000000000
       269        90  TIP3  H1            5.1819607165       11.9275636541       -4.8859397000  CLST          90          1.0000000000
       270        90  TIP3  H2            5.5554525254       11.7618778237       -6.3089049626  CLST          90          1.0000000000
       271        91  TIP3  OH2           5.8779398484       -7.9817857010      -12.3450406406  CLST          91          1.0000000000
       272        91  TIP3  H1            6.2222421461       -8.9327649979      -12.2159943433  CLST          91          1.0000000000
       273        91  TIP3  H2            6.7437933049       -7.5005064770      -12.2779736820  CLST          91          1.0000000000
       274        92  TIP3  OH2           9.9015484437       11.5252996465        2.4931910455  CLST          92          1.0000000000
       275        92  TIP3  H1           10.0911586841       11.8648375900        3.4277673242  CLST          92          1.0000000000
       276        92  TIP3  H2            9.5475066501       12.3534613883        2.0788605155  CLST          92          1.0000000000
       277        93  TIP3  OH2          -8.7986041146        7.1840243057        2.6675359500  CLST          93          1.0000000000
       278        93  TIP3  H1           -8.6144421855        8.1361716807        2.5122423355  CLST          93          1.0000000000
       279        93  TIP3  H2           -7.9007570320        6.8590639593        2.8610684698  CLST          93          1.0000000000
       280        94  TIP3  OH2         -14.1373068636        6.5906958070        6.4896266834  CLST          94          1.0000000000
       281        94  TIP3  H1          -13.5245053108        7.3697302860        6.3749561775  CLST          94          1.0000000000
       282        94  TIP3  H2          -14.3815136208        6.4652290389        5.5707076850  CLST          94          1.0000000000
       283        95  TIP3  OH2           9.8258931900        5.7218474732       -1.7873042955  CLST          95          1.0000000000
       284        95  TIP3  H1            9.8929746421        5.9659921646       -0.8240454023  CLST          95          1.0000000000
       285        95  TIP3  H2           10.6829712868        5.1987824336       -1.8305907259  CLST          95          1.0000000000
       286        96  TIP3  OH2           9.6139882001      -11.0363929320       11.2640476649  CLST          96          1.0000000000
       287        96  TIP3  H1           10.3636857096      -11.2452167227       10.6437461319  CLST          96          1.0000000000
       288        96  TIP3  H2            9.3669802627      -11.9250915970       11.5177980114  CLST          96          1.0000000000
       289        97  TIP3  OH2          -7.7126530765        6.8589141601        8.5448338824  CLST          97          1.0000000000
       290        97  TIP3  H1           -7.4593602788        5.9129345053        8.9111405632  CLST          97          1.0000000000
       291        97  TIP3  H2           -8.6851219322        6.5647534169        8.4392764041  CLST          97          1.0000000000
       292        98  TIP3  OH2           6.0669845108        0.4962481767       -3.4820216265  CLST          98          1.0000000000
       293        98  TIP3  H1            6.7024999282        0.1956733441       -2.7957687824  CLST          98          1.0000000000
       294        98  TIP3  H2            5.2680354764        0.0949493135       -3.0355841618  CLST          98          1.0000000000
       295        99  TIP3  OH2          -6.7551491203      -11.4800516514        4.8931248394  CLST          99          1.0000000000
       296        99  TIP3  H1           -7.1644405690      -11.3239904758        5.7670853477  CLST          99          1.0000000000
       297        99  TIP3  H2           -5.8791158359      -11.8658379772        5.0949385043  CLST          99          1.0000000000
       298       100  TIP3  OH2           2.2206370105        0.4189686283       -9.1760158866  CLST         100          1.0000000000
       299       100  TIP3  H1            2.3538780138        0.2031414253      -10.1435512353  CLST         100          1.0000000000
       300       100  TIP3  H2            2.6513373430        1.2921104365       -9.2983447800  CLST         100          1.0000000000
       301       101  TIP3  OH2          12.8201840755       -6.8123762688        3.9573800499  CLST         101          1.0000000000
       302       101  TIP3  H1           12.5666699492       -7.4289676282        4.7421667184  CLST         101          1.0000000000
       303       101  TIP3  H2           13.6609925901       -6.6086884687        4.3408598707  CLST         101          1.0000000000
       304       102  TIP3  OH2         -12.1163024518       10.3651248722        1.4328631130  CLST         102          1.0000000000
       305       102  TIP3  H1          -12.7792261428        9.8995055109        2.0522539979  CLST         102          1.0000000000
       306       102  TIP3  H2          -12.5894108018        9.8317386994        0.5674449756  CLST         102          1.0000000000
       307       103  TIP3  OH2          -0.5890395763       -9.3608729233        7.8393548718  CLST         103          1.0000000000
       308       103  TIP3  H1            0.0696717209       -9.4549576340        8.5929577628  CLST         103          1.0000000000
       309       103  TIP3  H2           -1.1776583415      -10.1299737362        8.0668938310  CLST         103          1.0000000000
       310       104  TIP3  OH2          -4.3216550147      -12.0989353896        9.9747986510  CLST         104          1.0000000000
       311       104  TIP3  H1           -4.9934803846      -11.6205518219       10.5436246608  CLST         104          1.0000000000
       312       104  TIP3  H2           -4.8980659196      -12.8419949382        9.7041386539  CLST         104          1.0000000000
       313       105  TIP3  OH2          -5.2427444636       10.5498125704      -11.6415429094  CLST         105          1.0000000000
       314       105  TIP3  H1           -4.7485833378       10.9971056025      -12.3537115428  CLST         105          1.0000000000
       315       105  TIP3  H2           -5.9141948157        9.9916130282      -12.0589768454  CLST         105          1.0000000000
       316       106  TIP3  OH2           7.4379534209       -7.9912912567       -1.3812450168  CLST         106          1.0000000000
       317       106  TIP3  H1            8.2352973383       -7.5093699203       -1.4957290946  CLST         106          1.0000000000
       318       106  TIP3  H2            7.6825532887       -8.9473763467       -1.4199045597  CLST         106          1.0000000000
       319       107  TIP3  OH2          -8.5145903678       -4.5910362791        5.1706325533  CLST         107          1.0000000000
       320       107  TIP3  H1           -9.0125845255       -4.0396945502        4.5565538963  CLST         107          1.0000000000
       321       107  TIP3  H2           -7.5833299669       -4.3314809248        4.9627652027  CLST         107          1.0000000000
       322       108  TIP3  OH2         -10.4881917434        2.0886432180        9.6435224116  CLST         108          1.0000000000
       323       108  TIP3  H1           -9.5516689903        1.8090695742        9.5292824744  CLST         108          1.0000000000
       324       108  TIP3  H2          -10.8795385253        1.2058719920        9.9354064949  CLST         108          1.0000000000
       325       109  TIP3  OH2           2.4758520481        7.1191998688        8.7392773882  CLST         109          1.0000000000
       326       109  TIP3  H1            1.7937118355        6.6867431101        9.3283249941  CLST         109          1.0000000000
       327       109  TIP3  H2            3.2160671109        6.4912242959        8.8498388949  CLST         109          1.0000000000
       328       110  TIP3  OH2           1.5863675986       12.3894980566      -11.0858387690  CLST         110          1.0000000000
       329       110  TIP3  H1            2.2101525123       13.0354643062      -11.1202511409  CLST         110          1.0000000000
       330       110  TIP3  H2            1.2020830275       12.2743200937      -10.1689776367  CLST         110          1.0000000000
       331       111  TIP3  OH2          11.7926970024      -11.6528709616        9.5256789740  CLST         111          1.0000000000
       332       111  TIP3  H1           12.5740074096      -12.1449208405        9.7872855287  CLST         111          1.0000000000
       333       111  TIP3  H2           11.4036428489      -12.3933765802        9.0059184031  CLST         111          1.0000000000
       334       112  TIP3  OH2           6.3133358492       -0.0103894213        1.8595393445  CLST         112          1.0000000000
       335       112  TIP3  H1            6.8989192657        0.7807574936        1.9233967772  CLST         112          1.0000000000
       336       112  TIP3  H2            6.1190582943       -0.1792620682        2.8075894166  CLST         112          1.0000000000
       337       113  TIP3  OH2         -12.9098370423        1.0001320062       -0.0585744793  CLST         113          1.0000000000
       338       113  TIP3  H1          -13.4320040322        0.1457404828       -0.0475476247  CLST         113          1.0000000000
       339       113  TIP3  H2          -12.3769881289        0.9494723586       -0.8644902135  CLST         113          1.0000000000
       340       114  TIP3  OH2         -13.8966437307        3.4976363133       -0.2874645710  CLST         114          1.0000000000
       341       114  TIP3  H1          -13.5813185102        2.5778507269       -0.0662307210  CLST         114          1.0000000000
       342       114  TIP3  H2          -13.2988312075        3.5771980943       -1.0756951533  CLST         114          1.0000000000
       343       115  TIP3  OH2          -8.7861790730        0.2353584792      -10.9090588380  CLST         115          1.0000000000
       344       115  TIP3  H1           -7.9912970658        0.7247099715      -11.3000745325  CLST         115          1.0000000000
       345       115  TIP3  H2           -9.3203987150        1.0775921002      -11.0041351764  CLST         115          1.0000000000
       346       116  TIP3  OH2           6.9376633009       -5.6909838710        2.1586146286  CLST         116          1.0000000000
       347       116  TIP3  H1            7.7702759275       -5.8169692179        1.6614036926  CLST         116          1.0000000000
       348       116  TIP3  H2            6.9134898470       -4.7298340653        2.3861794991  CLST         116          1.0000000000
       349       117  TIP3  OH2          -0.8550467344        0.0611843965       12.3428610881  CLST         117          1.0000000000
       350       117  TIP3  H1           -0.5805210225       -0.7110464927       12.8543052619  CLST         117          1.0000000000
       351       117  TIP3  H2           -0.3922881681        0.7286786386       12.8846947335  CLST         117          1.0000000000
       352       118  TIP3  OH2           0.1067815855       -9.5568948696        4.9513063154  CLST         118          1.0000000000
       353       118  TIP3  H1           -0.0565357474       -9.4668849532        5.9131242091  CLST         118          1.0000000000
       354       118  TIP3  H2           -0.2850356184       -8.7762671056        4.4911440101  CLST         118          1.0000000000
       355       119  TIP3  OH2          -9.2261878805      -10.3805031104       -8.8095375070  CLST         119          1.0000000000
       356       119  TIP3  H1           -9.5152836193      -10.8162901664       -9.6710378425  CLST         119          1.0000000000
       357       119  TIP3  H2           -8.6788914994       -9.6568965188       -9.1780380544  CLST         119          1.0000000000
       358       120  TIP3  OH2           9.6422056748       -7.9336493104        1.2959830127  CLST         120          1.0000000000
       359       120  TIP3  H1            8.9538581279       -8.4735086682        0.8547402322  CLST         120          1.0000000000
       360       120  TIP3  H2            9.5937801681       -7.1677251843        0.6815950256  CLST         120          1.0000000000
       361       121  TIP3  OH2          -5.6797735824       -0.3587814325       -8.1642574626  CLST         121          1.0000000000
       362       121  TIP3  H1           -5.6231556570       -0.1390808504       -9.1239816484  CLST         121          1.0000000000
       363       121  TIP3  H2           -4.9237754031       -1.0076618421       -8.1498999248  CLST         121          1.0000000000
       364       122  TIP3  OH2          10.3880856957       12.0805273455        5.2047879840  CLST         122          1.0000000000
       365       122  TIP3  H1            9.5255642350       12.5219820115        5.4402864676  CLST         122          1.0000000000
       366       122  TIP3  H2           10.8248172014       12.2816736856        6.0519005154  CLST         122          1.0000000000
       367       123  TIP3  OH2          -7.4354840383       -5.6147868804      -11.2590348802  CLST         123          1.0000000000
       368       123  TIP3  H1           -6.6753592612       -6.1347095452      -11.5720359389  CLST         123          1.0000000000
       369       123  TIP3  H2           -7.2686156645       -5.4988502490      -10.3225635677  CLST         123          1.0000000000
       370       124  TIP3  OH2          -6.0288533681       -8.6909436991      -10.8022715357  CLST         124          1.0000000000
       371       124  TIP3  H1           -5.2942351079       -8.9799042729      -10.1815793169  CLST         124          1.0000000000
       372       124  TIP3  H2           -6.6736548404       -8.3881326992      -10.1027237231  CLST         124          1.0000000000
       373       125  TIP3  OH2         -13.4240865874        4.1422013910        8.1023820879  CLST         125          1.0000000000
       374       125  TIP3  H1          -13.4303208895        3.3161525962        7.6266175422  CLST         125          1.0000000000
       375       125  TIP3  H2          -13.7742627928        4.8576544734        7.6199108743  CLST         125          1.0000000000
       376       126  TIP3  OH2          -7.0741145153      -10.7190502980      -12.3024157320  CLST         126          1.0000000000
       377       126  TIP3  H1           -6.3025085497      -11.2979067551      -12.0633663473  CLST         126          1.0000000000
       378       126  TIP3  H2           -6.7226184786       -9.9259358650      -11.8091226205  CLST         126          1.0000000000
       379       127  TIP3  OH2          -7.4863641346      -11.6328014727       -7.1795416978  CLST         127          1.0000000000
       380       127  TIP3  H1           -7.9405791079      -12.4644666093       -7.0808776039  CLST         127          1.0000000000
       381       127  TIP3  H2           -8.1168528012      -11.1810358160       -7.7823964329  CLST         127          1.0000000000
       382       128  TIP3  OH2           9.9324971290        0.8249204095       -2.5321202707  CLST         128          1.0000000000
       383       128  TIP3  H1            9.0075081930        0.5133449939       -2.2863191170  CLST         128          1.0000000000
       384       128  TIP3  H2            9.6670713874        1.4976260368       -3.2115840795  CLST         128          1.0000000000
       385       129  TIP3  OH2          -7.8461122249        9.6055123691        1.0923666534  CLST         129          1.0000000000
       386       129  TIP3  H1           -6.9584929181       10.0826277010        1.2322077542  CLST         129          1.0000000000
       387       129  TIP3  H2           -7.3417610005        8.8034440143        0.7049352308  CLST         129          1.0000000000
       388       130  TIP3  OH2          -4.0123183062        4.0418250839       10.0108104357  CLST         130          1.0000000000
       389       130  TIP3  H1           -3.4614647266        4.8737619510       10.0270969190  CLST         130          1.0000000000
       390       130  TIP3  H2           -3.6658886204        3.5466175678       10.7981028521  CLST         130          1.0000000000
       391       131  TIP3  OH2           7.7592080593       -3.8198905437      -10.0244059396  CLST         131          1.0000000000
       392       131  TIP3  H1            7.7046137045       -3.1163389695       -9.3156701525  CLST         131          1.0000000000
       393       131  TIP3  H2            6.7408106353       -3.9760800365      -10.0710971741  CLST         131          1.0000000000
       394       132  TIP3  OH2         -11.4899972290       11.2209126865       12.2361226681  CLST         132          1.0000000000
       395       132  TIP3  H1          -11.1858294996       12.0483365479       11.7981756647  CLST         132          1.0000000000
       396       132  TIP3  H2          -11.7611967727       11.4484275724       13.0458508740  CLST         132          1.0000000000
       397       133  TIP3  OH2          10.2426450820        9.5188516847        8.6317996893  CLST         133          1.0000000000
       398       133  TIP3  H1           10.2952170396        9.1630016727        9.5523233716  CLST         133          1.0000000000
       399       133  TIP3  H2           11.1700879602        9.9166491567        8.6687806154  CLST         133          1.0000000000
       400       134  TIP3  OH2          -7.6956447079        5.8227662134       -5.9457779516  CLST         134          1.0000000000
       401       134  TIP3  H1           -8.4497701544        6.4468045400       -5.8793031632  CLST         134          1.0000000000
       402       134  TIP3  H2           -7.4500123254        5.6498166751       -5.0238906819  CLST         134          1.0000000000
       403       135  TIP3  OH2          10.8444072375      -11.1911667626      -13.0684406912  CLST         135          1.0000000000
       404       135  TIP3  H1           11.0498984096      -10.3119725844      -12.6106307734  CLST         135          1.0000000000
       405       135  TIP3  H2           11.2193977435      -11.2173015299      -13.8132506495  CLST         135          1.0000000000
       406       136  TIP3  OH2          -4.3047477804        1.8603839803       -7.1157684697  CLST         136          1.0000000000
       407       136  TIP3  H1           -4.8956182894        1.0631855570       -7.3561664953  CLST         136          1.0000000000
       408       136  TIP3  H2           -4.9961888988        2.2748294775       -6.5210963030  CLST         136          1.0000000000
       409       137  TIP3  OH2          12.7672336872       10.2631212908        9.0974146854  CLST         137          1.0000000000
       410       137  TIP3  H1           12.7960258208       10.0968573583       10.1419653572  CLST         137          1.0000000000
       411       137  TIP3  H2           13.6229812020        9.9026169340        8.9437765783  CLST         137          1.0000000000
       412       138  TIP3  OH2          -0.9219785887      -10.0607745431        1.5273326635  CLST         138          1.0000000000
       413       138  TIP3  H1           -1.0442512058       -9.7752968108        0.5789430129  CLST         138          1.0000000000
       414       138  TIP3  H2           -0.9867702307       -9.2495137970        2.0906807322  CLST         138          1.0000000000
       415       139  TIP3  OH2          -9.5596124899      -10.8010525583        4.5626377957  CLST         139          1.0000000000
       416       139  TIP3  H1          -10.1400714838      -10.6391026951        3.7743325045  CLST         139          1.0000000000
       417       139  TIP3  H2           -8.8372235031      -11.3218888353        4.1441279799  CLST         139          1.0000000000
       418       140  TIP3  OH2          -7.0595153780        3.4199811420       -0.4493886529  CLST         140          1.0000000000
       419       140  TIP3  H1           -6.2863687313        3.9932507465       -0.1715336518  CLST         140          1.0000000000
       420       140  TIP3  H2           -7.7972938911        4.0628510176       -0.5309877484  CLST         140          1.0000000000
       421       141  TIP3  OH2           2.2259199436       -4.3770434339       -3.5606728805  CLST         141          1.0000000000
       422       141  TIP3  H1            1.9166461090       -3.4748545522       -3.3001441279  CLST         141          1.0000000000
       423       141  TIP3  H2            2.8400962341       -3.9285012835       -4.2507782102  CLST         141          1.0000000000
       424       142  TIP3  OH2         -11.8428579581       -0.1225483999        4.7512871200  CLST         142          1.0000000000
       425       142  TIP3  H1          -11.8428604256        0.5106940584        5.5038739265  CLST         142          1.0000000000
       426       142  TIP3  H2          -12.1188727613        0.5040056561        4.0405146525  CLST         142          1.0000000000
       427       143  TIP3  OH2           9.2762863187       -5.7446328763       -8.2500310684  CLST         143          1.0000000000
       428       143  TIP3  H1            9.1883829973       -5.0678797738       -8.9547180012  CLST         143          1.0000000000
       429       143  TIP3  H2            9.7560620631       -6.4441369385       -8.7321343947  CLST         143          1.0000000000
       430       144  TIP3  OH2           3.3047301047       -2.8482825262        9.1101728803  CLST         144          1.0000000000
       431       144  TIP3  H1            2.5513026225       -2.4790044537        9.6271309856  CLST         144          1.0000000000
       432       144  TIP3  H2            3.3089250710       -2.1817853512        8.3492173144  CLST         144          1.0000000000
       433       145  TIP3  OH2         -10.1089015414       13.3989961886        3.1910026421  CLST         145          1.0000000000
       434       145  TIP3  H1          -10.6036054176       13.2117040816        2.3207649681  CLST         145          1.0000000000
       435       145  TIP3  H2           -9.7155846062       12.4922915510        3.2076440147  CLST         145          1.0000000000
       436       146  TIP3  OH2           9.1103394518        2.7073949241       -4.1728850075  CLST         146          1.0000000000
       437       146  TIP3  H1            8.9951162274        3.6969773364       -4.0655448098  CLST         146          1.0000000000
       438       146  TIP3  H2            8.3494969158        2.6003305072       -4.8332460952  CLST         146          1.0000000000
       439       147  TIP3  OH2         -11.0353220229       -0.3439101380       -4.1294854157  CLST         147          1.0000000000
       440       147  TIP3  H1          -10.1146797300       -0.7182522927       -4.3293070295  CLST         147          1.0000000000
       441       147  TIP3  H2          -11.3305055299       -0.6825111926       -5.0865079171  CLST         147          1.0000000000
       442       148  TIP3  OH2          -7.9561350615        1.3605886099        8.8717015791  CLST         148          1.0000000000
       443       148  TIP3  H1           -7.8814316183        1.1349701472        7.9159536191  CLST         148          1.0000000000
       444       148  TIP3  H2           -6.9543186319        1.3795193820        9.0302551654  CLST         148          1.0000000000
       445       149  TIP3  OH2           8.6549097637       -2.8407861348        0.8164920999  CLST         149          1.0000000000
       446       149  TIP3  H1            9.3543577534       -2.0968003811        0.7107706915  CLST         149          1.0000000000
       447       149  TIP3  H2            8.2539540374       -2.6706059331        1.7037975813  CLST         149          1.0000000000
       448       150  TIP3  OH2          -2.1872585539      -11.6006694756        8.4740609688  CLST         150          1.0000000000
       449       150  TIP3  H1           -3.0468734691      -11.8298229713        8.9437800144  CLST         150          1.0000000000
       450       150  TIP3  H2           -1.5416911429      -11.9974529867        9.1287415744  CLST         150          1.0000000000
       451       151  TIP3  OH2          -9.0735290101       -6.4888704373       -4.8959219426  CLST         151          1.0000000000
       452       151  TIP3  H1           -8.1008441020       -6.4873198207       -4.5330918712  CLST         151          1.0000000000
       453       151  TIP3  H2           -8.8788475892       -7.3632380951       -5.3651203257  CLST         151          1.0000000000
       454       152  TIP3  OH2           3.9192343704       -2.0609683738        5.0422935392  CLST         152          1.0000000000
       455       152  TIP3  H1            4.3624426277       -2.8592920886        5.4547366614  CLST         152          1.0000000000
       456       152  TIP3  H2            3.6058480583       -2.4387968069        4.1963527113  CLST         152          1.0000000000
       457       153  TIP3  OH2          -2.6952109583        4.7268432439      -14.2478521720  CLST         153          1.0000000000
       458       153  TIP3  H1           -1.9656288154        5.3196069225      -13.9337408145  CLST         153          1.0000000000
       459       153  TIP3  H2           -2.7556961507        4.2723275903      -13.3870159356  CLST         153          1.0000000000
       460       154  TIP3  OH2           4.5924638003       -6.8317532089        2.1609481569  CLST         154          1.0000000000
       461       154  TIP3  H1            5.3950186599       -6.3074842890        1.9493648764  CLST         154          1.0000000000
       462       154  TIP3  H2            3.8749060462       -6.3953287027        1.6616634576  CLST         154          1.0000000000
       463       155  TIP3  OH2           9.4438712051       -2.6993622428       10.2858189790  CLST         155          1.0000000000
       464       155  TIP3  H1            8.7981147953       -3.0551140896        9.6265594822  CLST         155          1.0000000000
       465       155  TIP3  H2           10.0520502183       -3.2895947478       10.4863407768  CLST         155          1.0000000000
       466       156  TIP3  OH2          -2.1691541706       11.3227591393       11.4833370223  CLST         156          1.0000000000
       467       156  TIP3  H1           -2.8283728307       11.9293169761       11.8721862068  CLST         156          1.0000000000
       468       156  TIP3  H2           -2.7082292496       10.5370748539       11.6049561250  CLST         156          1.0000000000
       469       157  TIP3  OH2           3.8769525286       -0.8178250272        7.4715619471  CLST         157          1.0000000000
       470       157  TIP3  H1            4.8264034227       -0.9973301618        7.7736496129  CLST         157          1.0000000000
       471       157  TIP3  H2            3.8406728640       -1.2747338364        6.5612361014  CLST         157          1.0000000000
       472       158  TIP3  OH2          10.6706479859        9.0660824167       13.1532130204  CLST         158          1.0000000000
       473       158  TIP3  H1            9.7552967681        8.6232726121       13.1805167070  CLST         158          1.0000000000
       474       158  TIP3  H2           10.2032550620        9.8956792527       12.8757620635  CLST         158          1.0000000000
       475       159  TIP3  OH2           0.4542104975      -12.3295754693        4.2740583325  CLST         159          1.0000000000
       476       159  TIP3  H1           -0.1670796213      -12.6425118062        4.9983402346  CLST         159          1.0000000000
       477       159  TIP3  H2            0.2176402268      -11.3702951675        4.4782083616  CLST         159          1.0000000000
       478       160  TIP3  OH2           7.4132945891       -3.5425023358        8.5962277383  CLST         160          1.0000000000
       479       160  TIP3  H1            7.0626495907       -3.7460963633        7.6965223367  CLST         160          1.0000000000
       480       160  TIP3  H2            6.9221442039       -2.6526915051        8.6223573526  CLST         160          1.0000000000
       481       161  TIP3  OH2          -2.3942892089       -2.2463252166        7.8635751224  CLST         161          1.0000000000
       482       161  TIP3  H1           -1.8718430945       -1.7101452281        8.5367324930  CLST         161          1.0000000000
       483       161  TIP3  H2           -3.2612421881       -2.1223114241        8.3330438569  CLST         161          1.0000000000
       484       162  TIP3  OH2          -0.7538122346        3.6994784639      -10.4791733734  CLST         162          1.0000000000
       485       162  TIP3  H1           -0.4608799708        4.3996456314      -11.0724599443  CLST         162          1.0000000000
       486       162  TIP3  H2           -0.7478319393        3.9980295032       -9.5707218799  CLST         162          1.0000000000
       487       163  TIP3  OH2         -10.0631971658        9.2090200215       11.3298982880  CLST         163          1.0000000000
       488       163  TIP3  H1          -10.7027941294        8.4887352508       11.4676616240  CLST         163          1.0000000000
       489       163  TIP3  H2          -10.3887575568        9.8986545251       11.9596271095  CLST         163          1.0000000000
       490       164  TIP3  OH2           3.9430277402      -10.3754357563       12.9345407959  CLST         164          1.0000000000
       491       164  TIP3  H1            4.4060585057       -9.4825303456       12.8701105365  CLST         164          1.0000000000
       492       164  TIP3  H2            4.7404046163      -10.8435744724       12.5674635606  CLST         164          1.0000000000
       493       165  TIP3  OH2         -12.1362027716       -5.5118624929        3.5394248273  CLST         165          1.0000000000
       494       165  TIP3  H1          -11.9022282248       -5.4552718253        4.5321594396  CLST         165          1.0000000000
       495       165  TIP3  H2          -12.8434709387       -6.0421463068        3.5457240785  CLST         165          1.0000000000
       496       166  TIP3  OH2          -1.5737161796       -6.3955293672      -10.4276679957  CLST         166          1.0000000000
       497       166  TIP3  H1           -0.6496915803       -6.6693424494      -10.5772325356  CLST         166          1.0000000000
       498       166  TIP3  H2           -2.0000405903       -7.2601005597      -10.6237958150  CLST         166          1.0000000000
       499       167  TIP3  OH2           8.1019683240       10.6732154074       -0.8732152680  CLST         167          1.0000000000
       500       167  TIP3  H1            8.7561214017       10.1608075433       -0.3141156160  CLST         167          1.0000000000
       501       167  TIP3  H2            8.4884854544       10.5899339857       -1.7720338965  CLST         167          1.0000000000
       502       168  TIP3  OH2          -0.6983308418      -13.3858606927        2.0635753101  CLST         168          1.0000000000
       503       168  TIP3  H1           -0.3461998641      -13.0342477867        2.9160870365  CLST         168          1.0000000000
       504       168  TIP3  H2            0.0734183331      -13.8668086138        1.7407151823  CLST         168          1.0000000000
       505       169  TIP3  OH2           5.1131916906        4.0683560960        3.2685457741  CLST         169          1.0000000000
       506       169  TIP3  H1            4.1693635912        3.8464827773        3.2845441560  CLST         169          1.0000000000
       507       169  TIP3  H2            5.1518162584        4.6284210828        2.4419302432  CLST         169          1.0000000000
       508       170  TIP3  OH2          -1.1265881986        4.4073148126        1.3812787449  CLST         170          1.0000000000
       509       170  TIP3  H1           -1.8448801584        5.1289220105        1.2847658082  CLST         170          1.0000000000
       510       170  TIP3  H2           -1.4606904645        3.5043297479        1.2560528730  CLST         170          1.0000000000
       511       171  TIP3  OH2          -3.1750816925        1.3327520886        7.4293950011  CLST         171          1.0000000000
       512       171  TIP3  H1           -2.7894257238        0.9913429881        6.5704569341  CLST         171          1.0000000000
       513       171  TIP3  H2           -2.3531993264        1.7685294231        7.8134981093  CLST         171          1.0000000000
       514       172  TIP3  OH2          -6.3912770244      -13.0758904662        8.0425918199  CLST         172          1.0000000000
       515       172  TIP3  H1           -7.0055542057      -13.3761281775        7.3445941851  CLST         172          1.0000000000
       516       172  TIP3  H2           -5.6327239063      -12.7886852393        7.4220814098  CLST         172          1.0000000000
       517       173  TIP3  OH2          10.2888479328      -12.5174450914        1.8685329761  CLST         173          1.0000000000
       518       173  TIP3  H1           10.5751025101      -12.4590357739        0.8865122089  CLST         173          1.0000000000
       519       173  TIP3  H2            9.3640829573      -12.2705843629        1.7777579538  CLST         173          1.0000000000
       520       174  TIP3  OH2          -0.0014394876        5.6579286109        9.7436341581  CLST         174          1.0000000000
       521       174  TIP3  H1           -0.0764400940        4.7585988973       10.1098456594  CLST         174          1.0000000000
       522       174  TIP3  H2           -0.8856446758        6.0254393935        9.8213195969  CLST         174          1.0000000000
       523       175  TIP3  OH2          -5.7829668362       10.4493616761       -3.5292830454  CLST         175          1.0000000000
       524       175  TIP3  H1           -5.3984117456       10.2143591545       -4.4102071644  CLST         175          1.0000000000
       525       175  TIP3  H2           -6.6976898763       10.2571194697       -3.8665645143  CLST         175          1.0000000000
       526       176  TIP3  OH2           6.9387689854        9.2711170698       -7.8149082918  CLST         176          1.0000000000
       527       176  TIP3  H1            7.1930691251       10.0947742135       -8.3341341286  CLST         176          1.0000000000
       528       176  TIP3  H2            6.4701557685        9.7788070343       -7.0873103359  CLST         176          1.0000000000
       529       177  TIP3  OH2          -3.7417178948      -11.4849713541       -1.4780336709  CLST         177          1.0000000000
       530       177  TIP3  H1           -3.1456964899      -12.0409333859       -0.9368166452  CLST         177          1.0000000000
       531       177  TIP3  H2           -4.4210963627      -11.2470905495       -0.7643074702  CLST         177          1.0000000000
       532       178  TIP3  OH2          10.9248676193       -9.0725413076      -11.4643008016  CLST         178          1.0000000000
       533       178  TIP3  H1           11.2147657346       -9.0214564481      -10.5212969871  CLST         178          1.0000000000
       534       178  TIP3  H2           10.9285343622       -8.1230413340      -11.6878575144  CLST         178          1.0000000000
       535       179  TIP3  OH2           6.5210819122       -1.0004413571        8.3535073298  CLST         179          1.0000000000
       536       179  TIP3  H1            6.3981610996       -0.6105756037        9.2657327018  CLST         179          1.0000000000
       537       179  TIP3  H2            7.3516778494       -0.5319103674        8.1194889497  CLST         179          1.0000000000
       538       180  TIP3  OH2          -7.5497638892        8.2431555490        6.0274977284  CLST         180          1.0000000000
       539       180  TIP3  H1           -7.4833195715        7.7033486128        6.8839477343  CLST         180          1.0000000000
       540       180  TIP3  H2           -8.5333289644        8.1651866909        5.9836530998  CLST         180          1.0000000000
       541       181  TIP3  OH2           5.8249891459      -12.9302272085       -0.3243297174  CLST         181          1.0000000000
       542       181  TIP3  H1            6.5190119080      -13.0702618741       -0.9556441507  CLST         181          1.0000000000
       543       181  TIP3  H2            6.2730453208      -12.9581873482        0.5691822349  CLST         181          1.0000000000
       544       182  TIP3  OH2          -1.7408596096       10.5742405224      -10.3652093493  CLST         182          1.0000000000
       545       182  TIP3  H1           -0.8901952332       10.7949024768       -9.9007705734  CLST         182          1.0000000000
       546       182  TIP3  H2           -2.3712794297       10.5998609733       -9.5866459453  CLST         182          1.0000000000
       547       183  TIP3  OH2          -5.3248172842        3.5183292272      -12.3036888610  CLST         183          1.0000000000
       548       183  TIP3  H1           -5.2177808225        3.5096982719      -11.3438057077  CLST         183          1.0000000000
       549       183  TIP3  H2           -6.2790100086        3.2299611101      -12.3763407657  CLST         183          1.0000000000
       550       184  TIP3  OH2           2.9735061998        8.1775048469       -2.3958943004  CLST         184          1.0000000000
       551       184  TIP3  H1            2.9671806106        7.4798558605       -1.6821487072  CLST         184          1.0000000000
       552       184  TIP3  H2            2.0500889142        8.0153698460       -2.7091710172  CLST         184          1.0000000000
       553       185  TIP3  OH2           7.6077436074        4.5614479043       12.1341522938  CLST         185          1.0000000000
       554       185  TIP3  H1            7.7245071673        3.5769941481       12.0939492288  CLST         185          1.0000000000
       555       185  TIP3  H2            7.1598801383        4.6781482691       12.9910182536  CLST         185          1.0000000000
       556       186  TIP3  OH2           3.8499520902        6.0076990291       -5.1318325443  CLST         186          1.0000000000
       557       186  TIP3  H1            4.1962510628        6.9098271855       -5.2792001018  CLST         186          1.0000000000
       558       186  TIP3  H2            3.8761697389        5.6655849275       -6.0570988875  CLST         186          1.0000000000
       559       187  TIP3  OH2           3.8833184312        1.6976832383       -5.5149508642  CLST         187          1.0000000000
       560       187  TIP3  H1            4.0120110428        1.7535157674       -4.5561473254  CLST         187          1.0000000000
       561       187  TIP3  H2            3.6656469895        0.7186310773       -5.5611839695  CLST         187          1.0000000000
       562       188  TIP3  OH2          -4.4728380894       -1.5313497947        4.8392099636  CLST         188          1.0000000000
       563       188  TIP3  H1           -4.7062794302       -0.7108117327        4.3148063900  CLST         188          1.0000000000
       564       188  TIP3  H2           -4.7180231438       -1.2378523892        5.7485606953  CLST         188          1.0000000000
       565       189  TIP3  OH2          -4.9859665178        3.6192610939      -15.0211081612  CLST         189          1.0000000000
       566       189  TIP3  H1           -5.0064632055        3.7179081094      -14.0643193976  CLST         189          1.0000000000
       567       189  TIP3  H2           -4.0734906913        3.9087577802      -15.1949123317  CLST         189          1.0000000000
       568       190  TIP3  OH2           7.2487216693       -5.6918670150        5.2539860955  CLST         190          1.0000000000
       569       190  TIP3  H1            7.0920717279       -5.9716523340        4.3369284142  CLST         190          1.0000000000
       570       190  TIP3  H2            8.1997243888       -5.6049762890        5.2684122039  CLST         190          1.0000000000
       571       191  TIP3  OH2         -11.0065238296       -4.8958926600       -6.5646136479  CLST         191          1.0000000000
       572       191  TIP3  H1          -10.2590792446       -4.5226861699       -7.0722456074  CLST         191          1.0000000000
       573       191  TIP3  H2          -10.6236594977       -5.7093106323       -6.2586256970  CLST         191          1.0000000000
       574       192  TIP3  OH2           8.9757888930       14.2331693361        1.7990143836  CLST         192          1.0000000000
       575       192  TIP3  H1            8.4604782184       14.4351267189        2.6034123780  CLST         192          1.0000000000
       576       192  TIP3  H2            9.5933189740       14.9790137685        1.8371612207  CLST         192          1.0000000000
       577       193  TIP3  OH2           6.1904438933      -12.0783868409       11.7728201003  CLST         193          1.0000000000
       578       193  TIP3  H1            6.8201808358      -12.8148728517       11.6891121971  CLST         193          1.0000000000
       579       193  TIP3  H2            6.2623603092      -11.6746170927       10.8964772480  CLST         193          1.0000000000
       580       194  TIP3  OH2          -6.2658563362       -4.4008093232       11.0751861903  CLST         194          1.0000000000
       581       194  TIP3  H1           -6.5916060256       -4.1274467046       11.9356895502  CLST         194          1.0000000000
       582       194  TIP3  H2           -6.9665317565       -4.1000155340       10.3987626038  CLST         194          1.0000000000
       583       195  TIP3  OH2          -7.5956084942        8.9600074239       10.2828363235  CLST         195          1.0000000000
       584       195  TIP3  H1           -8.4008643104        8.8345409866       10.8563743078  CLST         195          1.0000000000
       585       195  TIP3  H2           -7.8365074115        8.3940530352        9.5010731972  CLST         195          1.0000000000
       586       196  TIP3  OH2           5.9863091210      -12.3421534719       -5.9191609484  CLST         196          1.0000000000
       587       196  TIP3  H1            6.4004794295      -11.6310225456       -6.4782296118  CLST         196          1.0000000000
       588       196  TIP3  H2            5.1383493519      -11.8687660261       -5.7507298346  CLST         196          1.0000000000
       589       197  TIP3  OH2           2.3842823951       -9.1759472088       -2.7902775667  CLST         197          1.0000000000
       590       197  TIP3  H1            1.9805674269       -8.2456901996       -2.6230469568  CLST         197          1.0000000000
       591       197  TIP3  H2            3.2216175879       -8.8941890869       -2.3324648250  CLST         197          1.0000000000
       592       198  TIP3  OH2          10.8091051008        1.8009358019        4.7648866915  CLST         198          1.0000000000
       593       198  TIP3  H1           10.1624721176        1.4378592991        4.2151247031  CLST         198          1.0000000000
       594       198  TIP3  H2           10.7028254649        2.6942403845        4.4573208599  CLST         198          1.0000000000
       595       199  TIP3  OH2          -0.1285546916        8.3792320175       -5.8877908760  CLST         199          1.0000000000
       596       199  TIP3  H1           -0.6805379898        8.7473635859       -5.1936350132  CLST         199          1.0000000000
       597       199  TIP3  H2           -0.3520856389        7.4017254877       -5.7571652238  CLST         199          1.0000000000
       598       200  TIP3  OH2          -7.5296031923       11.8047948239       10.9703687177  CLST         200          1.0000000000
       599       200  TIP3  H1           -7.5856126710       10.7871928637       10.9282689832  CLST         200          1.0000000000
       600       200  TIP3  H2           -7.3721938601       11.9577403202        9.9830641448  CLST         200          1.0000000000
       601       201  TIP3  OH2           4.4679708232        0.9756244940       -0.1828043223  CLST         201          1.0000000000
       602       201  TIP3  H1            4.4234275719        1.8003731799        0.3523497220  CLST         201          1.0000000000
       603       201  TIP3  H2            5.1495125886        0.5775452663        0.3865577849  CLST         201          1.0000000000
       604       202  TIP3  OH2          -2.0522567034       -4.1233569104      -12.5458985547  CLST         202          1.0000000000
       605       202  TIP3  H1           -1.7058363077       -4.6511561587      -11.7993465205  CLST         202          1.0000000000
       606       202  TIP3  H2           -2.1660320070       -3.2766063927      -12.0672825162  CLST         202          1.0000000000
       607       203  TIP3  OH2          -0.8326827004       11.4786369752        7.5160412745  CLST         203          1.0000000000
       608       203  TIP3  H1           -0.0029222690       11.1603039190        7.8987787486  CLST         203          1.0000000000
       609       203  TIP3  H2           -1.4604829930       10.9927579851        8.1219155732  CLST         203          1.0000000000
       610       204  TIP3  OH2          -5.4351571088        6.3223993274      -13.2102806519  CLST         204          1.0000000000
       611       204  TIP3  H1           -4.7667535637        6.1559141811      -13.9405649516  CLST         204          1.0000000000
       612       204  TIP3  H2           -5.7344779691        5.4241384841      -13.1220912789  CLST         204          1.0000000000
       613       205  TIP3  OH2          -2.3141633483        7.1341921183       -2.6138771462  CLST         205          1.0000000000
       614       205  TIP3  H1           -2.3784648957        7.7207770947       -3.4327206037  CLST         205          1.0000000000
       615       205  TIP3  H2           -1.2994058874        7.1737146733       -2.5963599109  CLST         205          1.0000000000
       616       206  TIP3  OH2           4.9384905115      -11.0807630219       -9.8445729958  CLST         206          1.0000000000
       617       206  TIP3  H1            5.0522086232      -11.9943095025       -9.3618439611  CLST         206          1.0000000000
       618       206  TIP3  H2            5.5560223474      -10.5949565386       -9.2147653065  CLST         206          1.0000000000
       619       207  TIP3  OH2          12.8446910866       10.2039055010       12.1815411679  CLST         207          1.0000000000
       620       207  TIP3  H1           12.0680470138        9.8264917890       12.6977513755  CLST         207          1.0000000000
       621       207  TIP3  H2           13.4807674729       10.2337157793       12.7047773703  CLST         207          1.0000000000
       622       208  TIP3  OH2         -11.5187851961        2.2884117556        6.8293365002  CLST         208          1.0000000000
       623       208  TIP3  H1          -11.2330848823        2.2694406201        7.7537374360  CLST         208          1.0000000000
       624       208  TIP3  H2          -11.2966448317        3.2198403344        6.5307166593  CLST         208          1.0000000000
       625       209  TIP3  OH2           4.3717868546       -9.1780776862        7.3146918449  CLST         209          1.0000000000
       626       209  TIP3  H1            4.0232475453       -9.5540186991        6.4192357642  CLST         209          1.0000000000
       627       209  TIP3  H2            3.5244493555       -8.6229436578        7.3664580059  CLST         209          1.0000000000
       628       210  TIP3  OH2          12.2108842468      -11.1673911843        5.3320194152  CLST         210          1.0000000000
       629       210  TIP3  H1           12.4626592005      -11.0955588225        4.3685011362  CLST         210          1.0000000000
       630       210  TIP3  H2           12.3596752751      -10.2882773107        5.6989590842  CLST         210          1.0000000000
       631       211  TIP3  OH2          -0.3069267493       -9.2954482054       12.2172390273  CLST         211          1.0000000000
       632       211  TIP3  H1            0.1672765046       -9.7267342617       12.9489717147  CLST         211          1.0000000000
       633       211  TIP3  H2           -1.0143662739       -9.9746116863       12.0951425642  CLST         211          1.0000000000
       634       212  TIP3  OH2         -12.3470716925        3.5321371632       -2.4245206323  CLST         212          1.0000000000
       635       212  TIP3  H1          -11.8185691292        4.1000367737       -3.0162917850  CLST         212          1.0000000000
       636       212  TIP3  H2          -11.9656521254        2.6282062705       -2.5334754684  CLST         212          1.0000000000
       637       213  TIP3  OH2          -9.3840181882      -11.4584923491      -11.4755198431  CLST         213          1.0000000000
       638       213  TIP3  H1           -9.9020865491      -11.5077405413      -12.1957832281  CLST         213          1.0000000000
       639       213  TIP3  H2           -8.4264087982      -11.1941422974      -11.8457589123  CLST         213          1.0000000000
       640       214  TIP3  OH2          -6.3805907820        2.1375929104       -5.4038623847  CLST         214          1.0000000000
       641       214  TIP3  H1           -6.3080149478        1.2823627196       -4.9447956805  CLST         214          1.0000000000
       642       214  TIP3  H2           -6.8279162692        2.7046499397       -4.7092423500  CLST         214          1.0000000000
       643       215  TIP3  OH2         -11.8343267608      -12.7963404805        5.5578868304  CLST         215          1.0000000000
       644       215  TIP3  H1          -11.0589873269      -12.4147440938        5.0948467545  CLST         215          1.0000000000
       645       215  TIP3  H2          -12.1806508890      -13.0722629659        4.6815208033  CLST         215          1.0000000000
       646       216  TIP3  OH2         -11.9360966090       -2.2994919779        8.0388614813  CLST         216          1.0000000000
       647       216  TIP3  H1          -10.9513599825       -2.1766889091        8.0702426804  CLST         216          1.0000000000
       648       216  TIP3  H2          -12.0084361419       -3.1210787991        8.6104339029  CLST         216          1.0000000000
       649       217  TIP3  OH2           7.6649746431       -0.2828880480       -1.5192873804  CLST         217          1.0000000000
       650       217  TIP3  H1            8.3189437406       -1.0191566139       -1.4436126463  CLST         217          1.0000000000
       651       217  TIP3  H2            7.1717217818       -0.4741917278       -0.6977905684  CLST         217          1.0000000000
       652       218  TIP3  OH2          -8.1391927574       -3.9077753933        9.2093866980  CLST         218          1.0000000000
       653       218  TIP3  H1           -8.3930759763       -3.0133250807        8.8525525304  CLST         218          1.0000000000
       654       218  TIP3  H2           -7.6531822588       -4.3286438312        8.5140706486  CLST         218          1.0000000000
       655       219  TIP3  OH2         -12.4306717465       -4.4433343052       -2.5872457509  CLST         219          1.0000000000
       656       219  TIP3  H1          -12.5416692784       -3.4866315405       -2.2873688916  CLST         219          1.0000000000
       657       219  TIP3  H2          -12.8317253533       -4.3823695997       -3.4792035172  CLST         219          1.0000000000
       658       220  TIP3  OH2           6.4166647089        6.9207699892        7.8104007303  CLST         220          1.0000000000
       659       220  TIP3  H1            6.0603207273        6.5538180700        6.9697159466  CLST         220          1.0000000000
       660       220  TIP3  H2            5.5779050010        6.8468860431        8.2872835698  CLST         220          1.0000000000
       661       221  TIP3  OH2         -10.4679590357       -7.0675945995       10.2617631587  CLST         221          1.0000000000
       662       221  TIP3  H1           -9.5722303160       -7.2923347944       10.1620265795  CLST         221          1.0000000000
       663       221  TIP3  H2          -10.8106266973       -7.9413176092        9.9692593921  CLST         221          1.0000000000
       664       222  TIP3  OH2          -6.9234308532       -0.7999741287      -13.7460362204  CLST         222          1.0000000000
       665       222  TIP3  H1           -6.4303324411       -1.6821287250      -13.6683456435  CLST         222          1.0000000000
       666       222  TIP3  H2           -7.7471407880       -0.9998270601      -13.2877966970  CLST         222          1.0000000000
       667       223  TIP3  OH2           2.8131050623      -10.8092358750      -11.7396717875  CLST         223          1.0000000000
       668       223  TIP3  H1            2.3108049733      -11.6403776895      -11.6124089762  CLST         223          1.0000000000
       669       223  TIP3  H2            3.5887248978      -10.9810636653      -11.1489608775  CLST         223          1.0000000000
       670       224  TIP3  OH2           7.5397524158        4.7094522963        0.5570791386  CLST         224          1.0000000000
       671       224  TIP3  H1            8.4561061458        4.9930966747        0.7245098611  CLST         224          1.0000000000
       672       224  TIP3  H2            7.5344852536        4.3863567555       -0.3903327481  CLST         224          1.0000000000
       673       225  TIP3  OH2          -0.2818406650        4.6805539108       -1.1995657190  CLST         225          1.0000000000
       674       225  TIP3  H1           -0.8158188746        4.5896674585       -0.3843194431  CLST         225          1.0000000000
       675       225  TIP3  H2           -0.0502209874        3.7029539822       -1.3243320119  CLST         225          1.0000000000
       676       226  TIP3  OH2          -5.6549812989       -4.4849647787        7.6506573184  CLST         226          1.0000000000
       677       226  TIP3  H1           -5.6784966511       -5.4615065723        7.8364868283  CLST         226          1.0000000000
       678       226  TIP3  H2           -5.9644164984       -4.4861540614        6.7210992074  CLST         226          1.0000000000
       679       227  TIP3  OH2          11.6060021487       -4.1113071718       -9.9797420828  CLST         227          1.0000000000
       680       227  TIP3  H1           11.9070820307       -3.8304454635       -9.0565891616  CLST         227          1.0000000000
       681       227  TIP3  H2           11.1609513967       -3.3111741520      -10.3029087389  CLST         227          1.0000000000
       682       228  TIP3  OH2           3.4328001496       12.4617443504        3.0994061467  CLST         228          1.0000000000
       683       228  TIP3  H1            2.7359798615       11.9574584352        3.7067498198  CLST         228          1.0000000000
       684       228  TIP3  H2            2.8405337605       12.5030066752        2.3626289367  CLST         228          1.0000000000
       685       229  TIP3  OH2         -11.5411219814      -13.0358609000        2.8802930486  CLST         229          1.0000000000
       686       229  TIP3  H1          -11.7158677656      -13.7036112995        2.3973787570  CLST         229          1.0000000000
       687       229  TIP3  H2          -11.0404113745      -12.2680690498        2.3617877873  CLST         229          1.0000000000
       688       230  TIP3  OH2          12.1818603912        6.2232444892       -3.3290222692  CLST         230          1.0000000000
       689       230  TIP3  H1           13.1705354696        6.3229789447       -3.3328770933  CLST         230          1.0000000000
       690       230  TIP3  H2           12.2229516235        5.3075384000       -3.7165114251  CLST         230          1.0000000000
       691       231  TIP3  OH2           7.2142015813        3.2325200303        4.8699067487  CLST         231          1.0000000000
       692       231  TIP3  H1            7.4035860854        4.1952926515        5.0024063187  CLST         231          1.0000000000
       693       231  TIP3  H2            6.2885165454        3.2477091702        4.5161699195  CLST         231          1.0000000000
       694       232  TIP3  OH2         -10.4344415759        8.9703746577        7.3740753401  CLST         232          1.0000000000
       695       232  TIP3  H1          -10.8771091361        9.4264020883        8.1371551757  CLST         232          1.0000000000
       696       232  TIP3  H2          -10.3588918726        8.0864744949        7.8764593741  CLST         232          1.0000000000
       697       233  TIP3  OH2           3.5929265034       -5.2805034511        8.0474149158  CLST         233          1.0000000000
       698       233  TIP3  H1            4.2692755573       -5.5929635228        8.6711892378  CLST         233          1.0000000000
       699       233  TIP3  H2            3.4163165964       -4.4117092341        8.5441809335  CLST         233          1.0000000000
       700       234  TIP3  OH2          -3.6541127920        8.5554355600       -0.6399607683  CLST         234          1.0000000000
       701       234  TIP3  H1           -3.3383450488        7.9466208010       -1.3491404246  CLST         234          1.0000000000
       702       234  TIP3  H2           -3.5830312919        9.4235062073       -1.1624261286  CLST         234          1.0000000000
       703       235  TIP3  OH2          -1.9372598490       -4.0393147719       -9.1266166141  CLST         235          1.0000000000
       704       235  TIP3  H1           -1.9206417821       -4.9750183633       -9.5035603318  CLST         235          1.0000000000
       705       235  TIP3  H2           -0.9754072521       -3.7657137053       -9.2452789614  CLST         235          1.0000000000
       706       236  TIP3  OH2          -0.3440953034      -13.6792686037       -3.0076542478  CLST         236          1.0000000000
       707       236  TIP3  H1            0.2879750721      -12.9384074584       -2.8517981817  CLST         236          1.0000000000
       708       236  TIP3  H2           -0.8946594239      -13.5275659693       -2.2019605852  CLST         236          1.0000000000
       709       237  TIP3  OH2          -3.7838445209       -5.2799142218       10.9833493196  CLST         237          1.0000000000
       710       237  TIP3  H1           -4.7625020140       -5.1357153488       10.9217611704  CLST         237          1.0000000000
       711       237  TIP3  H2           -3.6176991578       -5.9575989980       10.3004909867  CLST         237          1.0000000000
       712       238  TIP3  OH2           0.6796196836        4.7155046092        7.1794052920  CLST         238          1.0000000000
       713       238  TIP3  H1            0.0454816679        5.2321596599        6.6396768370  CLST         238          1.0000000000
       714       238  TIP3  H2            0.6151149890        5.1984256207        8.0251774626  CLST         238          1.0000000000
       715       239  TIP3  OH2         -14.1261298624        6.0491111311        3.4019745123  CLST         239          1.0000000000
       716       239  TIP3  H1          -14.1115132469        6.5723672681        2.5792376594  CLST         239          1.0000000000
       717       239  TIP3  H2          -13.5502910555        5.3048252590        3.1227836550  CLST         239          1.0000000000
       718       240  TIP3  OH2         -14.0751024406        8.9908189805       -0.2661869504  CLST         240          1.0000000000
       719       240  TIP3  H1          -13.3919729800        8.3261902199       -0.8213311557  CLST         240          1.0000000000
       720       240  TIP3  H2          -14.0333652401        7.4505184705        0.4235723438  CLST         240          1.0000000000
       721       241  TIP3  OH2          -7.6400649691       -7.7835693760       -8.7161938055  CLST         241          1.0000000000
       722       241  TIP3  H1           -7.8801504673       -8.0250139144       -7.7761847651  CLST         241          1.0000000000
       723       241  TIP3  H2           -7.3971248945       -6.8478050516       -8.4175264342  CLST         241          1.0000000000
       724       242  TIP3  OH2           6.1264611082       -5.6351321171        9.8667638053  CLST         242          1.0000000000
       725       242  TIP3  H1            6.6814995879       -4.8684432393        9.5166994399  CLST         242          1.0000000000
       726       242  TIP3  H2            6.7314668771       -6.3612676500        9.5928879800  CLST         242          1.0000000000
       727       243  TIP3  OH2          -6.6391190130       -7.1795264728       -4.2365519491  CLST         243          1.0000000000
       728       243  TIP3  H1           -6.2868814252       -8.0171902520       -4.6324652633  CLST         243          1.0000000000
       729       243  TIP3  H2           -6.6339863497       -7.5336706667       -3.3084471033  CLST         243          1.0000000000
       730       244  TIP3  OH2           4.8078590239        5.8180588182        5.4808030409  CLST         244          1.0000000000
       731       244  TIP3  H1            5.3045408946        5.4169308430        4.7727515301  CLST         244          1.0000000000
       732       244  TIP3  H2            4.0881984699        5.1476160944        5.4629281892  CLST         244          1.0000000000
       733       245  TIP3  OH2          -7.1802205684        3.7468944548       -7.6331331734  CLST         245          1.0000000000
       734       245  TIP3  H1           -7.1530515173        3.1507271321       -6.8616218319  CLST         245          1.0000000000
       735       245  TIP3  H2           -7.4672173549        4.5489703422       -7.0842333547  CLST         245          1.0000000000
       736       246  TIP3  OH2           2.0764049602       -6.5683396654       -1.9321593772  CLST         246          1.0000000000
       737       246  TIP3  H1            2.1013531678       -5.7638781797       -2.5670389526  CLST         246          1.0000000000
       738       246  TIP3  H2            3.0399583158       -6.5689500576       -1.7202420404  CLST         246          1.0000000000
       739       247  TIP3  OH2           6.0123431138        7.9980663829        0.5945466772  CLST         247          1.0000000000
       740       247  TIP3  H1            6.3078845809        7.7482942524       -0.2991188842  CLST         247          1.0000000000
       741       247  TIP3  H2            5.7589322586        8.9463333942        0.5058686853  CLST         247          1.0000000000
       742       248  TIP3  OH2          -2.5203576453        8.2632327906      -11.8371327009  CLST         248          1.0000000000
       743       248  TIP3  H1           -2.6292638781        8.6028747239      -12.7306892963  CLST         248          1.0000000000
       744       248  TIP3  H2           -2.2057077503        9.0924948598      -11.3545292047  CLST         248          1.0000000000
       745       249  TIP3  OH2           8.8086792283        4.7504066797       -7.8073531660  CLST         249          1.0000000000
       746       249  TIP3  H1            8.4582970200        5.5761728083       -7.4131451748  CLST         249          1.0000000000
       747       249  TIP3  H2            8.5049012483        4.0709301723       -7.1969827796  CLST         249          1.0000000000
       748       250  TIP3  OH2          -7.5836583777        9.7497049547       -5.3543472291  CLST         250          1.0000000000
       749       250  TIP3  H1           -7.9153144335        8.9350101792       -5.7375854096  CLST         250          1.0000000000
       750       250  TIP3  H2           -7.8762038199       10.4889483187       -5.9392741851  CLST         250          1.0000000000
       751       251  TIP3  OH2          -3.6843946405       12.3199588364        2.9885600943  CLST         251          1.0000000000
       752       251  TIP3  H1           -3.3846891071       13.1274295995        2.6745868728  CLST         251          1.0000000000
       753       251  TIP3  H2           -3.1416487347       12.2244523681        3.8641457149  CLST         251          1.0000000000
       754       252  TIP3  OH2           5.9170455924        5.3528281326       14.6282503959  CLST         252          1.0000000000
       755       252  TIP3  H1            5.7383823151        6.2683393366       14.5893955643  CLST         252          1.0000000000
       756       252  TIP3  H2            5.6838491452        5.1283360538       15.4783389662  CLST         252          1.0000000000
       757       253  TIP3  OH2           5.9301191656       13.9861160528        3.3024472825  CLST         253          1.0000000000
       758       253  TIP3  H1            4.9837968329       13.7437177600        3.4659029534  CLST         253          1.0000000000
       759       253  TIP3  H2            5.8278300706       14.0093331980        2.3341982523  CLST         253          1.0000000000
       760       254  TIP3  OH2          -4.1864309571        8.0415643364        3.1283588686  CLST         254          1.0000000000
       761       254  TIP3  H1           -4.5756275937        8.9096860045        2.8705982638  CLST         254          1.0000000000
       762       254  TIP3  H2           -5.0276819903        7.5646675154        3.1470804152  CLST         254          1.0000000000
       763       255  TIP3  OH2          -6.9350518334       10.5222738957        4.2432661487  CLST         255          1.0000000000
       764       255  TIP3  H1           -7.9187730047       10.7628872241        4.2647186352  CLST         255          1.0000000000
       765       255  TIP3  H2           -7.0170087250        9.7514012387        4.8646319732  CLST         255          1.0000000000
       766       256  TIP3  OH2          11.5152269726        3.7395323759       -1.3222149087  CLST         256          1.0000000000
       767       256  TIP3  H1           11.8658479139        3.1014401615       -1.9804041357  CLST         256          1.0000000000
       768       256  TIP3  H2           11.1593805428        3.1320103412       -0.6650017084  CLST         256          1.0000000000
       769       257  TIP3  OH2          -8.5792822418       -1.2396903195       -4.9217570304  CLST         257          1.0000000000
       770       257  TIP3  H1           -7.7136408292       -1.0734614122       -4.4783911044  CLST         257          1.0000000000
       771       257  TIP3  H2           -8.2933978783       -1.1209048039       -5.8374091545  CLST         257          1.0000000000
       772       258  TIP3  OH2          -5.3664994346       10.1436261933        7.8684497799  CLST         258          1.0000000000
       773       258  TIP3  H1           -5.2509316100       10.8932329402        7.2077716622  CLST         258          1.0000000000
       774       258  TIP3  H2           -5.9728783745       10.6776114909        8.4253299403  CLST         258          1.0000000000
       775       259  TIP3  OH2          10.2001478226        6.1910855950        1.0104422318  CLST         259          1.0000000000
       776       259  TIP3  H1           11.0139824229        6.7660395551        1.1848804239  CLST         259          1.0000000000
       777       259  TIP3  H2           10.1306837285        5.8195902229        1.9292564042  CLST         259          1.0000000000
       778       260  TIP3  OH2          -5.0033993263        7.6812355408        8.7799443950  CLST         260          1.0000000000
       779       260  TIP3  H1           -5.3307169952        8.4526202362        8.2658832738  CLST         260          1.0000000000
       780       260  TIP3  H2           -5.8700968995        7.3373004489        9.0601355133  CLST         260          1.0000000000
       781       261  TIP3  OH2           0.7347933416       -4.3156776162       12.2733663880  CLST         261          1.0000000000
       782       261  TIP3  H1            0.4246982191       -5.3016055048       12.3935350173  CLST         261          1.0000000000
       783       261  TIP3  H2            1.6369680571       -4.4984462018       12.2971571675  CLST         261          1.0000000000
       784       262  TIP3  OH2         -11.1167502791        4.7331769853        5.9112754446  CLST         262          1.0000000000
       785       262  TIP3  H1          -10.3415974010        4.6513262835        5.2358136072  CLST         262          1.0000000000
       786       262  TIP3  H2          -11.8862354389        4.8984842898        5.4014785223  CLST         262          1.0000000000
       787       263  TIP3  OH2           1.8595500001        0.9472684627        6.6836855942  CLST         263          1.0000000000
       788       263  TIP3  H1            2.3692349416        1.7274016071        6.3952165697  CLST         263          1.0000000000
       789       263  TIP3  H2            2.5860732791        0.3465645398        7.0261944596  CLST         263          1.0000000000
       790       264  TIP3  OH2           5.1844450688       -4.3656629007       -9.8165789511  CLST         264          1.0000000000
       791       264  TIP3  H1            4.8542977127       -5.3455351050       -9.9221218578  CLST         264          1.0000000000
       792       264  TIP3  H2            4.4111050980       -3.9841892714      -10.2928597324  CLST         264          1.0000000000
       793       265  TIP3  OH2           7.5959092408        4.9203110953      -10.3050809302  CLST         265          1.0000000000
       794       265  TIP3  H1            7.8145526310        5.8215933006      -10.6202342084  CLST         265          1.0000000000
       795       265  TIP3  H2            8.0651624934        4.8954662718       -9.4241714746  CLST         265          1.0000000000
       796       266  TIP3  OH2          -7.9818807879       -8.9186470727        0.2182831155  CLST         266          1.0000000000
       797       266  TIP3  H1           -7.8688415728       -9.2167016731        1.1398959392  CLST         266          1.0000000000
       798       266  TIP3  H2           -8.3571512727       -8.0067698027        0.3564487262  CLST         266          1.0000000000
       799       267  TIP3  OH2           1.1918382124        2.5114169415       -5.1275676490  CLST         267          1.0000000000
       800       267  TIP3  H1            1.5039366174        3.3371064012       -4.5809083845  CLST         267          1.0000000000
       801       267  TIP3  H2            1.9584642410        1.9756743466       -4.9086662176  CLST         267          1.0000000000
       802       268  TIP3  OH2           5.2468458126       -4.6014226138       -6.9147882500  CLST         268          1.0000000000
       803       268  TIP3  H1            5.2822684401       -4.4095660430       -7.8625689634  CLST         268          1.0000000000
       804       268  TIP3  H2            4.8917078359       -5.5499106185       -6.9099341934  CLST         268          1.0000000000
       805       269  TIP3  OH2           5.4373140322       10.7791362697       -0.0752856066  CLST         269          1.0000000000
       806       269  TIP3  H1            6.4149044515       10.6865805607       -0.4200682413  CLST         269          1.0000000000
       807       269  TIP3  H2            5.6271485954       11.6846591448        0.2534959944  CLST         269          1.0000000000
       808       270  TIP3  OH2           1.3377074950        9.4036308040       -8.0014641135  CLST         270          1.0000000000
       809       270  TIP3  H1            1.4700127085        8.5693382226       -8.5975074940  CLST         270          1.0000000000
       810       270  TIP3  H2            0.7095864020        8.9749846180       -7.3278894510  CLST         270          1.0000000000
       811       271  TIP3  OH2          -6.4885429845       -9.1503116095       -2.1806094154  CLST         271          1.0000000000
       812       271  TIP3  H1           -5.6318955637       -9.2624346821       -1.7196521930  CLST         271          1.0000000000
       813       271  TIP3  H2           -7.0287572637       -9.1261379517       -1.3061542689  CLST         271          1.0000000000
       814       272  TIP3  OH2           9.3985103531       -8.2065148107        5.7001604186  CLST         272          1.0000000000
       815       272  TIP3  H1            8.3961582615       -8.2013770294        5.6384526426  CLST         272          1.0000000000
       816       272  TIP3  H2            9.5791840626       -7.6279539789        4.9090894353  CLST         272          1.0000000000
       817       273  TIP3  OH2         -13.9346769177        9.4004607217        3.2220235222  CLST         273          1.0000000000
       818       273  TIP3  H1          -14.5545224112        9.7621249633        3.9855160129  CLST         273          1.0000000000
       819       273  TIP3  H2          -13.5021505127        8.7433206565        3.8010914741  CLST         273          1.0000000000
       820       274  TIP3  OH2           4.0151858348       13.0492378103       -4.1843548759  CLST         274          1.0000000000
       821       274  TIP3  H1            3.7232841508       12.4487168437       -3.4337781839  CLST         274          1.0000000000
       822       274  TIP3  H2            4.1261370365       13.8642929321       -3.8441376911  CLST         274          1.0000000000
       823       275  TIP3  OH2           8.8595852173      -11.1248290766        6.0025124403  CLST         275          1.0000000000
       824       275  TIP3  H1            9.2889241429      -10.2739990104        6.0816454876  CLST         275          1.0000000000
       825       275  TIP3  H2            9.5095398838      -11.8027284939        5.6770547438  CLST         275          1.0000000000
       826       276  TIP3  OH2          -0.2973650365       -5.8694203700        1.3888660545  CLST         276          1.0000000000
       827       276  TIP3  H1           -0.8798411015       -6.3477499184        0.7755001244  CLST         276          1.0000000000
       828       276  TIP3  H2           -0.9017577335       -5.1309349356        1.7955979092  CLST         276          1.0000000000
       829       277  TIP3  OH2           6.4590020356        6.4026215582       -6.8950083813  CLST         277          1.0000000000
       830       277  TIP3  H1            5.9393515041        5.7333516493       -7.3685062677  CLST         277          1.0000000000
       831       277  TIP3  H2            6.3647670621        7.1787864345       -7.4906816538  CLST         277          1.0000000000
       832       278  TIP3  OH2          -0.5849944445       -7.4981366545        3.5617075026  CLST         278          1.0000000000
       833       278  TIP3  H1           -0.5330077271       -6.9534377960        2.7244421157  CLST         278          1.0000000000
       834       278  TIP3  H2           -0.5440818885       -6.7635575918        4.2254222983  CLST         278          1.0000000000
       835       279  TIP3  OH2         -13.6189516054        6.5311754685        0.4921530877  CLST         279          1.0000000000
       836       279  TIP3  H1          -13.9528679614        5.6210070516        0.2434230555  CLST         279          1.0000000000
       837       279  TIP3  H2          -12.5562150056        6.3908007072        0.6808395397  CLST         279          1.0000000000
       838       280  TIP3  OH2          -3.3226969546      -10.0411671244        5.5060308253  CLST         280          1.0000000000
       839       280  TIP3  H1           -3.0113757664       -9.5018480626        6.2556844601  CLST         280          1.0000000000
       840       280  TIP3  H2           -3.8509033293       -9.3323437584        5.0589370982  CLST         280          1.0000000000
       841       281  TIP3  OH2           8.1445121848        7.7782932566      -10.6579473059  CLST         281          1.0000000000
       842       281  TIP3  H1            8.6814234918        8.5605762054      -10.4176143711  CLST         281          1.0000000000
       843       281  TIP3  H2            7.2159163028        8.0846949474      -10.6121943140  CLST         281          1.0000000000
       844       282  TIP3  OH2          -7.7757844706      -11.8532376802        9.9512081906  CLST         282          1.0000000000
       845       282  TIP3  H1           -8.6691749210      -11.7583412001        9.6181054556  CLST         282          1.0000000000
       846       282  TIP3  H2           -7.2767719595      -12.3099134388        9.2308993636  CLST         282          1.0000000000
       847       283  TIP3  OH2           4.5657633995        8.5584055601       -4.6689669773  CLST         283          1.0000000000
       848       283  TIP3  H1            4.7929893139        9.5113267125       -4.8805855191  CLST         283          1.0000000000
       849       283  TIP3  H2            4.1701264311        8.5695376318       -3.7758009929  CLST         283          1.0000000000
       850       284  TIP3  OH2          11.8273139869        8.3085269529       -1.3855432363  CLST         284          1.0000000000
       851       284  TIP3  H1           11.7905594729        7.6128420090       -2.0407048977  CLST         284          1.0000000000
       852       284  TIP3  H2           10.9940237008        8.8210328089       -1.5421614789  CLST         284          1.0000000000
       853       285  TIP3  OH2          -5.3896371706        1.9346237540        8.8818198290  CLST         285          1.0000000000
       854       285  TIP3  H1           -4.7043048075        1.6218053626        8.2567584183  CLST         285          1.0000000000
       855       285  TIP3  H2           -4.8726826868        2.6179294933        9.4324017548  CLST         285          1.0000000000
       856       286  TIP3  OH2           3.0144737179        5.8193476971       -0.4968459972  CLST         286          1.0000000000
       857       286  TIP3  H1            2.3436971074        5.8867510095        0.2281856942  CLST         286          1.0000000000
       858       286  TIP3  H2            3.7850383618        5.8371603679        0.1673372816  CLST         286          1.0000000000
       859       287  TIP3  OH2          -4.3150954231        9.3893601411       11.1966785362  CLST         287          1.0000000000
       860       287  TIP3  H1           -4.8053655852       10.0158502560       11.7417408445  CLST         287          1.0000000000
       861       287  TIP3  H2           -4.9879938909        8.8914943813       10.6929598023  CLST         287          1.0000000000
       862       288  TIP3  OH2           5.5540848221        3.4511318413       -9.5342997803  CLST         288          1.0000000000
       863       288  TIP3  H1            5.3632873849        2.7451690334      -10.1541815882  CLST         288          1.0000000000
       864       288  TIP3  H2            6.3717008261        3.8886144541       -9.9594575088  CLST         288          1.0000000000
       865       289  TIP3  OH2          -7.0958304168       -5.1569076820       -8.1510128334  CLST         289          1.0000000000
       866       289  TIP3  H1           -7.8993288876       -4.5849181409       -8.1389500003  CLST         289          1.0000000000
       867       289  TIP3  H2           -6.4401865398       -4.5928257504       -7.7816182873  CLST         289          1.0000000000
       868       290  TIP3  OH2           2.2511322706      -12.0516699821       11.2954998418  CLST         290          1.0000000000
       869       290  TIP3  H1            2.8156601225      -12.8409339373       11.3752277461  CLST         290          1.0000000000
       870       290  TIP3  H2            2.8475432423      -11.3906537569       11.7695794367  CLST         290          1.0000000000
       871       291  TIP3  OH2         -10.3238458863       -3.4506722410        2.9541702229  CLST         291          1.0000000000
       872       291  TIP3  H1          -11.1554755360       -3.9323362502        3.1829717914  CLST         291          1.0000000000
       873       291  TIP3  H2          -10.2802366020       -3.2886678170        2.0030968624  CLST         291          1.0000000000
       874       292  TIP3  OH2          12.2029676937        3.4677787391       -4.7002890193  CLST         292          1.0000000000
       875       292  TIP3  H1           11.2392422560        3.3494599153       -4.4984094735  CLST         292          1.0000000000
       876       292  TIP3  H2           12.0535303735        4.0070078992       -5.5311047037  CLST         292          1.0000000000
       877       293  TIP3  OH2           8.9211737965       10.7407221408       11.1524783933  CLST         293          1.0000000000
       878       293  TIP3  H1            8.6999763976       11.4258711004       11.7597875261  CLST         293          1.0000000000
       879       293  TIP3  H2            8.9617459471       11.2179160547       10.2926687828  CLST         293          1.0000000000
       880       294  TIP3  OH2           4.1461991476        4.5996720783       -2.4886460610  CLST         294          1.0000000000
       881       294  TIP3  H1            3.8067265988        5.1735184441       -1.7403996383  CLST         294          1.0000000000
       882       294  TIP3  H2            4.2082898022        5.1917307122       -3.2750659546  CLST         294          1.0000000000
       883       295  TIP3  OH2          -2.4049563578      -13.4890408726       -8.7568938853  CLST         295          1.0000000000
       884       295  TIP3  H1           -3.0738415080      -13.1545115024       -8.1091966213  CLST         295          1.0000000000
       885       295  TIP3  H2           -1.6499363517      -13.2797054234       -8.1859628647  CLST         295          1.0000000000
       886       296  TIP3  OH2          -1.5760273004       11.5542867128      -12.9830651498  CLST         296          1.0000000000
       887       296  TIP3  H1           -0.7192782252       11.1312501510      -13.1861891455  CLST         296          1.0000000000
       888       296  TIP3  H2           -1.6207422971       11.2930015298      -12.0212937734  CLST         296          1.0000000000
       889       297  TIP3  OH2           8.0632228315       -0.4653007469       11.3685562312  CLST         297          1.0000000000
       890       297  TIP3  H1            8.5576105949       -1.2793772407       11.1007180244  CLST         297          1.0000000000
       891       297  TIP3  H2            7.2332280366       -0.9022894319       11.7066195937  CLST         297          1.0000000000
       892       298  TIP3  OH2           1.1419895244       -1.3555183667       -7.5801404739  CLST         298          1.0000000000
       893       298  TIP3  H1            1.5164643214       -0.6293210554       -8.1583435432  CLST         298          1.0000000000
       894       298  TIP3  H2            0.8372560524       -2.0682176568       -8.2091732851  CLST         298          1.0000000000
       895       299  TIP3  OH2           3.0503712354       10.2678058647       12.8362921413  CLST         299          1.0000000000
       896       299  TIP3  H1            2.2951808288       10.8110516641       12.4669477104  CLST         299          1.0000000000
       897       299  TIP3  H2            2.4628759173        9.5364060281       12.8904600169  CLST         299          1.0000000000
       898       300  TIP3  OH2         -10.7536124501        5.2266682481       -3.7200752854  CLST         300          1.0000000000
       899       300  TIP3  H1          -10.6562276613        5.7484788973       -4.5582120049  CLST         300          1.0000000000
       900       300  TIP3  H2          -10.8630306575        6.0657159921       -3.1555605320  CLST         300          1.0000000000
       901       301  TIP3  OH2           9.5586636529       -8.3881396649       11.1993146522  CLST         301          1.0000000000
       902       301  TIP3  H1            9.3522343072       -8.1899467340       12.1419146332  CLST         301          1.0000000000
       903       301  TIP3  H2            9.5160950320       -9.3833166550       11.2607068272  CLST         301          1.0000000000
       904       302  TIP3  OH2           7.7294690142       12.9147812470        5.4221775485  CLST         302          1.0000000000
       905       302  TIP3  H1            7.4099089298       13.2024735947        4.5476950263  CLST         302          1.0000000000
       906       302  TIP3  H2            6.8426881484       12.4437306210        5.5784681986  CLST         302          1.0000000000
       907       303  TIP3  OH2         -10.9115996231        1.1787514723       -2.0164157811  CLST         303          1.0000000000
       908       303  TIP3  H1           -9.9123363227        1.1594808854       -1.8398731969  CLST         303          1.0000000000
       909       303  TIP3  H2          -10.8972127623        0.6692940678       -2.8651685805  CLST         303          1.0000000000
       910       304  TIP3  OH2          -7.9624643418        1.2727091126      -15.1626456058  CLST         304          1.0000000000
       911       304  TIP3  H1           -7.4223495336        0.5111184628      -14.7462735354  CLST         304          1.0000000000
       912       304  TIP3  H2           -7.3013739216        1.8490715449      -15.5304786999  CLST         304          1.0000000000
       913       305  TIP3  OH2           3.3774976476       -3.7835799663       13.8530526212  CLST         305          1.0000000000
       914       305  TIP3  H1            4.0855897756       -3.9812419727       13.2432822262  CLST         305          1.0000000000
       915       305  TIP3  H2            3.5932682662       -2.8215092143       13.9858956762  CLST         305          1.0000000000
       916       306  TIP3  OH2           8.8602818030      -12.0238629409      -11.2154784374  CLST         306          1.0000000000
       917       306  TIP3  H1            9.6539292894      -11.7694367057      -11.7211144909  CLST         306          1.0000000000
       918       306  TIP3  H2            8.9313098167      -12.8036512765      -10.8627914321  CLST         306          1.0000000000
       919       307  TIP3  OH2           9.3104110324        7.8753757629       -7.6431733329  CLST         307          1.0000000000
       920       307  TIP3  H1            8.4844405002        8.4129727744       -7.7890932461  CLST         307          1.0000000000
       921       307  TIP3  H2            9.4862161010        8.0357829342       -6.6969205824  CLST         307          1.0000000000
       922       308  TIP3  OH2         -10.8026977186       -4.8580909792        8.7305421651  CLST         308          1.0000000000
       923       308  TIP3  H1          -10.8538356155       -5.6547790835        9.3654325604  CLST         308          1.0000000000
       924       308  TIP3  H2           -9.9483339636       -4.4628577756        9.0167765170  CLST         308          1.0000000000
       925       309  TIP3  OH2          -1.9924903222       -0.4985657343        5.5626708470  CLST         309          1.0000000000
       926       309  TIP3  H1           -2.8204078354       -0.8460423932        5.1392233896  CLST         309          1.0000000000
       927       309  TIP3  H2           -1.8257611906       -1.2501826764        6.1435582099  CLST         309          1.0000000000
       928       310  TIP3  OH2          -4.9349983492       -0.6047297646        7.3367797199  CLST         310          1.0000000000
       929       310  TIP3  H1           -4.2441716720        0.0857379489        7.3870148471  CLST         310          1.0000000000
       930       310  TIP3  H2           -5.0521469513       -0.9180552340        8.2575159223  CLST         310          1.0000000000
       931       311  TIP3  OH2          -7.3181963728        8.5260842399      -12.3069141610  CLST         311          1.0000000000
       932       311  TIP3  H1           -6.6864551566        7.9684590737      -12.7497078030  CLST         311          1.0000000000
       933       311  TIP3  H2           -7.3262845339        8.0148647190      -11.4786269117  CLST         311          1.0000000000
       934       312  TIP3  OH2           6.5071146848       -0.8327080923       -6.3256647837  CLST         312          1.0000000000
       935       312  TIP3  H1            6.3439449663       -0.0432255073       -5.7473832855  CLST         312          1.0000000000
       936       312  TIP3  H2            6.5217247203       -1.5379591436       -5.6612477568  CLST         312          1.0000000000
       937       313  TIP3  OH2          -8.8189533227      -10.6416966031        7.1790353483  CLST         313          1.0000000000
       938       313  TIP3  H1           -8.2151454529       -9.8581074541        6.8865724995  CLST         313          1.0000000000
       939       313  TIP3  H2           -9.2705701013      -10.6733901706        6.3055719820  CLST         313          1.0000000000
       940       314  TIP3  OH2          -1.3378269180      -12.2160546576      -10.7925157017  CLST         314          1.0000000000
       941       314  TIP3  H1           -1.3883678890      -11.3337631936      -10.2732140248  CLST         314          1.0000000000
       942       314  TIP3  H2           -1.8629725071      -12.7278688128      -10.1394636771  CLST         314          1.0000000000
       943       315  TIP3  OH2          -1.3478499746       -0.6620971125       -6.3738672498  CLST         315          1.0000000000
       944       315  TIP3  H1           -0.4936842755       -0.9177719910       -6.7542021167  CLST         315          1.0000000000
       945       315  TIP3  H2           -1.0978950413       -0.1118728250       -5.6030144120  CLST         315          1.0000000000
       946       316  TIP3  OH2         -13.3110094419       -3.9490124679       -5.4668115368  CLST         316          1.0000000000
       947       316  TIP3  H1          -12.5959309735       -4.3596712742       -6.0157217927  CLST         316          1.0000000000
       948       316  TIP3  H2          -12.8525586410       -3.0568340851       -5.4656662385  CLST         316          1.0000000000
       949       317  TIP3  OH2          -6.1182892428       -0.2088605864       -3.8319440057  CLST         317          1.0000000000
       950       317  TIP3  H1           -5.2546681312       -0.1839123162       -3.3094321807  CLST         317          1.0000000000
       951       317  TIP3  H2           -6.6759624049       -0.0331228682       -3.0106387204  CLST         317          1.0000000000
       952       318  TIP3  OH2          -4.0203986490       -9.6154692932       -9.4165491097  CLST         318          1.0000000000
       953       318  TIP3  H1           -4.0200755497       -9.8632754529       -8.4653934359  CLST         318          1.0000000000
       954       318  TIP3  H2           -3.0382821856       -9.4348617824       -9.4397958777  CLST         318          1.0000000000
       955       319  TIP3  OH2           5.5423919298       10.7625729733        8.7001086968  CLST         319          1.0000000000
       956       319  TIP3  H1            6.4570387909       10.6923836609        8.3038818500  CLST         319          1.0000000000
       957       319  TIP3  H2            5.5860011705       11.5797949304        9.2146753543  CLST         319          1.0000000000
       958       320  TIP3  OH2         -10.6921982812        1.0361133548      -14.3887583577  CLST         320          1.0000000000
       959       320  TIP3  H1           -9.7475395663        1.0015834487      -14.7082932126  CLST         320          1.0000000000
       960       320  TIP3  H2          -10.5780644346        0.0976978378      -14.0197322624  CLST         320          1.0000000000
       961       321  TIP3  OH2         -10.0027961588       10.1478799504       -9.9022354440  CLST         321          1.0000000000
       962       321  TIP3  H1          -10.7564830292        9.6460534544       -9.8118475262  CLST         321          1.0000000000
       963       321  TIP3  H2          -10.0687907644       10.3016707748      -10.8969603087  CLST         321          1.0000000000
       964       322  TIP3  OH2         -12.6742085085       -1.6619420887       -2.4156094519  CLST         322          1.0000000000
       965       322  TIP3  H1          -12.3130174789       -1.2945854921       -3.2551674717  CLST         322          1.0000000000
       966       322  TIP3  H2          -11.7745574369       -1.6403699668       -1.9839550946  CLST         322          1.0000000000
       967       323  TIP3  OH2          -1.1250276996        4.0318346641        4.2186324699  CLST         323          1.0000000000
       968       323  TIP3  H1           -0.6912059239        3.1597533594        4.2742944080  CLST         323          1.0000000000
       969       323  TIP3  H2           -1.1193048873        4.2133155275        3.2498228879  CLST         323          1.0000000000
       970       324  TIP3  OH2         -11.0060363976        6.1994074842        1.3885509111  CLST         324          1.0000000000
       971       324  TIP3  H1          -11.2396947871        5.6092064696        2.1545511959  CLST         324          1.0000000000
       972       324  TIP3  H2          -10.2772894159        6.7148977873        1.8342481160  CLST         324          1.0000000000
       973       325  TIP3  OH2          -4.6361997406        0.7890186953        3.5507082685  CLST         325          1.0000000000
       974       325  TIP3  H1           -5.6629288697        0.8128764952        3.6108597021  CLST         325          1.0000000000
       975       325  TIP3  H2           -4.4739658264        1.6164537056        3.1176704332  CLST         325          1.0000000000
       976       326  TIP3  OH2           8.9893736279        8.5441612320       -2.8502582357  CLST         326          1.0000000000
       977       326  TIP3  H1            8.8787251469        7.9785636948       -2.0348757564  CLST         326          1.0000000000
       978       326  TIP3  H2            8.2212848560        8.2936481721       -3.3927614063  CLST         326          1.0000000000
       979       327  TIP3  OH2          10.5314504045       -3.6809294986      -13.0338644416  CLST         327          1.0000000000
       980       327  TIP3  H1           10.3790081959       -3.5925937875      -13.9395889934  CLST         327          1.0000000000
       981       327  TIP3  H2           10.2606716657       -2.9934336370      -12.4312527613  CLST         327          1.0000000000
       982       328  TIP3  OH2           2.1784826963        6.9590423667       -9.8143989449  CLST         328          1.0000000000
       983       328  TIP3  H1            2.4448008808        6.2355485597       -9.2080719112  CLST         328          1.0000000000
       984       328  TIP3  H2            3.0359975409        7.3592277163      -10.0060276562  CLST         328          1.0000000000
       985       329  TIP3  OH2           1.4300244593      -11.7025790110       -2.2256551330  CLST         329          1.0000000000
       986       329  TIP3  H1            1.5485002862      -10.7127225821       -2.4772106810  CLST         329          1.0000000000
       987       329  TIP3  H2            2.2787471343      -11.6380525965       -1.6581775199  CLST         329          1.0000000000
       988       330  TIP3  OH2          -9.5496167508       -0.9279920628        3.3776859348  CLST         330          1.0000000000
       989       330  TIP3  H1           -9.6898768732       -1.8987905870        3.4510109991  CLST         330          1.0000000000
       990       330  TIP3  H2          -10.3829199877       -0.6677532791        3.8204136951  CLST         330          1.0000000000
       991       331  TIP3  OH2          12.4302299424        9.7305949157       -9.1470537205  CLST         331          1.0000000000
       992       331  TIP3  H1           13.2038793240        9.6739739246       -9.5884363096  CLST         331          1.0000000000
       993       331  TIP3  H2           12.0369700384        8.8002716950       -9.0020325453  CLST         331          1.0000000000
       994       332  TIP3  OH2          11.2693127786       -1.2323725339       -4.5311094075  CLST         332          1.0000000000
       995       332  TIP3  H1           12.1825084043       -1.5200949860       -4.8429610317  CLST         332          1.0000000000
       996       332  TIP3  H2           11.5019668190       -0.5158119438       -3.9301357180  CLST         332          1.0000000000
       997       333  TIP3  OH2          10.7843990608      -14.2995188426        8.0460753316  CLST         333          1.0000000000
       998       333  TIP3  H1            9.8324655552      -13.9715531407        8.2094070327  CLST         333          1.0000000000
       999       333  TIP3  H2           10.8084943113      -14.1901883993        7.0364054451  CLST         333          1.0000000000
      1000       334  TIP3  OH2         -10.6015816347       -9.6951851815        9.1676833158  CLST         334          1.0000000000
      1001       334  TIP3  H1          -11.3853145231      -10.1511952227        8.6937847233  CLST         334          1.0000000000
      1002       334  TIP3  H2           -9.9114321855       -9.8972541545        8.4841174231  CLST         334          1.0000000000
      1003       335  TIP3  OH2           6.8723152251       -9.9784878306        1.2937947871  CLST         335          1.0000000000
      1004       335  TIP3  H1            6.7823460634       -9.8830432130        2.2417688991  CLST         335          1.0000000000
      1005       335  TIP3  H2            5.9267550469      -10.0735665919        1.0452229553  CLST         335          1.0000000000
      1006       336  TIP3  OH2          -9.3380824253       -3.8020128639       -3.7458068157  CLST         336          1.0000000000
      1007       336  TIP3  H1           -9.7655029600       -4.5987187150       -4.1144133909  CLST         336          1.0000000000
      1008       336  TIP3  H2           -9.3990780344       -3.2977186368       -4.5942704715  CLST         336          1.0000000000
      1009       337  TIP3  OH2          -1.6528066754       -5.0496534432        8.1632928023  CLST         337          1.0000000000
      1010       337  TIP3  H1           -1.4350538795       -4.4938182638        8.9461308281  CLST         337          1.0000000000
      1011       337  TIP3  H2           -2.0787809900       -4.2562399577        7.7407289388  CLST         337          1.0000000000
      1012       338  TIP3  OH2          -0.4986577930        2.7262548940       10.6784365919  CLST         338          1.0000000000
      1013       338  TIP3  H1           -0.5329458506        2.5511062915        9.6788382131  CLST         338          1.0000000000
      1014       338  TIP3  H2            0.1769532291        2.1470144175       10.9645971402  CLST         338          1.0000000000
      1015       339  TIP3  OH2           7.9334172023        8.0665840691        2.8301202147  CLST         339          1.0000000000
      1016       339  TIP3  H1            7.4453895126        8.6703789054        3.4841261753  CLST         339          1.0000000000
      1017       339  TIP3  H2            7.2486563883        7.8821456661        2.1672047528  CLST         339          1.0000000000
      1018       340  TIP3  OH2          -4.6488724094      -11.8144999459      -11.2373082819  CLST         340          1.0000000000
      1019       340  TIP3  H1           -4.4326477787      -11.1055582377      -10.5365991221  CLST         340          1.0000000000
      1020       340  TIP3  H2           -4.0570298277      -12.5165723283      -11.0195859587  CLST         340          1.0000000000
      1021       341  TIP3  OH2          -6.7166499341        4.6900847076        9.3862061564  CLST         341          1.0000000000
      1022       341  TIP3  H1           -5.7807951737        4.6261152175        9.7530157176  CLST         341          1.0000000000
      1023       341  TIP3  H2           -6.9097721905        3.7526610853        9.2964114766  CLST         341          1.0000000000
      1024       342  TIP3  OH2          -4.4719340918      -10.9778935543       13.8635883885  CLST         342          1.0000000000
      1025       342  TIP3  H1           -5.2824362649      -10.8761268718       13.2369516001  CLST         342          1.0000000000
      1026       342  TIP3  H2           -4.5422534037      -11.1124073724       14.6679543655  CLST         342          1.0000000000
      1027       343  TIP3  OH2           1.4273792626       -9.0126674268       -9.9980133418  CLST         343          1.0000000000
      1028       343  TIP3  H1            1.3864735159       -8.0876765939      -10.4018917985  CLST         343          1.0000000000
      1029       343  TIP3  H2            1.4753724758       -9.5526023980      -10.8082710655  CLST         343          1.0000000000
      1030       344  TIP3  OH2           5.4077508402       -3.9711067165        6.5030532649  CLST         344          1.0000000000
      1031       344  TIP3  H1            4.7154032826       -4.4896532106        7.0692836841  CLST         344          1.0000000000
      1032       344  TIP3  H2            5.8253048923       -4.7038453764        5.9257934555  CLST         344          1.0000000000
      1033       345  TIP3  OH2          13.1605910384        7.2336335466        8.8158967017  CLST         345          1.0000000000
      1034       345  TIP3  H1           12.4002548555        6.7554255005        8.4383069964  CLST         345          1.0000000000
      1035       345  TIP3  H2           12.7421123301        7.3396671865        9.7166678857  CLST         345          1.0000000000
      1036       346  TIP3  OH2           9.5878606498        9.4002381065        0.9158959501  CLST         346          1.0000000000
      1037       346  TIP3  H1            9.7475924954       10.1494088427        1.5331801182  CLST         346          1.0000000000
      1038       346  TIP3  H2            9.0617854233        8.8502389350        1.5825760331  CLST         346          1.0000000000
      1039       347  TIP3  OH2          -4.8348875194        2.9103400962       -9.5738351438  CLST         347          1.0000000000
      1040       347  TIP3  H1           -5.6137048728        3.2793211008       -9.0832684397  CLST         347          1.0000000000
      1041       347  TIP3  H2           -4.3552787795        2.4852108012       -8.8232538909  CLST         347          1.0000000000
      1042       348  TIP3  OH2          -1.1452588093        6.1387509295        5.7379527059  CLST         348          1.0000000000
      1043       348  TIP3  H1           -1.3849286410        5.2772924748        5.2479440983  CLST         348          1.0000000000
      1044       348  TIP3  H2           -0.4856301337        6.5104227002        5.0663428459  CLST         348          1.0000000000
      1045       349  TIP3  OH2          -4.0458486479        5.1034964111       -2.4842753776  CLST         349          1.0000000000
      1046       349  TIP3  H1           -3.7822166453        4.5352959884       -3.2263164102  CLST         349          1.0000000000
      1047       349  TIP3  H2           -3.2595290263        5.7369346196       -2.5909682963  CLST         349          1.0000000000
      1048       350  TIP3  OH2          -2.4971133150        8.9595860364        5.0844900692  CLST         350          1.0000000000
      1049       350  TIP3  H1           -3.0656659680        8.7337066299        4.2991116348  CLST         350          1.0000000000
      1050       350  TIP3  H2           -2.5850649492        8.1114549742        5.5261397778  CLST         350          1.0000000000
      1051       351  TIP3  OH2           4.8104137175       -7.6196765306       -7.7486800543  CLST         351          1.0000000000
      1052       351  TIP3  H1            4.1474752476       -8.3607742408       -7.6853400532  CLST         351          1.0000000000
      1053       351  TIP3  H2            4.7708658675       -7.3994803861       -8.7139755043  CLST         351          1.0000000000
      1054       352  TIP3  OH2         -10.3671265355      -10.8552824084        1.7976824853  CLST         352          1.0000000000
      1055       352  TIP3  H1           -9.4731063545      -10.7101180247        1.4907526240  CLST         352          1.0000000000
      1056       352  TIP3  H2          -10.9450359403      -10.2610494896        1.2256819614  CLST         352          1.0000000000
      1057       353  TIP3  OH2          10.8076030322       -8.1589481214       -8.6945424977  CLST         353          1.0000000000
      1058       353  TIP3  H1            9.8944530275       -8.5211757475       -8.8129025607  CLST         353          1.0000000000
      1059       353  TIP3  H2           10.8837252851       -8.0145806370       -7.7441346621  CLST         353          1.0000000000
      1060       354  TIP3  OH2           6.7607202690      -10.6373417213        4.1057719399  CLST         354          1.0000000000
      1061       354  TIP3  H1            7.5304647917      -10.9006602389        4.6990764897  CLST         354          1.0000000000
      1062       354  TIP3  H2            6.5006415366       -9.9245388356        4.7367935060  CLST         354          1.0000000000
      1063       355  TIP3  OH2          -7.1254790052        8.8896602251       -8.8075452065  CLST         355          1.0000000000
      1064       355  TIP3  H1           -6.7805756058        9.7815053178       -8.7224557049  CLST         355          1.0000000000
      1065       355  TIP3  H2           -8.0635402455        9.1206915285       -8.9519491967  CLST         355          1.0000000000
      1066       356  TIP3  OH2          12.4942421245        0.9086837184       -2.0804091382  CLST         356          1.0000000000
      1067       356  TIP3  H1           11.5220644063        0.8101556422       -2.1971028652  CLST         356          1.0000000000
      1068       356  TIP3  H2           12.6918907901        0.9229792705       -1.1255153782  CLST         356          1.0000000000
      1069       357  TIP3  OH2          -0.6182024301       -0.5668775451       -1.9483948908  CLST         357          1.0000000000
      1070       357  TIP3  H1            0.2517125942       -0.9964071485       -2.1243868978  CLST         357          1.0000000000
      1071       357  TIP3  H2           -0.7727621729       -0.3790878325       -2.9294959793  CLST         357          1.0000000000
      1072       358  TIP3  OH2          -5.7055788539        7.0496433020       -7.5326536274  CLST         358          1.0000000000
      1073       358  TIP3  H1           -6.1495681200        7.7687515344       -8.0731632865  CLST         358          1.0000000000
      1074       358  TIP3  H2           -6.4923945094        6.5854602813       -7.1502337455  CLST         358          1.0000000000
      1075       359  TIP3  OH2          -5.1704361438       12.2251907826        6.1308794283  CLST         359          1.0000000000
      1076       359  TIP3  H1           -5.4442377238       12.0591943086        5.2264826537  CLST         359          1.0000000000
      1077       359  TIP3  H2           -4.1796363836       12.2762256719        6.0479575585  CLST         359          1.0000000000
      1078       360  TIP3  OH2          -6.7716707006        5.9797327209       -3.1960268041  CLST         360          1.0000000000
      1079       360  TIP3  H1           -6.7390507600        6.6756982069       -2.5219076006  CLST         360          1.0000000000
      1080       360  TIP3  H2           -5.8492039836        5.6367927708       -3.0255259120  CLST         360          1.0000000000
      1081       361  TIP3  OH2          -1.5762353763       -1.1423522569        9.8875102188  CLST         361          1.0000000000
      1082       361  TIP3  H1           -1.5424480452       -0.4829832343       10.6717306950  CLST         361          1.0000000000
      1083       361  TIP3  H2           -1.6399777339       -1.9643703509       10.4348010625  CLST         361          1.0000000000
      1084       362  TIP3  OH2         -10.5822552351        2.9169045312        0.6513967720  CLST         362          1.0000000000
      1085       362  TIP3  H1          -10.5172074307        3.5610709029       -0.0988663538  CLST         362          1.0000000000
      1086       362  TIP3  H2          -10.9980266571        2.2131879873        0.1279245787  CLST         362          1.0000000000
      1087       363  TIP3  OH2          10.5097042493        2.4661423115       10.3010221905  CLST         363          1.0000000000
      1088       363  TIP3  H1           10.9508251672        1.5447335094       10.2656284177  CLST         363          1.0000000000
      1089       363  TIP3  H2           10.9656268382        3.2431373639       10.1878973874  CLST         363          1.0000000000
      1090       364  TIP3  OH2           7.7518955107       -5.6021740739       -6.1490121094  CLST         364          1.0000000000
      1091       364  TIP3  H1            6.9095347355       -5.2309308099       -6.5470315606  CLST         364          1.0000000000
      1092       364  TIP3  H2            8.3150458126       -5.6737728190       -6.9935252695  CLST         364          1.0000000000
      1093       365  TIP3  OH2          -6.1496586167       -6.8461643942        2.5456056613  CLST         365          1.0000000000
      1094       365  TIP3  H1           -6.7124641238       -6.0291656475        2.5524077730  CLST         365          1.0000000000
      1095       365  TIP3  H2           -6.9017748405       -7.4001405911        2.9477205265  CLST         365          1.0000000000
      1096       366  TIP3  OH2           1.9334196500       -1.4150664978       -2.9921662548  CLST         366          1.0000000000
      1097       366  TIP3  H1            2.8477052924       -1.3938291166       -2.6396642788  CLST         366          1.0000000000
      1098       366  TIP3  H2            2.0940262620       -1.0630053700       -3.9028919291  CLST         366          1.0000000000
      1099       367  TIP3  OH2          -5.2971177232       11.6588310601       12.4228798880  CLST         367          1.0000000000
      1100       367  TIP3  H1           -6.0825315662       11.9190341791       11.8772331103  CLST         367          1.0000000000
      1101       367  TIP3  H2           -5.3796389112       12.1840454830       13.1565623312  CLST         367          1.0000000000
      1102       368  TIP3  OH2          -2.6779948525        6.5337313045        1.2079352249  CLST         368          1.0000000000
      1103       368  TIP3  H1           -2.7486792930        7.3441135617        0.6346782787  CLST         368          1.0000000000
      1104       368  TIP3  H2           -3.1590615743        6.9112325343        2.0000460122  CLST         368          1.0000000000
      1105       369  TIP3  OH2         -11.5939808228       -1.7351952420       -6.3817539075  CLST         369          1.0000000000
      1106       369  TIP3  H1          -10.7145286088       -2.1677203872       -6.4671270287  CLST         369          1.0000000000
      1107       369  TIP3  H2          -11.8424059184       -2.0341104427       -7.3178232962  CLST         369          1.0000000000
      1108       370  TIP3  OH2         -12.0551900790        5.6123926230      -11.6515487419  CLST         370          1.0000000000
      1109       370  TIP3  H1          -12.0490594770        4.9105516232      -12.3475849869  CLST         370          1.0000000000
      1110       370  TIP3  H2          -12.9709385000        5.4464000832      -11.5100197385  CLST         370          1.0000000000
      1111       371  TIP3  OH2           2.1541943270        7.8026036476        5.8830200281  CLST         371          1.0000000000
      1112       371  TIP3  H1            2.1166179987        7.7036450749        6.8708948854  CLST         371          1.0000000000
      1113       371  TIP3  H2            3.0935781350        7.5558182820        5.7624120125  CLST         371          1.0000000000
      1114       372  TIP3  OH2           7.9823241897       -7.3711198487        9.1319117433  CLST         372          1.0000000000
      1115       372  TIP3  H1            8.5827784509       -7.4952635495        8.3584374178  CLST         372          1.0000000000
      1116       372  TIP3  H2            8.6050681054       -7.6251548288        9.8769614929  CLST         372          1.0000000000
      1117       373  TIP3  OH2          11.1212112792       -0.4154610239        6.5777498140  CLST         373          1.0000000000
      1118       373  TIP3  H1           11.2584409142        0.5084748196        6.3035921460  CLST         373          1.0000000000
      1119       373  TIP3  H2           10.5102802649       -0.5235009346        5.8724507755  CLST         373          1.0000000000
      1120       374  TIP3  OH2          -9.3430807713        4.6358131591      -12.2175427806  CLST         374          1.0000000000
      1121       374  TIP3  H1           -9.4752090387        5.3457844355      -12.8178158896  CLST         374          1.0000000000
      1122       374  TIP3  H2           -9.9556785325        4.9389158302      -11.5349558642  CLST         374          1.0000000000
      1123       375  TIP3  OH2           9.8042127531       -5.4744936051       -2.8309183495  CLST         375          1.0000000000
      1124       375  TIP3  H1           10.2224362557       -5.2028152959       -3.6833916481  CLST         375          1.0000000000
      1125       375  TIP3  H2           10.2728520046       -6.3375961695       -2.7500161788  CLST         375          1.0000000000
      1126       376  TIP3  OH2          -2.3957141337      -11.1953097326       11.9109053742  CLST         376          1.0000000000
      1127       376  TIP3  H1           -3.0437016004      -10.9263847375       12.6189869309  CLST         376          1.0000000000
      1128       376  TIP3  H2           -2.9770653094      -11.6865543733       11.2910171654  CLST         376          1.0000000000
      1129       377  TIP3  OH2         -10.0525906667       12.9982980606       10.5446214986  CLST         377          1.0000000000
      1130       377  TIP3  H1           -9.1740932976       12.7128147817       10.9625615630  CLST         377          1.0000000000
      1131       377  TIP3  H2           -9.7232914508       12.9907026359        9.5914952025  CLST         377          1.0000000000
      1132       378  TIP3  OH2           2.1158781990       -7.9676278550        7.3799987308  CLST         378          1.0000000000
      1133       378  TIP3  H1            2.3153030858       -7.0253525513        7.4057991412  CLST         378          1.0000000000
      1134       378  TIP3  H2            1.4298162169       -8.1213405929        8.0664672280  CLST         378          1.0000000000
      1135       379  TIP3  OH2          -9.4337631936        9.3536300584       -1.1375794708  CLST         379          1.0000000000
      1136       379  TIP3  H1           -8.8101981122        9.5803894517       -0.3886430343  CLST         379          1.0000000000
      1137       379  TIP3  H2           -9.7094927449       10.2809759109       -1.4704965648  CLST         379          1.0000000000
      1138       380  TIP3  OH2           3.0397767428       -4.1010935697      -11.2424427329  CLST         380          1.0000000000
      1139       380  TIP3  H1            2.5737230652       -3.4034726767      -11.8697660817  CLST         380          1.0000000000
      1140       380  TIP3  H2            3.1680393020       -4.6941557708      -12.0375198714  CLST         380          1.0000000000
      1141       381  TIP3  OH2          10.0087684926        4.2727049101        3.3780179849  CLST         381          1.0000000000
      1142       381  TIP3  H1            9.1814095227        4.6431700553        3.7661394397  CLST         381          1.0000000000
      1143       381  TIP3  H2           10.6443131181        4.9174548435        3.8070047836  CLST         381          1.0000000000
      1144       382  TIP3  OH2           1.9884305794       -5.2708820638        5.8641702956  CLST         382          1.0000000000
      1145       382  TIP3  H1            2.3581942620       -4.9187823542        6.7174220205  CLST         382          1.0000000000
      1146       382  TIP3  H2            2.7514636379       -5.8596264358        5.5811524474  CLST         382          1.0000000000
      1147       383  TIP3  OH2          10.2563058600        8.9653226019        4.8394402721  CLST         383          1.0000000000
      1148       383  TIP3  H1            9.4833204368        9.2453673170        4.3015878940  CLST         383          1.0000000000
      1149       383  TIP3  H2           10.4440815401        9.8716091518        5.1715402345  CLST         383          1.0000000000
      1150       384  TIP3  OH2          -3.1809213021       -1.8651682259       -8.3305778461  CLST         384          1.0000000000
      1151       384  TIP3  H1           -2.6824037786       -2.7343132593       -8.4415575683  CLST         384          1.0000000000
      1152       384  TIP3  H2           -2.4797372778       -1.5085869585       -7.7344652061  CLST         384          1.0000000000
      1153       385  TIP3  OH2           3.5713796402      -11.6182994235       -0.7530658478  CLST         385          1.0000000000
      1154       385  TIP3  H1            4.4487950582      -12.1577376892       -0.7140081505  CLST         385          1.0000000000
      1155       385  TIP3  H2            3.8083409075      -11.0684676728        0.0265725154  CLST         385          1.0000000000
      1156       386  TIP3  OH2          -4.3306913927        9.3241024677       -6.1038659802  CLST         386          1.0000000000
      1157       386  TIP3  H1           -4.8635249684        8.5390528308       -6.3600601494  CLST         386          1.0000000000
      1158       386  TIP3  H2           -4.2812727590        9.8069532549       -6.9705671770  CLST         386          1.0000000000
      1159       387  TIP3  OH2          -9.7471932854       10.6720445091        2.8452986891  CLST         387          1.0000000000
      1160       387  TIP3  H1          -10.5943800508       10.5176661556        2.3266928098  CLST         387          1.0000000000
      1161       387  TIP3  H2           -9.0972022002       10.3398286714        2.1801492246  CLST         387          1.0000000000
      1162       388  TIP3  OH2          -1.8158090441      -12.2620683294        5.9024131711  CLST         388          1.0000000000
      1163       388  TIP3  H1           -2.0416747467      -11.3863759237        5.5214369679  CLST         388          1.0000000000
      1164       388  TIP3  H2           -2.0066583892      -12.0472502150        6.8891831938  CLST         388          1.0000000000
      1165       389  TIP3  OH2          -8.0475213812        3.4031921321       -3.5754255196  CLST         389          1.0000000000
      1166       389  TIP3  H1           -7.7209874890        4.2195479375       -3.1265792010  CLST         389          1.0000000000
      1167       389  TIP3  H2           -8.8677694359        3.7222604787       -3.9906969356  CLST         389          1.0000000000
      1168       390  TIP3  OH2          -5.8737181397       -3.9250743052        4.5800111735  CLST         390          1.0000000000
      1169       390  TIP3  H1           -5.2655265426       -3.1005091461        4.6602540156  CLST         390          1.0000000000
      1170       390  TIP3  H2           -5.3544335774       -4.3256190046        3.8845730649  CLST         390          1.0000000000
      1171       391  TIP3  OH2          -8.6500506513       -8.8784597497       -6.1855300806  CLST         391          1.0000000000
      1172       391  TIP3  H1           -9.3564552300       -9.3053182893       -6.6959500321  CLST         391          1.0000000000
      1173       391  TIP3  H2           -8.0246042769       -9.5874779998       -6.0002046013  CLST         391          1.0000000000
      1174       392  TIP3  OH2           1.0225923582       -1.9268094765       10.1487066192  CLST         392          1.0000000000
      1175       392  TIP3  H1            0.2835818546       -2.5790529051       10.3259022852  CLST         392          1.0000000000
      1176       392  TIP3  H2            0.4216201017       -1.1970019724        9.8444388186  CLST         392          1.0000000000
      1177       393  TIP3  OH2          10.9767150197      -12.2626848195       -0.6986666998  CLST         393          1.0000000000
      1178       393  TIP3  H1           11.4775412200      -11.3802168577       -0.7478104363  CLST         393          1.0000000000
      1179       393  TIP3  H2           11.2639149164      -12.7515322234       -1.3828759099  CLST         393          1.0000000000
      1180       394  TIP3  OH2           0.5710787648       11.7944975698       -8.6168620072  CLST         394          1.0000000000
      1181       394  TIP3  H1            1.2572462775       12.2367150954       -8.0286138144  CLST         394          1.0000000000
      1182       394  TIP3  H2            0.7520043475       10.8662061169       -8.2962230226  CLST         394          1.0000000000
      1183       395  TIP3  OH2           6.9012579221        7.5274098543       -4.4589827340  CLST         395          1.0000000000
      1184       395  TIP3  H1            5.9496379568        7.9734425441       -4.4999443974  CLST         395          1.0000000000
      1185       395  TIP3  H2            6.8029776601        7.1294418090       -5.4044017108  CLST         395          1.0000000000
      1186       396  TIP3  OH2          -1.0934736169       -9.8736642777       -9.0664965004  CLST         396          1.0000000000
      1187       396  TIP3  H1           -1.1712090225       -9.6722476231       -8.0833059435  CLST         396          1.0000000000
      1188       396  TIP3  H2           -0.2211355516       -9.4733602651       -9.2797871396  CLST         396          1.0000000000
      1189       397  TIP3  OH2          11.3549565224        7.3470068064       -9.0373662949  CLST         397          1.0000000000
      1190       397  TIP3  H1           11.8843137058        6.7981049857       -8.4052496474  CLST         397          1.0000000000
      1191       397  TIP3  H2           10.5215497519        7.3797352954       -8.4725379380  CLST         397          1.0000000000
      1192       398  TIP3  OH2          10.6862958940        7.8533781061       -4.9664194736  CLST         398          1.0000000000
      1193       398  TIP3  H1           10.0487385073        8.1736822804       -4.2520785291  CLST         398          1.0000000000
      1194       398  TIP3  H2           11.2159607545        7.3032242286       -4.3257491929  CLST         398          1.0000000000
      1195       399  TIP3  OH2           1.8401460730       11.1402979688        4.9642024249  CLST         399          1.0000000000
      1196       399  TIP3  H1            1.1581186474       10.5095438180        5.2849031210  CLST         399          1.0000000000
      1197       399  TIP3  H2            2.4323790099       11.0458338020        5.7638709629  CLST         399          1.0000000000
      1198       400  TIP3  OH2           3.9961736817       -3.0543870481       -5.0564166981  CLST         400          1.0000000000
      1199       400  TIP3  H1            4.7998332979       -2.8004832731       -4.5659883242  CLST         400          1.0000000000
      1200       400  TIP3  H2            4.4647822887       -3.5553122125       -5.8172658158  CLST         400          1.0000000000
      1201       401  TIP3  OH2         -15.1399194780       10.0454409841        5.5274038454  CLST         401          1.0000000000
      1202       401  TIP3  H1          -14.4968477782       10.2393934063        6.2906092549  CLST         401          1.0000000000
      1203       401  TIP3  H2          -15.8840961276        9.6746964994        6.0458871994  CLST         401          1.0000000000
      1204       402  TIP3  OH2           2.0898022917       -1.6550939307       12.9084413546  CLST         402          1.0000000000
      1205       402  TIP3  H1            1.7131968810       -2.5162548907       13.1150557267  CLST         402          1.0000000000
      1206       402  TIP3  H2            1.9415920859       -1.6035027437       11.9593978023  CLST         402          1.0000000000
      1207       403  TIP3  OH2          -2.1352029454       -6.9124887780       -0.9005020754  CLST         403          1.0000000000
      1208       403  TIP3  H1           -1.9863770299       -6.4391732623       -1.6607094480  CLST         403          1.0000000000
      1209       403  TIP3  H2           -1.9916718120       -8.4728181754       -1.7453217225  CLST         403          1.0000000000
      1210       404  TIP3  OH2          -4.9170426330       -2.5088776802        9.2474607171  CLST         404          1.0000000000
      1211       404  TIP3  H1           -4.9755383886       -3.0178288917       10.0766081950  CLST         404          1.0000000000
      1212       404  TIP3  H2           -5.2565409043       -3.2515259835        8.6333874739  CLST         404          1.0000000000
      1213       405  TIP3  OH2         -11.9695804387        7.0674916784       11.3487568529  CLST         405          1.0000000000
      1214       405  TIP3  H1          -11.8143270585        6.2669768174       10.8384798532  CLST         405          1.0000000000
      1215       405  TIP3  H2          -12.7312928289        6.8852833810       11.7251913623  CLST         405          1.0000000000
      1216       406  TIP3  OH2           1.0432650149        7.6426661141      -12.1221159376  CLST         406          1.0000000000
      1217       406  TIP3  H1            1.1966367120        8.6013417208      -12.3626158549  CLST         406          1.0000000000
      1218       406  TIP3  H2            1.4879219877        7.4945826416      -11.2369174639  CLST         406          1.0000000000
      1219       407  TIP3  OH2          10.3059564655      -13.3244332114        5.1355590716  CLST         407          1.0000000000
      1220       407  TIP3  H1           10.2663608020      -13.2315991834        4.1665606118  CLST         407          1.0000000000
      1221       407  TIP3  H2           11.1237278585      -12.7450059802        5.2134890746  CLST         407          1.0000000000
      1222       408  TIP3  OH2          -3.0486434554      -11.5693942895        1.9702969380  CLST         408          1.0000000000
      1223       408  TIP3  H1           -2.2568714428      -11.0054448475        1.7275813610  CLST         408          1.0000000000
      1224       408  TIP3  H2           -2.5611279564      -12.3834103291        2.2082834814  CLST         408          1.0000000000
      1225       409  TIP3  OH2           1.1825205811       -9.5306938556        9.7548035208  CLST         409          1.0000000000
      1226       409  TIP3  H1            0.7336407420       -9.5544416778       10.6234376569  CLST         409          1.0000000000
      1227       409  TIP3  H2            1.6228323395      -10.3787686609        9.7417834598  CLST         409          1.0000000000
      1228       410  TIP3  OH2           9.7859108807       -7.1773570930       -5.2601615096  CLST         410          1.0000000000
      1229       410  TIP3  H1            8.9909608671       -6.7112923826       -5.6416398892  CLST         410          1.0000000000
      1230       410  TIP3  H2           10.3660513168       -6.4424068570       -5.4433735168  CLST         410          1.0000000000
      1231       411  TIP3  OH2         -10.0110863097       -2.3215810762       -1.3168732219  CLST         411          1.0000000000
      1232       411  TIP3  H1           -9.3303696665       -2.1433505940       -0.7477187982  CLST         411          1.0000000000
      1233       411  TIP3  H2           -9.5492319348       -2.7282063741       -2.0836785975  CLST         411          1.0000000000
      1234       412  TIP3  OH2           6.7738258760      -10.4694388947      -12.0162271296  CLST         412          1.0000000000
      1235       412  TIP3  H1            6.2050400245      -10.7999344416      -11.2890000498  CLST         412          1.0000000000
      1236       412  TIP3  H2            7.5673206758      -11.0617569171      -11.8661725656  CLST         412          1.0000000000
      1237       413  TIP3  OH2           7.0585074777       13.0583746700        0.3516294692  CLST         413          1.0000000000
      1238       413  TIP3  H1            7.7056839079       12.4500252025       -0.1220421722  CLST         413          1.0000000000
      1239       413  TIP3  H2            7.7343615108       13.5191022095        0.8960109578  CLST         413          1.0000000000
      1240       414  TIP3  OH2           1.4760217410       -2.5383560561      -12.4827960293  CLST         414          1.0000000000
      1241       414  TIP3  H1            0.6987440563       -2.0483292125      -12.2772783008  CLST         414          1.0000000000
      1242       414  TIP3  H2            1.4401877542       -2.8350201380      -13.3788891401  CLST         414          1.0000000000
      1243       415  TIP3  OH2           4.0265109474        5.2438385442       -8.3486445901  CLST         415          1.0000000000
      1244       415  TIP3  H1            3.4708884171        4.4284740342       -8.0954194674  CLST         415          1.0000000000
      1245       415  TIP3  H2            4.5866369179        4.6959539734       -8.9968780949  CLST         415          1.0000000000
      1246       416  TIP3  OH2           5.5470274167       12.3407692177       -7.7206896968  CLST         416          1.0000000000
      1247       416  TIP3  H1            5.4773131379       13.2019061118       -7.9521594385  CLST         416          1.0000000000
      1248       416  TIP3  H2            6.4657887625       12.2235456572       -8.1803528237  CLST         416          1.0000000000
      1249       417  TIP3  OH2          12.5192997403      -11.1086401843        2.6174089981  CLST         417          1.0000000000
      1250       417  TIP3  H1           11.9222959688      -11.7267844024        2.2124251347  CLST         417          1.0000000000
      1251       417  TIP3  H2           12.3899996847      -10.2558735405        2.1106908053  CLST         417          1.0000000000
      1252       418  TIP3  OH2          -9.1275053020       -1.5558308946        8.2696252975  CLST         418          1.0000000000
      1253       418  TIP3  H1           -8.5275566290       -1.1170047822        7.6273171375  CLST         418          1.0000000000
      1254       418  TIP3  H2           -9.3554962066       -0.8581091669        8.8936354619  CLST         418          1.0000000000
      1255       419  TIP3  OH2          14.4313728250        0.2306778939       -6.0994507415  CLST         419          1.0000000000
      1256       419  TIP3  H1           15.0418041185        0.8748839022       -4.7619650293  CLST         419          1.0000000000
      1257       419  TIP3  H2           15.8840961276        0.5497250594       -6.0595065256  CLST         419          1.0000000000
      1258       420  TIP3  OH2          -8.2849493703       -8.2667433355        3.5652413687  CLST         420          1.0000000000
      1259       420  TIP3  H1           -9.0132084657       -8.0499696875        2.8959874480  CLST         420          1.0000000000
      1260       420  TIP3  H2           -8.5487730734       -9.1879834214        3.8056529877  CLST         420          1.0000000000
      1261       421  TIP3  OH2           3.4716646104       -6.3009540069      -13.4106955041  CLST         421          1.0000000000
      1262       421  TIP3  H1            4.3526913055       -6.6715396408      -13.2937031560  CLST         421          1.0000000000
      1263       421  TIP3  H2            3.0772424800       -7.2149634048      -13.5496330708  CLST         421          1.0000000000
      1264       422  TIP3  OH2          -1.8644918464       -9.3542842738       -1.7670958407  CLST         422          1.0000000000
      1265       422  TIP3  H1           -1.1790776407      -10.0677174412       -1.8257271037  CLST         422          1.0000000000
      1266       422  TIP3  H2           -2.6552438878      -10.0834771098       -1.7832983135  CLST         422          1.0000000000
      1267       423  TIP3  OH2           1.7302454630        4.8815569283       -3.9860435573  CLST         423          1.0000000000
      1268       423  TIP3  H1            2.5162218025        5.3812493735       -4.4391459491  CLST         423          1.0000000000
      1269       423  TIP3  H2            2.1681951606        4.6712807633       -3.1417810980  CLST         423          1.0000000000
      1270       424  TIP3  OH2          -9.0808660457        4.5112126250        4.3675927929  CLST         424          1.0000000000
      1271       424  TIP3  H1           -9.0302646557        3.8831650461        3.6413481778  CLST         424          1.0000000000
      1272       424  TIP3  H2           -8.5843503923        5.2962681403        4.1290090046  CLST         424          1.0000000000
      1273       425  TIP3  OH2           8.2997998288      -12.7076664442        8.3196851366  CLST         425          1.0000000000
      1274       425  TIP3  H1            8.2380900907      -12.1486156615        7.4887449112  CLST         425          1.0000000000
      1275       425  TIP3  H2            8.1846616969      -11.8906736933        8.9144798157  CLST         425          1.0000000000
      1276       426  TIP3  OH2           8.3505223449        2.2806998121        8.2343992783  CLST         426          1.0000000000
      1277       426  TIP3  H1            8.8523224450        2.3365145566        9.1051088336  CLST         426          1.0000000000
      1278       426  TIP3  H2            8.5044811900        3.2159031427        7.9255344657  CLST         426          1.0000000000
      1279       427  TIP3  OH2          11.4400290618        7.3853950070       10.9418100926  CLST         427          1.0000000000
      1280       427  TIP3  H1           11.4077502149        7.9736290852       11.6828351641  CLST         427          1.0000000000
      1281       427  TIP3  H2           10.5166036441        6.9509867756       10.8708050570  CLST         427          1.0000000000
      1282       428  TIP3  OH2          12.3975346225        7.7956785954        1.1184762341  CLST         428          1.0000000000
      1283       428  TIP3  H1           12.2863333408        8.0554568835        0.0744555730  CLST         428          1.0000000000
      1284       428  TIP3  H2           13.3351111252        7.8644102878        1.0472686452  CLST         428          1.0000000000
      1285       429  TIP3  OH2          11.9258353792       -9.9330197391       -0.8018360537  CLST         429          1.0000000000
      1286       429  TIP3  H1           12.1036934781       -9.4092084552        0.0340130839  CLST         429          1.0000000000
      1287       429  TIP3  H2           11.5677361200       -9.2370494077       -1.3859493815  CLST         429          1.0000000000
      1288       430  TIP3  OH2           9.8235903082       -6.6800553254        3.6360280034  CLST         430          1.0000000000
      1289       430  TIP3  H1            9.7045630086       -7.0572783795        2.6955050925  CLST         430          1.0000000000
      1290       430  TIP3  H2           10.7957303474       -6.6204661127        3.6291016585  CLST         430          1.0000000000
      1291       431  TIP3  OH2         -12.8037887505        9.3538133831       -2.5976214065  CLST         431          1.0000000000
      1292       431  TIP3  H1          -13.6078163188        9.7256846025       -2.8521361315  CLST         431          1.0000000000
      1293       431  TIP3  H2          -13.0224950255        8.9060274459       -1.7950141937  CLST         431          1.0000000000
      1294       432  TIP3  OH2           5.4325738220        8.5049554677      -10.0838888787  CLST         432          1.0000000000
      1295       432  TIP3  H1            5.9005716762        8.5459858573       -9.2097382376  CLST         432          1.0000000000
      1296       432  TIP3  H2            4.8242432674        9.2568492902       -9.8399494394  CLST         432          1.0000000000
      1297       433  TIP3  OH2          -0.6494476465        8.0589589512        7.8088220889  CLST         433          1.0000000000
      1298       433  TIP3  H1           -1.5576070839        8.4373635357        7.9270481313  CLST         433          1.0000000000
      1299       433  TIP3  H2           -0.8096346877        7.3588007418        7.1463760291  CLST         433          1.0000000000
      1300       434  TIP3  OH2          -7.3992087156        0.7861770596        3.8514150647  CLST         434          1.0000000000
      1301       434  TIP3  H1           -7.7122235058        1.4671234090        3.1891491799  CLST         434          1.0000000000
      1302       434  TIP3  H2           -8.0588536914        0.1046595427        3.6234340249  CLST         434          1.0000000000
      1303       435  TIP3  OH2           9.8585390832       -0.3720868446       -7.1967220649  CLST         435          1.0000000000
      1304       435  TIP3  H1            9.9125184973       -0.4511696343       -6.2246074952  CLST         435          1.0000000000
      1305       435  TIP3  H2           10.2025935243        0.4944528856       -7.4686277517  CLST         435          1.0000000000
      1306       436  TIP3  OH2           3.5659560930       10.5141047934       -8.9771299028  CLST         436          1.0000000000
      1307       436  TIP3  H1            3.7625091636       11.3549669325       -8.5265010667  CLST         436          1.0000000000
      1308       436  TIP3  H2            2.7248930146       10.1897253571       -8.5649845205  CLST         436          1.0000000000
      1309       437  TIP3  OH2          -8.4211662144       -0.9289457350       -7.9838114223  CLST         437          1.0000000000
      1310       437  TIP3  H1           -8.7022481900       -0.4031121266       -8.7748544740  CLST         437          1.0000000000
      1311       437  TIP3  H2           -7.4074604833       -0.7401451613       -8.0421441690  CLST         437          1.0000000000
      1312       438  TIP3  OH2          -3.2312407519        5.4964907875       -8.0836711194  CLST         438          1.0000000000
      1313       438  TIP3  H1           -4.0481751103        5.9702752163       -7.8261663699  CLST         438          1.0000000000
      1314       438  TIP3  H2           -3.5463751456        5.4715703162       -9.0429257454  CLST         438          1.0000000000
      1315       439  TIP3  OH2          14.3070485594        1.5657857993       -3.9610689536  CLST         439          1.0000000000
      1316       439  TIP3  H1           13.7448692848        2.3434661583       -4.1578373149  CLST         439          1.0000000000
      1317       439  TIP3  H2           13.6560739084        1.1499709756       -3.2926979817  CLST         439          1.0000000000
      1318       440  TIP3  OH2           1.1286872866      -12.9275684410      -11.2294741262  CLST         440          1.0000000000
      1319       440  TIP3  H1            0.1321002470      -12.6450150083      -11.1095831463  CLST         440          1.0000000000
      1320       440  TIP3  H2            1.1897308898      -13.7365612583      -11.6419858473  CLST         440          1.0000000000
      1321       441  TIP3  OH2          -1.6139875844       -4.3513247062        3.0738294983  CLST         441          1.0000000000
      1322       441  TIP3  H1           -1.9994627660       -3.4993030809        3.2537274303  CLST         441          1.0000000000
      1323       441  TIP3  H2           -1.1735676369       -4.6690978729        3.9076497698  CLST         441          1.0000000000
      1324       442  TIP3  OH2           3.2242048122       -9.8166772951       -8.0193023018  CLST         442          1.0000000000
      1325       442  TIP3  H1            3.5925258056      -10.3613253102       -8.7612822099  CLST         442          1.0000000000
      1326       442  TIP3  H2            2.4337840463       -9.4542717881       -8.5305042647  CLST         442          1.0000000000
      1327       443  TIP3  OH2           1.2404182122       10.4441205698      -12.8164025677  CLST         443          1.0000000000
      1328       443  TIP3  H1            1.3887892444       11.1147567913      -12.0307032964  CLST         443          1.0000000000
      1329       443  TIP3  H2            1.8480205236       10.9468366442      -13.3568721722  CLST         443          1.0000000000
      1330       444  TIP3  OH2          -7.8401127786        1.3164309860       -1.8886023214  CLST         444          1.0000000000
      1331       444  TIP3  H1           -7.8791045616        1.9332196667       -2.6656600891  CLST         444          1.0000000000
      1332       444  TIP3  H2           -7.4034995734        2.0122112763       -1.3194815909  CLST         444          1.0000000000
      1333       445  TIP3  OH2         -11.4039596782       -5.2784416996        6.1695264806  CLST         445          1.0000000000
      1334       445  TIP3  H1          -11.2010077589       -4.3659931150        5.8346260116  CLST         445          1.0000000000
      1335       445  TIP3  H2          -11.4280267056       -5.0580076022        7.1721376795  CLST         445          1.0000000000
      1336       446  TIP3  OH2          -2.9149208172        4.7163232805       -5.3235876029  CLST         446          1.0000000000
      1337       446  TIP3  H1           -3.1993468986        4.9945679673       -6.2374231916  CLST         446          1.0000000000
      1338       446  TIP3  H2           -2.0484316240        5.2180750662       -5.3815060269  CLST         446          1.0000000000
      1339       447  TIP3  OH2          -5.1267903667      -12.7259141330       -3.7329773506  CLST         447          1.0000000000
      1340       447  TIP3  H1           -5.5486385301      -13.3405237252       -3.1475984186  CLST         447          1.0000000000
      1341       447  TIP3  H2           -4.5999322652      -12.3043558663       -2.9679164826  CLST         447          1.0000000000
      1342       448  TIP3  OH2           7.2821786680        9.5910395525        4.7773898656  CLST         448          1.0000000000
      1343       448  TIP3  H1            7.5784926647        9.6374527851        5.7230927080  CLST         448          1.0000000000
      1344       448  TIP3  H2            6.5137696193       10.1821462621        4.8453071687  CLST         448          1.0000000000
      1345       449  TIP3  OH2           4.2506704829        5.3026984075        8.5360731696  CLST         449          1.0000000000
      1346       449  TIP3  H1            4.9751144754        4.7690133642        9.0252133373  CLST         449          1.0000000000
      1347       449  TIP3  H2            4.0782655315        4.7395694099        7.7597944314  CLST         449          1.0000000000
      1348       450  TIP3  OH2          -4.0933416213        0.5089195048       -1.9930896262  CLST         450          1.0000000000
      1349       450  TIP3  H1           -3.5565928353        0.9436143621       -2.6846913821  CLST         450          1.0000000000
      1350       450  TIP3  H2           -3.4119800097        0.1367067382       -1.4867594135  CLST         450          1.0000000000
      1351       451  TIP3  OH2          13.5258347356       -1.5735414063       -6.0488462295  CLST         451          1.0000000000
      1352       451  TIP3  H1           14.0814687354       -2.2280528500       -5.5815460364  CLST         451          1.0000000000
      1353       451  TIP3  H2           14.1589468400       -0.8679806028       -6.1218968105  CLST         451          1.0000000000
      1354       452  TIP3  OH2           8.5281088162        5.0189428098        7.9608115869  CLST         452          1.0000000000
      1355       452  TIP3  H1            7.6930502333        5.5805930102        7.9633479271  CLST         452          1.0000000000
      1356       452  TIP3  H2            9.2235977158        5.5941833377        7.5318711114  CLST         452          1.0000000000
      1357       453  TIP3  OH2           6.8810011750        2.7154792518       -5.9080105487  CLST         453          1.0000000000
      1358       453  TIP3  H1            6.0760259721        2.3602097308       -5.4255980416  CLST         453          1.0000000000
      1359       453  TIP3  H2            6.4409499135        2.7762353464       -6.7930778747  CLST         453          1.0000000000
      1360       454  TIP3  OH2           1.1870074084        5.4739981255        1.8648440825  CLST         454          1.0000000000
      1361       454  TIP3  H1            0.3369853778        5.1235255913        1.5151052626  CLST         454          1.0000000000
      1362       454  TIP3  H2            0.9508605731        6.0135251607        2.6567421147  CLST         454          1.0000000000
      1363       455  TIP3  OH2          -1.1985939087        0.8464012731      -10.4198210944  CLST         455          1.0000000000
      1364       455  TIP3  H1           -1.1946863803        1.1200015072       -9.4467419550  CLST         455          1.0000000000
      1365       455  TIP3  H2           -0.9289157635        1.8115221718      -10.7439145997  CLST         455          1.0000000000
      1366       456  TIP3  OH2           5.3480681603       11.4481128753        5.1539329701  CLST         456          1.0000000000
      1367       456  TIP3  H1            4.7652579699       11.7448534424        4.4199905224  CLST         456          1.0000000000
      1368       456  TIP3  H2            4.6631466238       11.0650261402        5.8056162520  CLST         456          1.0000000000
      1369       457  TIP3  OH2          -4.7180927981       -7.6672414671        4.8174034335  CLST         457          1.0000000000
      1370       457  TIP3  H1           -5.3866845193       -7.3666117807        5.4701946197  CLST         457          1.0000000000
      1371       457  TIP3  H2           -5.0199524958       -7.4621217562        3.9116990647  CLST         457          1.0000000000
      1372       458  TIP3  OH2           8.0459909784       -6.5452900432      -11.3202598409  CLST         458          1.0000000000
      1373       458  TIP3  H1            9.0218213982       -6.3340874852      -11.4696855379  CLST         458          1.0000000000
      1374       458  TIP3  H2            7.7981927713       -5.7025064883      -10.8885643470  CLST         458          1.0000000000
      1375       459  TIP3  OH2           6.6275278228       -9.9414622048       -7.9166556693  CLST         459          1.0000000000
      1376       459  TIP3  H1            6.1332946670       -9.0884823402       -7.7751887895  CLST         459          1.0000000000
      1377       459  TIP3  H2            7.3812969149       -9.5596659506       -8.4429490679  CLST         459          1.0000000000
      1378       460  TIP3  OH2           9.1647569912       -2.1544050994       -2.7085892150  CLST         460          1.0000000000
      1379       460  TIP3  H1            9.6076404818       -2.8850103086       -2.2901142193  CLST         460          1.0000000000
      1380       460  TIP3  H2            9.8202129489       -1.7924216223       -3.3350913924  CLST         460          1.0000000000
      1381       461  TIP3  OH2          -1.2707370137      -12.8326910626       -5.2824088593  CLST         461          1.0000000000
      1382       461  TIP3  H1           -0.6891886392      -13.1898960391       -5.9621440100  CLST         461          1.0000000000
      1383       461  TIP3  H2           -0.9321148356      -13.3053232873       -4.4717711149  CLST         461          1.0000000000
      1384       462  TIP3  OH2           0.0114477966        5.3589832871      -12.7574250204  CLST         462          1.0000000000
      1385       462  TIP3  H1            0.1986817453        6.3330890946      -12.5139678854  CLST         462          1.0000000000
      1386       462  TIP3  H2            0.7996177824        5.3341847634      -13.2973606450  CLST         462          1.0000000000
      1387       463  TIP3  OH2          -1.6944867663        1.8838494261       -7.6848243969  CLST         463          1.0000000000
      1388       463  TIP3  H1           -1.4600878164        1.0874790363       -7.1826786732  CLST         463          1.0000000000
      1389       463  TIP3  H2           -2.6719475966        1.8664017189       -7.5708628855  CLST         463          1.0000000000
      1390       464  TIP3  OH2          -6.5652476262        6.2527589423        4.3317890205  CLST         464          1.0000000000
      1391       464  TIP3  H1           -6.1350195724        5.6862837398        4.9950291422  CLST         464          1.0000000000
      1392       464  TIP3  H2           -6.8159227627        7.0200439795        4.8822037801  CLST         464          1.0000000000
      1393       465  TIP3  OH2          -4.5748713890      -12.4874599642        6.3704579944  CLST         465          1.0000000000
      1394       465  TIP3  H1           -3.7261536396      -12.9154177509        5.9809311765  CLST         465          1.0000000000
      1395       465  TIP3  H2           -4.2279574267      -11.5674865045        6.2045829718  CLST         465          1.0000000000
      1396       466  TIP3  OH2          -2.4645581638        9.1188289849       -4.3214080507  CLST         466          1.0000000000
      1397       466  TIP3  H1           -3.1519664474        9.2642136521       -5.0320057516  CLST         466          1.0000000000
      1398       466  TIP3  H2           -2.6037767299        9.7673920667       -3.6327254111  CLST         466          1.0000000000
      1399       467  TIP3  OH2           8.1304681839        5.8914214436        4.5534347161  CLST         467          1.0000000000
      1400       467  TIP3  H1            8.5848265465        6.3297969292        5.2623860957  CLST         467          1.0000000000
      1401       467  TIP3  H2            8.1127576768        6.6319890386        3.8465073493  CLST         467          1.0000000000
      1402       468  TIP3  OH2          -0.4923107922      -12.4266155105       10.3895480475  CLST         468          1.0000000000
      1403       468  TIP3  H1           -1.0239500968      -12.3072334071       11.1678805666  CLST         468          1.0000000000
      1404       468  TIP3  H2            0.3937333593      -12.5196635713       10.7205828760  CLST         468          1.0000000000
      1405       469  TIP3  OH2           5.4827721346        8.2769120348       14.2774696719  CLST         469          1.0000000000
      1406       469  TIP3  H1            6.1252472638        8.4587917582       13.5997922467  CLST         469          1.0000000000
      1407       469  TIP3  H2            4.7497108090        8.8747096170       14.0701211062  CLST         469          1.0000000000
      1408       470  TIP3  OH2         -11.2272514992       12.7845005072        0.8244998026  CLST         470          1.0000000000
      1409       470  TIP3  H1          -11.1860825871       12.7230215022       -0.1518712756  CLST         470          1.0000000000
      1410       470  TIP3  H2          -11.7883622189       11.9806932601        1.0392779052  CLST         470          1.0000000000
      1411       471  TIP3  OH2          -4.4106207278        9.6065728512       -9.0088022219  CLST         471          1.0000000000
      1412       471  TIP3  H1           -4.0996210664        8.7050190403       -9.1213872629  CLST         471          1.0000000000
      1413       471  TIP3  H2           -4.5479171426        9.8431782540       -9.9588772113  CLST         471          1.0000000000
      1414       472  TIP3  OH2         -11.9478486677        3.9090214453        2.7091385682  CLST         472          1.0000000000
      1415       472  TIP3  H1          -12.5943158430        3.1309740556        2.7803475712  CLST         472          1.0000000000
      1416       472  TIP3  H2          -11.2892709026        3.4325204661        2.1534570099  CLST         472          1.0000000000
      1417       473  TIP3  OH2           5.2602958954        0.7853789858       10.3095632448  CLST         473          1.0000000000
      1418       473  TIP3  H1            5.8302325697        1.4663242266        9.8702909790  CLST         473          1.0000000000
      1419       473  TIP3  H2            4.6675480328        1.3939503088       10.7085579243  CLST         473          1.0000000000
      1420       474  TIP3  OH2           1.2957575793        1.6815645953        1.4588986840  CLST         474          1.0000000000
      1421       474  TIP3  H1            0.3136050048        1.5696204190        1.4068261107  CLST         474          1.0000000000
      1422       474  TIP3  H2            1.4560548177        1.0889822619        0.6812871728  CLST         474          1.0000000000
      1423       475  TIP3  OH2           5.9424081176       -8.7042555353       12.0349716155  CLST         475          1.0000000000
      1424       475  TIP3  H1            6.8686516811       -8.4207099396       12.1189972886  CLST         475          1.0000000000
      1425       475  TIP3  H2            6.0560376898       -9.2670874131       11.2047007831  CLST         475          1.0000000000
      1426       476  TIP3  OH2         -11.5381994545       -9.0664739290       -0.0251816202  CLST         476          1.0000000000
      1427       476  TIP3  H1          -11.9604937235       -8.2255305868       -0.3968673337  CLST         476          1.0000000000
      1428       476  TIP3  H2          -10.7602599929       -8.8823759526       -0.5785372498  CLST         476          1.0000000000
      1429       477  TIP3  OH2         -12.5240281688        3.5647117985      -13.4640804613  CLST         477          1.0000000000
      1430       477  TIP3  H1          -12.4929832145        2.6624079677      -13.1488803177  CLST         477          1.0000000000
      1431       477  TIP3  H2          -11.9949020080        3.3761123415      -14.2470208726  CLST         477          1.0000000000
      1432       478  TIP3  OH2          -3.9034389266        6.4650767049      -10.5867114889  CLST         478          1.0000000000
      1433       478  TIP3  H1           -4.3640762757        6.0795147262      -11.3660445534  CLST         478          1.0000000000
      1434       478  TIP3  H2           -3.3459121519        7.1080422049      -11.1277249642  CLST         478          1.0000000000
      1435       479  TIP3  OH2           7.9449576868       -1.4379848163       -8.5182991226  CLST         479          1.0000000000
      1436       479  TIP3  H1            8.6936238537       -0.8954497346       -8.1645276928  CLST         479          1.0000000000
      1437       479  TIP3  H2            7.4267234318       -1.3159886332       -7.6833192872  CLST         479          1.0000000000
      1438       480  TIP3  OH2          -6.1748771196        7.6148636691        0.0188474907  CLST         480          1.0000000000
      1439       480  TIP3  H1           -5.2952749575        8.1138650325       -0.0666214379  CLST         480          1.0000000000
      1440       480  TIP3  H2           -5.8205023331        6.6620551941        0.0694405919  CLST         480          1.0000000000
      1441       481  TIP3  OH2          -2.9953219569        2.3996548358       11.8052835031  CLST         481          1.0000000000
      1442       481  TIP3  H1           -2.0377435237        2.4360511544       11.6084641601  CLST         481          1.0000000000
      1443       481  TIP3  H2           -3.0520155733        1.5284227753       12.1788621256  CLST         481          1.0000000000
      1444       482  TIP3  OH2          -8.0205559511       11.6155112771       -7.5180288082  CLST         482          1.0000000000
      1445       482  TIP3  H1           -8.6676461606       11.4302642012       -8.1983623814  CLST         482          1.0000000000
      1446       482  TIP3  H2           -7.3104195436       12.1027069513       -8.0645444665  CLST         482          1.0000000000
      1447       483  TIP3  OH2           6.4079446159       -5.9029339190       12.6556008491  CLST         483          1.0000000000
      1448       483  TIP3  H1            5.5867629200       -6.4719372778       12.5657312322  CLST         483          1.0000000000
      1449       483  TIP3  H2            6.4987092936       -5.6048809539       11.7313498699  CLST         483          1.0000000000
      1450       484  TIP3  OH2           6.7543744613       -3.0782615749        3.0324855203  CLST         484          1.0000000000
      1451       484  TIP3  H1            5.7417912779       -3.0838158957        2.9071475942  CLST         484          1.0000000000
      1452       484  TIP3  H2            6.6633230729       -2.4224511511        3.7629160270  CLST         484          1.0000000000
      1453       485  TIP3  OH2         -11.7296523816        4.6312169181       10.0331354416  CLST         485          1.0000000000
      1454       485  TIP3  H1          -11.3625465478        3.7440027680       10.1398089795  CLST         485          1.0000000000
      1455       485  TIP3  H2          -12.5293742053        4.3618335395        9.3076679996  CLST         485          1.0000000000
      1456       486  TIP3  OH2           8.3954350610       -7.1860709271       13.6112838904  CLST         486          1.0000000000
      1457       486  TIP3  H1            8.4341042385       -7.1758631202       14.4516385939  CLST         486          1.0000000000
      1458       486  TIP3  H2            7.5507349067       -6.6388284878       13.3765186580  CLST         486          1.0000000000
      1459       487  TIP3  OH2          12.1932609492       -8.5754971911        6.0067528054  CLST         487          1.0000000000
      1460       487  TIP3  H1           11.2489573882       -8.3265637843        6.1262070758  CLST         487          1.0000000000
      1461       487  TIP3  H2           12.4237728041       -8.5856025547        6.9713549327  CLST         487          1.0000000000
      1462       488  TIP3  OH2          15.2111111281        8.2468922102        7.6674975765  CLST         488          1.0000000000
      1463       488  TIP3  H1           15.8053020239        7.6865308093        8.0022565433  CLST         488          1.0000000000
      1464       488  TIP3  H2           14.4054519901        7.7647953657        7.9635489910  CLST         488          1.0000000000
      1465       489  TIP3  OH2          -6.1221733734      -10.7869187507       11.8096849627  CLST         489          1.0000000000
      1466       489  TIP3  H1           -6.2381303845       -9.8925423733       11.5787820868  CLST         489          1.0000000000
      1467       489  TIP3  H2           -6.8371916390      -11.1478320047       11.1788953961  CLST         489          1.0000000000
      1468       490  TIP3  OH2           6.7468892802      -13.0408781666        2.1628050477  CLST         490          1.0000000000
      1469       490  TIP3  H1            6.6290475583      -12.2570427959        2.6930505872  CLST         490          1.0000000000
      1470       490  TIP3  H2            6.9727729893      -13.7957536204        2.6418616485  CLST         490          1.0000000000
      1471       491  TIP3  OH2           2.9847904172       -9.2467625049        4.9347438679  CLST         491          1.0000000000
      1472       491  TIP3  H1            2.0366260283       -9.1350190966        5.2113607670  CLST         491          1.0000000000
      1473       491  TIP3  H2            2.8754054171       -9.7567175994        4.1122506995  CLST         491          1.0000000000
      1474       492  TIP3  OH2          -0.5691982696       -6.5010057730       12.3513948445  CLST         492          1.0000000000
      1475       492  TIP3  H1           -0.4532266467       -7.4723586261       12.1643832508  CLST         492          1.0000000000
      1476       492  TIP3  H2           -1.5157673473       -6.4826804525       12.3650240816  CLST         492          1.0000000000
      1477       493  TIP3  OH2           3.3825840575       10.5857080809        7.0022794235  CLST         493          1.0000000000
      1478       493  TIP3  H1            4.0249993344       10.7433551003        7.7848936461  CLST         493          1.0000000000
      1479       493  TIP3  H2            2.6221507395       10.2454315430        7.6869569286  CLST         493          1.0000000000
      1480       494  TIP3  OH2          -9.2554141488        5.3171357438       -0.7158902182  CLST         494          1.0000000000
      1481       494  TIP3  H1           -9.3598161859        5.9592664271       -1.4372332422  CLST         494          1.0000000000
      1482       494  TIP3  H2           -9.8776913079        5.6498147326       -0.0034198676  CLST         494          1.0000000000
      1483       495  TIP3  OH2           5.0734818559       -6.8717476521       -2.0127990789  CLST         495          1.0000000000
      1484       495  TIP3  H1            5.4947142958       -6.3677753862       -2.7501412169  CLST         495          1.0000000000
      1485       495  TIP3  H2            5.9696732406       -7.2568251737       -1.7106139097  CLST         495          1.0000000000
      1486       496  TIP3  OH2         -12.6971671696      -10.7512901536        7.5515185408  CLST         496          1.0000000000
      1487       496  TIP3  H1          -13.5127468561      -10.9784387641        7.8082013126  CLST         496          1.0000000000
      1488       496  TIP3  H2          -12.3538849493      -11.4799358109        6.9630181052  CLST         496          1.0000000000
      1489       497  TIP3  OH2          -9.7558465521      -13.4910424403       -7.3541089808  CLST         497          1.0000000000
      1490       497  TIP3  H1          -10.2598002580      -14.1773658438       -7.6476721320  CLST         497          1.0000000000
      1491       497  TIP3  H2          -10.1928033445      -12.8347400588       -7.9113447064  CLST         497          1.0000000000
      1492       498  TIP3  OH2          -5.4828756005        0.5127289536      -11.0806562664  CLST         498          1.0000000000
      1493       498  TIP3  H1           -5.7653249146        0.5360865148      -12.0105147943  CLST         498          1.0000000000
      1494       498  TIP3  H2           -5.1787994421        1.4540287715      -11.0304763279  CLST         498          1.0000000000
      1495       499  TIP3  OH2          11.6057747102        6.6624664040        3.6380973963  CLST         499          1.0000000000
      1496       499  TIP3  H1           12.3349307048        6.8955431697        3.0466345111  CLST         499          1.0000000000
      1497       499  TIP3  H2           11.2295429015        7.5490655637        3.7712332531  CLST         499          1.0000000000
      1498       500  TIP3  OH2           2.3837206742       -8.7693884919      -13.2769364027  CLST         500          1.0000000000
      1499       500  TIP3  H1            1.8531513822       -8.9901632721      -13.9271404782  CLST         500          1.0000000000
      1500       500  TIP3  H2            2.5285593699       -9.6217559923      -12.6711677547  CLST         500          1.0000000000
      1501       501  TIP3  OH2           1.2732881243      -10.9214341630       14.1123825375  CLST         501          1.0000000000
      1502       501  TIP3  H1            1.2894828837      -11.8174131295       14.2111892758  CLST         501          1.0000000000
      1503       501  TIP3  H2            2.2393317575      -10.7231237592       14.0756609034  CLST         501          1.0000000000
      1504       502  TIP3  OH2           5.9949185918        3.8545987861        9.7015493439  CLST         502          1.0000000000
      1505       502  TIP3  H1            6.3147068926        4.1734546480       10.5659593424  CLST         502          1.0000000000
      1506       502  TIP3  H2            6.8842330231        3.7096271864        9.2953837104  CLST         502          1.0000000000
      1507       503  TIP3  OH2          10.3439356852       -0.7823169835        0.1765327532  CLST         503          1.0000000000
      1508       503  TIP3  H1           11.2944828610       -0.6534832323        0.3776482098  CLST         503          1.0000000000
      1509       503  TIP3  H2           10.2587995230        0.0041531735       -0.4032395509  CLST         503          1.0000000000
      1510       504  TIP3  OH2           8.3080771835      -13.7045265535       10.8505223499  CLST         504          1.0000000000
      1511       504  TIP3  H1            8.1164546746      -13.6524894344        9.8788435861  CLST         504          1.0000000000
      1512       504  TIP3  H2            8.1207041935      -14.6486872951       11.0196351909  CLST         504          1.0000000000
      1513       505  TIP3  OH2           3.5136920223      -10.8853828142       -5.6665620186  CLST         505          1.0000000000
      1514       505  TIP3  H1            3.3014761687      -10.3762664403       -6.5128865948  CLST         505          1.0000000000
      1515       505  TIP3  H2            3.2736777596      -10.2568807649       -4.9558422179  CLST         505          1.0000000000
      1516       506  TIP3  OH2          -9.1849488380       -3.4630844307       -8.2163100110  CLST         506          1.0000000000
      1517       506  TIP3  H1           -8.9414779284       -2.4984151580       -8.1293047869  CLST         506          1.0000000000
      1518       506  TIP3  H2           -9.5773078961       -3.3769566465       -9.1221212897  CLST         506          1.0000000000
      1519       507  TIP3  OH2          11.0753801228        9.7639708078      -12.8596005391  CLST         507          1.0000000000
      1520       507  TIP3  H1           11.6853138445        9.9915944015      -13.4280879398  CLST         507          1.0000000000
      1521       507  TIP3  H2           11.0712832648        8.7210502222      -12.5753606674  CLST         507          1.0000000000
      1522       508  TIP3  OH2           9.1594676537       12.3217278167        8.7866150498  CLST         508          1.0000000000
      1523       508  TIP3  H1            8.7985166518       11.8791354382        8.0188765093  CLST         508          1.0000000000
      1524       508  TIP3  H2            9.9963989541       12.6412064574        8.3703845445  CLST         508          1.0000000000
      1525       509  TIP3  OH2          -0.7870201435       -1.4598836909      -11.3431600283  CLST         509          1.0000000000
      1526       509  TIP3  H1           -2.0751844474       -1.0782107988      -11.2759216128  CLST         509          1.0000000000
      1527       509  TIP3  H2           -1.3405910661       -0.5292544854      -10.8776806440  CLST         509          1.0000000000
      1528       510  TIP3  OH2           8.0900443206        2.1838522472       11.6426669477  CLST         510          1.0000000000
      1529       510  TIP3  H1            8.1329398420        1.1781988939       11.5375872954  CLST         510          1.0000000000
      1530       510  TIP3  H2            8.9906481753        2.3797394402       11.2475054169  CLST         510          1.0000000000
      1531       511  TIP3  OH2          -8.7049239742       -5.8427228069       -0.7439772173  CLST         511          1.0000000000
      1532       511  TIP3  H1           -9.6652958433       -6.0621056765       -0.8575327013  CLST         511          1.0000000000
      1533       511  TIP3  H2           -8.5621357245       -5.4971625399       -1.6342022155  CLST         511          1.0000000000
      1534       512  TIP3  OH2          10.1317619201        6.9981603286        6.9200883518  CLST         512          1.0000000000
      1535       512  TIP3  H1           10.2968712261        7.7836719262        7.5118248566  CLST         512          1.0000000000
      1536       512  TIP3  H2           10.4142462282        7.4828197720        6.0885701011  CLST         512          1.0000000000
      1537       513  TIP3  OH2         -11.8435634520       10.4570146038        9.3029895218  CLST         513          1.0000000000
      1538       513  TIP3  H1          -11.3353203609       11.2763697859        9.5359404370  CLST         513          1.0000000000
      1539       513  TIP3  H2          -11.4465969538        9.9672252505       10.0988741658  CLST         513          1.0000000000
      1540       514  TIP3  OH2          -4.8845483830        5.1144924793        0.1774321203  CLST         514          1.0000000000
      1541       514  TIP3  H1           -4.1369548123        5.3749501758        0.7520198034  CLST         514          1.0000000000
      1542       514  TIP3  H2           -4.4431183438        4.9563023485       -0.6986720609  CLST         514          1.0000000000
      1543       515  TIP3  OH2          -0.8175626872        0.9653042839       -4.3193313617  CLST         515          1.0000000000
      1544       515  TIP3  H1           -1.5925485977        1.5332309358       -4.1090149730  CLST         515          1.0000000000
      1545       515  TIP3  H2           -0.1739949886        1.6503077773       -4.5746635440  CLST         515          1.0000000000
      1546       516  TIP3  OH2          -7.4400461930       -8.4902589013        6.3537713668  CLST         516          1.0000000000
      1547       516  TIP3  H1           -7.6648714807       -8.2325376316        5.4367343770  CLST         516          1.0000000000
      1548       516  TIP3  H2           -7.9440538219       -7.7114716718        6.7789876861  CLST         516          1.0000000000
      1549       517  TIP3  OH2           0.6516585679       10.9755130090       11.5436896748  CLST         517          1.0000000000
      1550       517  TIP3  H1            0.6088969937       10.5750000947       10.6580835100  CLST         517          1.0000000000
      1551       517  TIP3  H2           -0.3411988164       11.1502622184       11.6396861911  CLST         517          1.0000000000
      1552       518  TIP3  OH2         -11.7037605350       -3.4189470338      -11.4505262461  CLST         518          1.0000000000
      1553       518  TIP3  H1          -12.2542252615       -3.2356526712      -12.2180147473  CLST         518          1.0000000000
      1554       518  TIP3  H2          -10.9250295661       -3.7642030085      -11.9207333235  CLST         518          1.0000000000
      1555       519  TIP3  OH2           2.0289187802        3.4211962905        3.3159032687  CLST         519          1.0000000000
      1556       519  TIP3  H1            1.6128523202        4.1501827381        2.8060999773  CLST         519          1.0000000000
      1557       519  TIP3  H2            1.7165347124        2.6385243311        2.7758100351  CLST         519          1.0000000000
      1558       520  TIP3  OH2         -10.2092484217        6.3120977826        8.2517420778  CLST         520          1.0000000000
      1559       520  TIP3  H1          -10.6726112244        5.8003212331        7.5045337117  CLST         520          1.0000000000
      1560       520  TIP3  H2          -10.5577381255        5.7441676724        8.9729004129  CLST         520          1.0000000000
      1561       521  TIP3  OH2           8.4080463775       -8.8774404718       -9.5720684921  CLST         521          1.0000000000
      1562       521  TIP3  H1            8.6246827018       -9.5047988278      -10.3090483281  CLST         521          1.0000000000
      1563       521  TIP3  H2            8.1630782128       -8.0925161740      -10.1178291295  CLST         521          1.0000000000
      1564       522  TIP3  OH2          -5.5535086729       -7.1047053405        8.2748032695  CLST         522          1.0000000000
      1565       522  TIP3  H1           -5.8697518614       -7.8691282353        7.7126425124  CLST         522          1.0000000000
      1566       522  TIP3  H2           -4.5892843379       -7.3176200245        8.4343645924  CLST         522          1.0000000000
      1567       523  TIP3  OH2          -4.0404139034       12.0978600064      -13.5942827754  CLST         523          1.0000000000
      1568       523  TIP3  H1           -3.0101710161       12.0486438091      -13.3904120935  CLST         523          1.0000000000
      1569       523  TIP3  H2           -4.2922458747       12.8401383187      -13.9658554799  CLST         523          1.0000000000
      1570       524  TIP3  OH2           6.9510735397        3.8474687052       -1.7833607073  CLST         524          1.0000000000
      1571       524  TIP3  H1            7.4835975583        3.2969648180       -2.3763200543  CLST         524          1.0000000000
      1572       524  TIP3  H2            6.0429890075        3.7691649730       -2.1051452150  CLST         524          1.0000000000
      1573       525  TIP3  OH2           0.4380887537        6.8741318164       -2.4957258773  CLST         525          1.0000000000
      1574       525  TIP3  H1            0.6106221006        6.1207578637       -3.1236221058  CLST         525          1.0000000000
      1575       525  TIP3  H2            0.3730645183        6.2492575998       -1.7203595216  CLST         525          1.0000000000
      1576       526  TIP3  OH2           7.0560302164       -5.5539683844       -3.5781360970  CLST         526          1.0000000000
      1577       526  TIP3  H1            7.3001907145       -5.6467494772       -4.5494829174  CLST         526          1.0000000000
      1578       526  TIP3  H2            7.9418656596       -5.8146912039       -3.2280229824  CLST         526          1.0000000000
      1579       527  TIP3  OH2           0.4811013411        7.2563619707        3.9637487852  CLST         527          1.0000000000
      1580       527  TIP3  H1            1.1195400665        7.6358854312        4.6231052308  CLST         527          1.0000000000
      1581       527  TIP3  H2           -0.0763151364        7.8373958269        3.4766163428  CLST         527          1.0000000000
      1582       528  TIP3  OH2          -2.8898549289        9.8964572495        8.7996429281  CLST         528          1.0000000000
      1583       528  TIP3  H1           -3.1184790490        9.9201295621        9.7671726357  CLST         528          1.0000000000
      1584       528  TIP3  H2           -3.8007424036        9.8460928988        8.3889508550  CLST         528          1.0000000000
      1585       529  TIP3  OH2          -5.9513581826       12.3130274439       -9.3439921146  CLST         529          1.0000000000
      1586       529  TIP3  H1           -5.0587268481       12.2669973130       -8.9894619516  CLST         529          1.0000000000
      1587       529  TIP3  H2           -5.8394550494       11.7333092740      -10.0780257776  CLST         529          1.0000000000
      1588       530  TIP3  OH2          -4.3045783887       -5.6445272454      -13.1314477139  CLST         530          1.0000000000
      1589       530  TIP3  H1           -4.2160498358       -6.6120088968      -13.1170376237  CLST         530          1.0000000000
      1590       530  TIP3  H2           -3.3510235254       -5.3092684640      -13.0968727112  CLST         530          1.0000000000
      1591       531  TIP3  OH2         -11.6490188749       -0.2530789311       10.3114873722  CLST         531          1.0000000000
      1592       531  TIP3  H1          -12.1043187133       -0.4710013024       11.0613298616  CLST         531          1.0000000000
      1593       531  TIP3  H2          -12.0860021261       -0.7828122213        9.6312775819  CLST         531          1.0000000000
      1594       532  TIP3  OH2         -12.1117599466       -3.1206899221       -8.7843739564  CLST         532          1.0000000000
      1595       532  TIP3  H1          -12.4834919199       -3.9848780076       -8.7317211171  CLST         532          1.0000000000
      1596       532  TIP3  H2          -11.9714968838       -3.0752592889       -9.8040067795  CLST         532          1.0000000000
      1597       533  TIP3  OH2          -2.9400204077       -7.3159922370        8.6708189803  CLST         533          1.0000000000
      1598       533  TIP3  H1           -2.1661093029       -7.9102796136        8.6483125408  CLST         533          1.0000000000
      1599       533  TIP3  H2           -2.4821370650       -6.4912103076        8.3453002413  CLST         533          1.0000000000
      1600       534  TIP3  OH2           0.4407889765      -13.2106077029       -7.6426882322  CLST         534          1.0000000000
      1601       534  TIP3  H1            0.5067552248      -13.4920378507       -8.5593589997  CLST         534          1.0000000000
      1602       534  TIP3  H2            1.3947152863      -13.2658371389       -7.3249292822  CLST         534          1.0000000000
      1603       535  TIP3  OH2           2.6777303283        3.1711931430       -7.5408972316  CLST         535          1.0000000000
      1604       535  TIP3  H1            3.2122884612        2.5655644512       -6.9948285651  CLST         535          1.0000000000
      1605       535  TIP3  H2            1.8767829118        3.1301733594       -6.9775399458  CLST         535          1.0000000000
      1606       536  TIP3  OH2           7.9853688775      -12.7159824759       -3.5971252264  CLST         536          1.0000000000
      1607       536  TIP3  H1            7.3465486997      -12.6617559174       -4.3633145709  CLST         536          1.0000000000
      1608       536  TIP3  H2            8.3930928779      -13.5076359967       -3.8132942337  CLST         536          1.0000000000
      1609       537  TIP3  OH2          11.7015918273       -2.7970422607       -7.5948340761  CLST         537          1.0000000000
      1610       537  TIP3  H1           10.9479538721       -2.1633175401       -7.6001379971  CLST         537          1.0000000000
      1611       537  TIP3  H2           12.2415961571       -2.2911391044       -6.9035673608  CLST         537          1.0000000000
      1612       538  TIP3  OH2          -5.2513800562      -10.9542307529        0.9470624009  CLST         538          1.0000000000
      1613       538  TIP3  H1           -4.4822737233      -11.2744452756        1.5522525356  CLST         538          1.0000000000
      1614       538  TIP3  H2           -4.9359560706       -9.9989265214        0.9357205918  CLST         538          1.0000000000
      1615       539  TIP3  OH2           2.5391315717       -5.1049914688        0.9137571859  CLST         539          1.0000000000
      1616       539  TIP3  H1            1.6199858274       -5.3245396306        1.2641917220  CLST         539          1.0000000000
      1617       539  TIP3  H2            2.3666950338       -5.4669867909        0.0192350784  CLST         539          1.0000000000
      1618       540  TIP3  OH2           4.0328732051       -6.8527665873        4.7810304222  CLST         540          1.0000000000
      1619       540  TIP3  H1            3.7772404568       -7.8423613425        4.8521652705  CLST         540          1.0000000000
      1620       540  TIP3  H2            4.2761171619       -6.9384347303        3.7827842704  CLST         540          1.0000000000
      1621       541  TIP3  OH2          -5.6053272040       10.4486672237        2.0308353667  CLST         541          1.0000000000
      1622       541  TIP3  H1           -6.1218740147       10.5951589346        2.9187530433  CLST         541          1.0000000000
      1623       541  TIP3  H2           -4.9241696355       11.2125715110        2.1597864553  CLST         541          1.0000000000
      1624       542  TIP3  OH2         -10.9452163243       14.4668136182        5.5739434772  CLST         542          1.0000000000
      1625       542  TIP3  H1          -10.7200848911       15.3440159904        5.2239558487  CLST         542          1.0000000000
      1626       542  TIP3  H2          -10.7769599736       13.9877513231        4.6215557658  CLST         542          1.0000000000
      1627       543  TIP3  OH2         -10.5478848379       11.4587619319       -2.5185615579  CLST         543          1.0000000000
      1628       543  TIP3  H1          -11.1511121363       10.6912143129       -2.8317335476  CLST         543          1.0000000000
      1629       543  TIP3  H2          -10.4904955584       11.9473432668       -3.3361501459  CLST         543          1.0000000000
      1630       544  TIP3  OH2          -0.4060615243        5.8059721831       -5.6983919596  CLST         544          1.0000000000
      1631       544  TIP3  H1           -0.2326165784        5.3531395723       -6.6187189724  CLST         544          1.0000000000
      1632       544  TIP3  H2            0.3146813423        5.5215899128       -5.1290204285  CLST         544          1.0000000000
      1633       545  TIP3  OH2          -7.9311534404        2.4783609360      -12.7274449629  CLST         545          1.0000000000
      1634       545  TIP3  H1           -8.1944199615        2.1316476420      -13.6117900720  CLST         545          1.0000000000
      1635       545  TIP3  H2           -8.5417084571        3.2466795682      -12.6684030767  CLST         545          1.0000000000
      1636       546  TIP3  OH2           3.7765111459       11.1909808162       -2.2693271481  CLST         546          1.0000000000
      1637       546  TIP3  H1            3.3495449132       10.3163699972       -2.1415214673  CLST         546          1.0000000000
      1638       546  TIP3  H2            4.4731732708       11.1095338232       -1.5318989355  CLST         546          1.0000000000
      1639       547  TIP3  OH2          -3.4197712736       -2.0615966968      -11.1241588754  CLST         547          1.0000000000
      1640       547  TIP3  H1           -3.6752620503       -2.5732544350      -10.1870500493  CLST         547          1.0000000000
      1641       547  TIP3  H2           -4.3614231075       -1.7459966880      -11.0798584810  CLST         547          1.0000000000
      1642       548  TIP3  OH2          10.5986133716        2.2111386493        1.4025508353  CLST         548          1.0000000000
      1643       548  TIP3  H1            9.6747423770        1.8968900996        1.4814791243  CLST         548          1.0000000000
      1644       548  TIP3  H2           10.4605360280        3.0462069737        1.9374165433  CLST         548          1.0000000000
