* Geometry rescue: heat segment 8/8 at step 1000
*
        1644  EXT
         1         1  TIP3  OH2           4.4480352955       -1.5205603399       -2.2683875567  CLST           1          1.0000000000
         2         1  TIP3  H1            4.7047639573       -1.6866374132       -1.2795810689  CLST           1          1.0000000000
         3         1  TIP3  H2            5.2809005882       -1.8021767817       -2.6987480909  CLST           1          1.0000000000
         4         2  TIP3  OH2          10.6262005286        7.4231059670      -11.7275738480  CLST           2          1.0000000000
         5         2  TIP3  H1           10.8816807427        7.2899818120      -10.7746490054  CLST           2          1.0000000000
         6         2  TIP3  H2            9.6426523673        7.3840085301      -11.6265173745  CLST           2          1.0000000000
         7         3  TIP3  OH2           8.8207449975        5.3362659523       -4.3100454782  CLST           3          1.0000000000
         8         3  TIP3  H1            9.0055126018        5.5290663852       -3.3458527943  CLST           3          1.0000000000
         9         3  TIP3  H2            9.3247068906        6.1197501654       -4.6220165741  CLST           3          1.0000000000
        10         4  TIP3  OH2          -2.8166016007        6.7429679642       10.1300951092  CLST           4          1.0000000000
        11         4  TIP3  H1           -3.5430338590        7.1182557210        9.5508452189  CLST           4          1.0000000000
        12         4  TIP3  H2           -3.0599517197        7.4390186598       10.8189203215  CLST           4          1.0000000000
        13         5  TIP3  OH2           9.1787068876        6.2773796967       10.5105558396  CLST           5          1.0000000000
        14         5  TIP3  H1            8.7972469645        5.5226606982       11.0228352791  CLST           5          1.0000000000
        15         5  TIP3  H2            8.8485379821        6.0615074916        9.6090861886  CLST           5          1.0000000000
        16         6  TIP3  OH2          10.5072814458       -5.9627411318      -11.7940348019  CLST           6          1.0000000000
        17         6  TIP3  H1           10.9694989178       -5.4738074490      -11.0310739337  CLST           6          1.0000000000
        18         6  TIP3  H2           10.4470050077       -5.0664456061      -12.3130802953  CLST           6          1.0000000000
        19         7  TIP3  OH2         -12.3165344451        8.2860872588        5.7367634792  CLST           7          1.0000000000
        20         7  TIP3  H1          -12.5423197333        9.2033303371        6.1278115714  CLST           7          1.0000000000
        21         7  TIP3  H2          -11.4562809890        8.2313197211        6.2490639176  CLST           7          1.0000000000
        22         8  TIP3  OH2          -4.4817780146       -8.3553766245        0.6786329276  CLST           8          1.0000000000
        23         8  TIP3  H1           -5.0336456709       -7.6181093751        1.0978029855  CLST           8          1.0000000000
        24         8  TIP3  H2           -3.7308454291       -7.9065290096        0.3218022923  CLST           8          1.0000000000
        25         9  TIP3  OH2           2.6751093184      -14.2503606121       -4.1113477451  CLST           9          1.0000000000
        26         9  TIP3  H1            1.7099979609      -14.3075519363       -3.8869106237  CLST           9          1.0000000000
        27         9  TIP3  H2            2.9479268508      -13.9952894768       -3.1955048277  CLST           9          1.0000000000
        28        10  TIP3  OH2         -14.2179179798       -1.1653324148       -0.4522430691  CLST          10          1.0000000000
        29        10  TIP3  H1          -13.7715027666       -1.4324023378       -1.2574874351  CLST          10          1.0000000000
        30        10  TIP3  H2          -14.5852696808       -1.8776962642        0.0451867815  CLST          10          1.0000000000
        31        11  TIP3  OH2           6.9026719458        6.7188073886       -1.8367696886  CLST          11          1.0000000000
        32        11  TIP3  H1            7.0578679585        5.7582219387       -2.0793847157  CLST          11          1.0000000000
        33        11  TIP3  H2            6.8458511480        6.9897419711       -2.8029309669  CLST          11          1.0000000000
        34        12  TIP3  OH2          -8.2244094023        2.4986634548        2.0389023976  CLST          12          1.0000000000
        35        12  TIP3  H1           -7.6216319867        2.6554275874        1.2665145322  CLST          12          1.0000000000
        36        12  TIP3  H2           -9.0996931120        2.4631548367        1.5672363108  CLST          12          1.0000000000
        37        13  TIP3  OH2           7.8336621636        2.5138866865        2.1013145689  CLST          13          1.0000000000
        38        13  TIP3  H1            7.3310936059        3.1978278827        1.6005163355  CLST          13          1.0000000000
        39        13  TIP3  H2            7.6879111281        2.8265305284        3.0092364266  CLST          13          1.0000000000
        40        14  TIP3  OH2          -0.3331250451        2.1745274284        8.0942348193  CLST          14          1.0000000000
        41        14  TIP3  H1           -0.1101848052        3.0223120286        7.6145590481  CLST          14          1.0000000000
        42        14  TIP3  H2            0.3693309393        1.6041156007        7.7244713046  CLST          14          1.0000000000
        43        15  TIP3  OH2          -8.9899731690       -3.8271269605      -12.8210204873  CLST          15          1.0000000000
        44        15  TIP3  H1           -8.4101427533       -3.9664133325      -13.5921010129  CLST          15          1.0000000000
        45        15  TIP3  H2           -8.3658761036       -4.4477995376      -12.2652085986  CLST          15          1.0000000000
        46        16  TIP3  OH2          -3.7884066854      -12.7940823303       -6.2482925551  CLST          16          1.0000000000
        47        16  TIP3  H1           -4.2827573238      -12.7910971405       -5.3426151982  CLST          16          1.0000000000
        48        16  TIP3  H2           -2.8678630400      -12.8885530425       -5.8642368927  CLST          16          1.0000000000
        49        17  TIP3  OH2           4.8380820281      -13.1808709069       -8.4703222531  CLST          17          1.0000000000
        50        17  TIP3  H1            5.2718756017      -13.1453730159       -7.5818742752  CLST          17          1.0000000000
        51        17  TIP3  H2            3.9109464074      -13.2467527371       -8.0289155868  CLST          17          1.0000000000
        52        18  TIP3  OH2         -11.8284130177       -6.7706900631       -1.4878606631  CLST          18          1.0000000000
        53        18  TIP3  H1          -12.0084663533       -5.8642356577       -1.9624815887  CLST          18          1.0000000000
        54        18  TIP3  H2          -11.8381921215       -7.2163959908       -2.4070704631  CLST          18          1.0000000000
        55        19  TIP3  OH2          10.9250273608        0.0071293686        9.6600633288  CLST          19          1.0000000000
        56        19  TIP3  H1           10.2854099752       -0.6964211837        9.9190639253  CLST          19          1.0000000000
        57        19  TIP3  H2           10.9734872510       -0.1861994856        8.6889796508  CLST          19          1.0000000000
        58        20  TIP3  OH2         -13.3442769469        1.3714169212        2.7783340738  CLST          20          1.0000000000
        59        20  TIP3  H1          -13.0385367082        1.1739576112        1.8477160451  CLST          20          1.0000000000
        60        20  TIP3  H2          -14.2758937570        1.5121387737        2.5772616744  CLST          20          1.0000000000
        61        21  TIP3  OH2          -9.9799380508       12.6301310981       -5.3756678590  CLST          21          1.0000000000
        62        21  TIP3  H1          -10.0603054444       13.5433705757       -5.5426017884  CLST          21          1.0000000000
        63        21  TIP3  H2           -9.3169549309       12.4659252671       -6.0632280647  CLST          21          1.0000000000
        64        22  TIP3  OH2           2.7072084994       12.1490670252       -6.5106426893  CLST          22          1.0000000000
        65        22  TIP3  H1            2.9272994311       11.5409225411       -5.7969310051  CLST          22          1.0000000000
        66        22  TIP3  H2            3.3534156713       12.8380110357       -6.2695702923  CLST          22          1.0000000000
        67        23  TIP3  OH2           5.4731418572       -1.8406845378       11.3970375424  CLST          23          1.0000000000
        68        23  TIP3  H1            4.9651231293       -2.5463281387       10.9625267580  CLST          23          1.0000000000
        69        23  TIP3  H2            5.0184195315       -1.0689301211       10.9765881567  CLST          23          1.0000000000
        70        24  TIP3  OH2          -0.1923042248        1.1920534413        4.4869894159  CLST          24          1.0000000000
        71        24  TIP3  H1            0.4562818945        1.0988208443        5.2042335130  CLST          24          1.0000000000
        72        24  TIP3  H2           -0.9203128510        0.6111628277        4.8469699917  CLST          24          1.0000000000
        73        25  TIP3  OH2           3.2613511275        2.0626756395       -2.6523691461  CLST          25          1.0000000000
        74        25  TIP3  H1            3.6372952148        1.7125554166       -1.8099200888  CLST          25          1.0000000000
        75        25  TIP3  H2            3.5737488982        2.9928421897       -2.6460383815  CLST          25          1.0000000000
        76        26  TIP3  OH2          11.2759333455        5.3901347900       -6.4713534555  CLST          26          1.0000000000
        77        26  TIP3  H1           10.4268968930        5.1874441904       -6.9760991042  CLST          26          1.0000000000
        78        26  TIP3  H2           11.1206510761        6.2905072214       -6.1703908908  CLST          26          1.0000000000
        79        27  TIP3  OH2         -10.3225620439        7.3600786818       -5.3669950365  CLST          27          1.0000000000
        80        27  TIP3  H1          -10.4113763430        7.5767196090       -4.3582984779  CLST          27          1.0000000000
        81        27  TIP3  H2          -11.1287345194        7.7780491805       -5.6323603900  CLST          27          1.0000000000
        82        28  TIP3  OH2          -4.2952368876      -10.1955749599       -6.7865007091  CLST          28          1.0000000000
        83        28  TIP3  H1           -4.2793421052      -11.2122345047       -6.6130779069  CLST          28          1.0000000000
        84        28  TIP3  H2           -5.1656562016       -9.9965397340       -6.3149735261  CLST          28          1.0000000000
        85        29  TIP3  OH2         -10.6834016263        7.6291537225       -2.6929965845  CLST          29          1.0000000000
        86        29  TIP3  H1          -10.0490606261        8.1570907211       -2.1119696595  CLST          29          1.0000000000
        87        29  TIP3  H2          -11.5223290936        8.1263488186       -2.5039895774  CLST          29          1.0000000000
        88        30  TIP3  OH2           8.8471523588      -10.4465910828       -1.9627325955  CLST          30          1.0000000000
        89        30  TIP3  H1            9.4132629824      -11.1644622344       -1.5738391164  CLST          30          1.0000000000
        90        30  TIP3  H2            8.3865551334      -11.0969979360       -2.6153165967  CLST          30          1.0000000000
        91        31  TIP3  OH2          -9.7410725356       -1.3090366686      -13.0374056806  CLST          31          1.0000000000
        92        31  TIP3  H1           -9.6091027590       -2.2694026349      -12.8705419583  CLST          31          1.0000000000
        93        31  TIP3  H2           -9.6639500667       -0.9353591746      -12.1462578090  CLST          31          1.0000000000
        94        32  TIP3  OH2          -8.7940391176       -6.5760296937        7.0797335945  CLST          32          1.0000000000
        95        32  TIP3  H1           -9.7629437300       -6.3990355374        7.0206260662  CLST          32          1.0000000000
        96        32  TIP3  H2           -8.5740266732       -5.9511334230        6.3206960345  CLST          32          1.0000000000
        97        33  TIP3  OH2          11.7855113868       -9.0564268641        8.9054666692  CLST          33          1.0000000000
        98        33  TIP3  H1           11.8608824409       -9.9655471642        9.2829689009  CLST          33          1.0000000000
        99        33  TIP3  H2           11.4133339955       -8.5346412339        9.6240348067  CLST          33          1.0000000000
       100        34  TIP3  OH2           4.1752326320       -3.9348283978        2.9247329130  CLST          34          1.0000000000
       101        34  TIP3  H1            3.5593561325       -3.9880900805        2.1349484010  CLST          34          1.0000000000
       102        34  TIP3  H2            4.0983152398       -4.8275099195        3.3160833957  CLST          34          1.0000000000
       103        35  TIP3  OH2           6.0692882582       -0.9339207778        4.3789187819  CLST          35          1.0000000000
       104        35  TIP3  H1            5.1957135618       -1.1635340876        4.7409284392  CLST          35          1.0000000000
       105        35  TIP3  H2            6.5651787441       -0.4270545328        5.0419006895  CLST          35          1.0000000000
       106        36  TIP3  OH2          -1.5513754946        1.3957792784        2.1642601246  CLST          36          1.0000000000
       107        36  TIP3  H1           -2.2469424759        0.8012764757        2.5614347702  CLST          36          1.0000000000
       108        36  TIP3  H2           -1.0019788536        1.3970375610        3.0832633939  CLST          36          1.0000000000
       109        37  TIP3  OH2          -4.4582660888       -8.2623695130      -12.9391348857  CLST          37          1.0000000000
       110        37  TIP3  H1           -5.0879601593       -8.3860931912      -12.2360916556  CLST          37          1.0000000000
       111        37  TIP3  H2           -4.1349014021       -9.1281098792      -13.2498914603  CLST          37          1.0000000000
       112        38  TIP3  OH2          -3.1255350848        2.1247673950       -4.5253855457  CLST          38          1.0000000000
       113        38  TIP3  H1           -2.9634333025        3.0028875862       -4.9472005665  CLST          38          1.0000000000
       114        38  TIP3  H2           -3.5445112614        1.6880072520       -5.3086947650  CLST          38          1.0000000000
       115        39  TIP3  OH2           1.7343890595      -10.8478858504        2.0940008796  CLST          39          1.0000000000
       116        39  TIP3  H1            1.4940528268      -11.2738287787        2.9665712495  CLST          39          1.0000000000
       117        39  TIP3  H2            0.7969667240      -10.5533162292        1.8550525016  CLST          39          1.0000000000
       118        40  TIP3  OH2          -7.0698732345       12.5062742272        8.2720542007  CLST          40          1.0000000000
       119        40  TIP3  H1           -7.8977701139       12.8838285028        7.9445702537  CLST          40          1.0000000000
       120        40  TIP3  H2           -6.4032217594       12.8225697639        7.5835234393  CLST          40          1.0000000000
       121        41  TIP3  OH2           9.6979849954       -2.2076417069      -11.0156614009  CLST          41          1.0000000000
       122        41  TIP3  H1            8.9546439398       -2.8411286267      -10.6981504558  CLST          41          1.0000000000
       123        41  TIP3  H2            9.3296864775       -1.4007441637      -10.7496746490  CLST          41          1.0000000000
       124        42  TIP3  OH2           9.5777037606       10.3482824038      -10.6533488890  CLST          42          1.0000000000
       125        42  TIP3  H1           10.4216011868       10.3589601449      -10.1229335053  CLST          42          1.0000000000
       126        42  TIP3  H2           10.0608051973       10.3806673089      -11.5467217215  CLST          42          1.0000000000
       127        43  TIP3  OH2          12.0543131241       12.6901474013        7.7161076563  CLST          43          1.0000000000
       128        43  TIP3  H1           12.6297058559       13.3772511991        7.8776104091  CLST          43          1.0000000000
       129        43  TIP3  H2           12.5042974507       11.8666119798        8.0814747675  CLST          43          1.0000000000
       130        44  TIP3  OH2           7.6757931987        0.9752602766        5.9563913723  CLST          44          1.0000000000
       131        44  TIP3  H1            7.9809986923        1.3550591479        6.8144993070  CLST          44          1.0000000000
       132        44  TIP3  H2            7.4981090637        1.8513021836        5.5235174041  CLST          44          1.0000000000
       133        45  TIP3  OH2           7.9592636274        9.3937001538        7.4056236528  CLST          45          1.0000000000
       134        45  TIP3  H1            7.4912216849        8.5664227389        7.6223630905  CLST          45          1.0000000000
       135        45  TIP3  H2            8.8153951289        9.2951391384        7.8889200460  CLST          45          1.0000000000
       136        46  TIP3  OH2          -5.6531294171       -3.0370097245      -12.9343595496  CLST          46          1.0000000000
       137        46  TIP3  H1           -5.4532291574       -4.0001557592      -13.1676855177  CLST          46          1.0000000000
       138        46  TIP3  H2           -4.8471063562       -2.9693963604      -12.3621944951  CLST          46          1.0000000000
       139        47  TIP3  OH2           1.4081048490       -6.5907214640      -11.0507268656  CLST          47          1.0000000000
       140        47  TIP3  H1            1.7475920158       -5.6945984035      -10.8014998897  CLST          47          1.0000000000
       141        47  TIP3  H2            1.1798500263       -6.3558404262      -11.9779160680  CLST          47          1.0000000000
       142        48  TIP3  OH2           5.0274888743        5.6611290073        1.0291871991  CLST          48          1.0000000000
       143        48  TIP3  H1            5.8783777677        5.3506560154        0.6113003202  CLST          48          1.0000000000
       144        48  TIP3  H2            5.3346688931        6.6009452789        1.1515233076  CLST          48          1.0000000000
       145        49  TIP3  OH2          -3.2745525494      -10.7908314191      -13.8197553063  CLST          49          1.0000000000
       146        49  TIP3  H1           -2.6933756057      -10.9016325998      -13.0514441533  CLST          49          1.0000000000
       147        49  TIP3  H2           -3.9788269121      -11.3832595060      -13.5658786598  CLST          49          1.0000000000
       148        50  TIP3  OH2           2.7934087257        3.8625633190        5.9126676508  CLST          50          1.0000000000
       149        50  TIP3  H1            2.0017510267        4.2108599302        6.4474903958  CLST          50          1.0000000000
       150        50  TIP3  H2            2.3727051377        3.6585681023        5.0681086086  CLST          50          1.0000000000
       151        51  TIP3  OH2          -6.4029023010      -10.1143526436       -4.7618362288  CLST          51          1.0000000000
       152        51  TIP3  H1           -6.3000840050      -10.0559028054       -3.7723815888  CLST          51          1.0000000000
       153        51  TIP3  H2           -6.5036117309      -11.0799256054       -4.8831879378  CLST          51          1.0000000000
       154        52  TIP3  OH2           9.1667475139       -5.7842482093       -0.0680395339  CLST          52          1.0000000000
       155        52  TIP3  H1            9.5232565958       -5.4918593904       -0.9528059347  CLST          52          1.0000000000
       156        52  TIP3  H2            9.0871053115       -4.8877957142        0.3178815602  CLST          52          1.0000000000
       157        53  TIP3  OH2          -9.5806475791       10.0815990243      -12.5524179995  CLST          53          1.0000000000
       158        53  TIP3  H1           -9.8530148486       10.1945011607      -13.4036030782  CLST          53          1.0000000000
       159        53  TIP3  H2           -8.6498369847        9.6777907862      -12.5283670372  CLST          53          1.0000000000
       160        54  TIP3  OH2           0.5090132523       -2.9616175062       -9.5966498023  CLST          54          1.0000000000
       161        54  TIP3  H1            1.3809888003       -3.2134492795       -9.9339203000  CLST          54          1.0000000000
       162        54  TIP3  H2            0.1577458865       -2.3067732417      -10.2722007177  CLST          54          1.0000000000
       163        55  TIP3  OH2           2.8924137053       -4.1312332741      -14.7485702629  CLST          55          1.0000000000
       164        55  TIP3  H1            3.2019891947       -5.0035900994      -14.5337996719  CLST          55          1.0000000000
       165        55  TIP3  H2            2.8773858385       -4.0680117660      -15.6767859255  CLST          55          1.0000000000
       166        56  TIP3  OH2          -9.9927190819       10.9570847142        5.7206139774  CLST          56          1.0000000000
       167        56  TIP3  H1          -10.0387648439       10.1735082100        6.3322651697  CLST          56          1.0000000000
       168        56  TIP3  H2          -10.3381138478       10.5226850191        4.9085050539  CLST          56          1.0000000000
       169        57  TIP3  OH2           1.5899235189      -13.2616499836        0.2938490557  CLST          57          1.0000000000
       170        57  TIP3  H1            1.6542403541      -12.6896201599        1.0659189706  CLST          57          1.0000000000
       171        57  TIP3  H2            2.3853342097      -12.9234591930       -0.1698805726  CLST          57          1.0000000000
       172        58  TIP3  OH2         -13.1378878329       10.5374202129        7.0134123058  CLST          58          1.0000000000
       173        58  TIP3  H1          -12.7954367786       11.3962178726        6.7281956836  CLST          58          1.0000000000
       174        58  TIP3  H2          -12.7331684116       10.5668253809        7.9470627782  CLST          58          1.0000000000
       175        59  TIP3  OH2         -11.6118369718       -2.7299564175        5.4147631989  CLST          59          1.0000000000
       176        59  TIP3  H1          -11.9489451995       -2.5803039857        6.3648505752  CLST          59          1.0000000000
       177        59  TIP3  H2          -11.6045506798       -1.7426448396        5.1548366743  CLST          59          1.0000000000
       178        60  TIP3  OH2           1.4452332505        9.5715843106        8.4971914578  CLST          60          1.0000000000
       179        60  TIP3  H1            0.6094300354        9.0224912097        8.2797830059  CLST          60          1.0000000000
       180        60  TIP3  H2            1.9747184383        8.7438990155        8.7829254376  CLST          60          1.0000000000
       181        61  TIP3  OH2           2.8340913433       -0.5184968595       -5.6182211426  CLST          61          1.0000000000
       182        61  TIP3  H1            3.2383058821       -1.4446406894       -5.5595589324  CLST          61          1.0000000000
       183        61  TIP3  H2            2.0792949427       -0.7027887096       -6.2281871514  CLST          61          1.0000000000
       184        62  TIP3  OH2           8.0061561736        8.6284347522       12.5852882102  CLST          62          1.0000000000
       185        62  TIP3  H1            8.0206410748        7.7046816290       12.2866669792  CLST          62          1.0000000000
       186        62  TIP3  H2            8.2727363950        9.0933772110       11.7631176716  CLST          62          1.0000000000
       187        63  TIP3  OH2           4.7263888233       -7.1948612906      -10.3241331007  CLST          63          1.0000000000
       188        63  TIP3  H1            3.8542781401       -7.3008439239      -10.7327680724  CLST          63          1.0000000000
       189        63  TIP3  H2            5.2733842070       -7.6331561943      -11.0546198659  CLST          63          1.0000000000
       190        64  TIP3  OH2          -2.2511816486       11.7501533606        5.4826326780  CLST          64          1.0000000000
       191        64  TIP3  H1           -2.3942871837       10.7676391297        5.5352335074  CLST          64          1.0000000000
       192        64  TIP3  H2           -1.5346169862       11.7509308113        6.1929016443  CLST          64          1.0000000000
       193        65  TIP3  OH2          10.8786447111       -4.2224234718       -5.3702154102  CLST          65          1.0000000000
       194        65  TIP3  H1           11.1037544637       -3.9799518760       -6.3133297074  CLST          65          1.0000000000
       195        65  TIP3  H2           10.7868486491       -3.2678086184       -5.1090684628  CLST          65          1.0000000000
       196        66  TIP3  OH2           6.1057395176       -9.9515644869        9.4195563591  CLST          66          1.0000000000
       197        66  TIP3  H1            5.3366236661       -9.6739170984        8.8486468961  CLST          66          1.0000000000
       198        66  TIP3  H2            6.5929159380       -9.1090976038        9.3836630015  CLST          66          1.0000000000
       199        67  TIP3  OH2         -11.5546198132       -7.5109242563       -3.8604122318  CLST          67          1.0000000000
       200        67  TIP3  H1          -10.8029292633       -6.9526531419       -4.1625312299  CLST          67          1.0000000000
       201        67  TIP3  H2          -11.7370072963       -7.9216536002       -4.7139390384  CLST          67          1.0000000000
       202        68  TIP3  OH2          -0.8397939417       -5.4029319119        5.3700797925  CLST          68          1.0000000000
       203        68  TIP3  H1            0.1418029744       -5.5318769048        5.5319649629  CLST          68          1.0000000000
       204        68  TIP3  H2           -1.0798425659       -5.2024588448        6.3513166915  CLST          68          1.0000000000
       205        69  TIP3  OH2           7.9362083971       11.6271187716       -8.7786356652  CLST          69          1.0000000000
       206        69  TIP3  H1            8.4166761493       11.2354904625       -9.6019342031  CLST          69          1.0000000000
       207        69  TIP3  H2            8.7878968329       11.6999006433       -8.2464484837  CLST          69          1.0000000000
       208        70  TIP3  OH2          -0.9720938310      -12.3205859731       -0.5097604081  CLST          70          1.0000000000
       209        70  TIP3  H1           -0.0244560051      -12.6178718943       -0.4634936935  CLST          70          1.0000000000
       210        70  TIP3  H2           -1.2076303877      -12.5232986359        0.4136194320  CLST          70          1.0000000000
       211        71  TIP3  OH2         -10.2255135766       -7.3851353121        2.0139758612  CLST          71          1.0000000000
       212        71  TIP3  H1          -10.6836822520       -6.6351431988        2.4031526365  CLST          71          1.0000000000
       213        71  TIP3  H2          -10.7540056424       -7.7822463047        1.2967183880  CLST          71          1.0000000000
       214        72  TIP3  OH2           0.0980537700        1.9706780904       -1.4909143272  CLST          72          1.0000000000
       215        72  TIP3  H1           -0.2523052575        1.0430948671       -1.5268810220  CLST          72          1.0000000000
       216        72  TIP3  H2            1.0002633088        1.7705027232       -1.8404798509  CLST          72          1.0000000000
       217        73  TIP3  OH2          -9.8031659583       13.2069772156        7.4483949955  CLST          73          1.0000000000
       218        73  TIP3  H1           -9.8923181578       12.4817916386        6.7738572231  CLST          73          1.0000000000
       219        73  TIP3  H2          -10.3806113575       13.8914130652        6.7315147410  CLST          73          1.0000000000
       220        74  TIP3  OH2           6.5083976790       -2.7443808492       -3.6457238436  CLST          74          1.0000000000
       221        74  TIP3  H1            6.4425294330       -3.6432299090       -3.2988239168  CLST          74          1.0000000000
       222        74  TIP3  H2            7.4692626615       -2.5493728422       -3.3013774354  CLST          74          1.0000000000
       223        75  TIP3  OH2           2.8845921408      -13.3121408261       -6.6910829333  CLST          75          1.0000000000
       224        75  TIP3  H1            3.0132075509      -12.4597658505       -6.1729173834  CLST          75          1.0000000000
       225        75  TIP3  H2            2.8666869726      -13.8692587085       -5.8380161879  CLST          75          1.0000000000
       226        76  TIP3  OH2           3.9774021601       -9.6936345746        1.3085780819  CLST          76          1.0000000000
       227        76  TIP3  H1            4.1988375762       -8.8233991142        1.6656794381  CLST          76          1.0000000000
       228        76  TIP3  H2            3.0801232187       -9.9409153103        1.6117012939  CLST          76          1.0000000000
       229        77  TIP3  OH2          10.3160872282       -8.2385795916       -2.6525719369  CLST          77          1.0000000000
       230        77  TIP3  H1            9.6613404352       -8.9109248433       -2.3506150933  CLST          77          1.0000000000
       231        77  TIP3  H2           10.1853817127       -8.2994969191       -3.6187578469  CLST          77          1.0000000000
       232        78  TIP3  OH2          10.7419808533       11.6621381071       -7.7500989189  CLST          78          1.0000000000
       233        78  TIP3  H1           11.4131228617       11.0534746561       -8.1098398287  CLST          78          1.0000000000
       234        78  TIP3  H2           11.1623474268       12.2169242719       -7.2633104602  CLST          78          1.0000000000
       235        79  TIP3  OH2          12.7124516007        0.5383308401        1.1708691227  CLST          79          1.0000000000
       236        79  TIP3  H1           13.5510691707        0.6781478441        1.3184502055  CLST          79          1.0000000000
       237        79  TIP3  H2           12.0593245793        1.2335360400        1.4470255597  CLST          79          1.0000000000
       238        80  TIP3  OH2          -7.4872989470       -0.1351126187        6.6942563833  CLST          80          1.0000000000
       239        80  TIP3  H1           -7.5344131432        0.4116468623        5.8735312519  CLST          80          1.0000000000
       240        80  TIP3  H2           -6.5317733836       -0.3830410192        6.7181005149  CLST          80          1.0000000000
       241        81  TIP3  OH2          -7.5181845484      -10.9423244840        2.2748541259  CLST          81          1.0000000000
       242        81  TIP3  H1           -6.7120691360      -10.9928747256        1.6355085215  CLST          81          1.0000000000
       243        81  TIP3  H2           -7.0658977319      -11.2905218384        3.1108517539  CLST          81          1.0000000000
       244        82  TIP3  OH2          -1.5307496977       -9.8700595036       -6.6174337320  CLST          82          1.0000000000
       245        82  TIP3  H1           -2.5302755129       -9.7964418190       -6.5188577503  CLST          82          1.0000000000
       246        82  TIP3  H2           -1.3345525659      -10.5806515634       -6.0120660165  CLST          82          1.0000000000
       247        83  TIP3  OH2          12.4186395893       -8.6286849732        1.5189104850  CLST          83          1.0000000000
       248        83  TIP3  H1           12.7559147090       -8.1394489225        2.3108132153  CLST          83          1.0000000000
       249        83  TIP3  H2           11.4837880461       -8.3378829844        1.4336815935  CLST          83          1.0000000000
       250        84  TIP3  OH2          -3.7098022554       11.0462809754       -2.2752770386  CLST          84          1.0000000000
       251        84  TIP3  H1           -4.6377348087       10.9715496166       -2.7338944483  CLST          84          1.0000000000
       252        84  TIP3  H2           -3.7911867927       11.8353882451       -1.8764401750  CLST          84          1.0000000000
       253        85  TIP3  OH2           5.7728894475       -2.0855562309       -0.0442863595  CLST          85          1.0000000000
       254        85  TIP3  H1            5.8038824116       -1.6002732626        0.7733476118  CLST          85          1.0000000000
       255        85  TIP3  H2            6.6620154873       -2.5185405684       -0.0265029107  CLST          85          1.0000000000
       256        86  TIP3  OH2           6.5451459249       -8.4639426722        5.7952844294  CLST          86          1.0000000000
       257        86  TIP3  H1            5.9584784148       -8.7941143141        6.5323848913  CLST          86          1.0000000000
       258        86  TIP3  H2            6.0553795546       -7.6191408325        5.6272198392  CLST          86          1.0000000000
       259        87  TIP3  OH2          -1.3558911705       -3.7400747455       10.7181096240  CLST          87          1.0000000000
       260        87  TIP3  H1           -0.8164215580       -4.1391438430       11.4627289771  CLST          87          1.0000000000
       261        87  TIP3  H2           -2.2964645553       -4.1448009151       10.8230279867  CLST          87          1.0000000000
       262        88  TIP3  OH2          -0.7232149923        4.3920748161       -8.0130156599  CLST          88          1.0000000000
       263        88  TIP3  H1           -1.1468522867        3.4781268128       -7.9059281940  CLST          88          1.0000000000
       264        88  TIP3  H2           -1.5836681026        4.8657466158       -8.1551653757  CLST          88          1.0000000000
       265        89  TIP3  OH2           3.3501725945        0.7851663820      -11.7352089984  CLST          89          1.0000000000
       266        89  TIP3  H1            3.5539006876        1.4512347640      -12.2903887283  CLST          89          1.0000000000
       267        89  TIP3  H2            3.3136403299       -0.0018446270      -12.3009448483  CLST          89          1.0000000000
       268        90  TIP3  OH2           5.4976628148       11.0889138120       -5.4000563252  CLST          90          1.0000000000
       269        90  TIP3  H1            5.1912461666       11.8506827011       -4.7999343295  CLST          90          1.0000000000
       270        90  TIP3  H2            5.3767074639       11.6388699788       -6.2502240750  CLST          90          1.0000000000
       271        91  TIP3  OH2           5.9057147553       -8.0082735421      -12.5228288750  CLST          91          1.0000000000
       272        91  TIP3  H1            6.2603733285       -8.9389862523      -12.4463557726  CLST          91          1.0000000000
       273        91  TIP3  H2            6.7240266329       -7.4843632004      -12.3381152622  CLST          91          1.0000000000
       274        92  TIP3  OH2           9.8259479827       11.4365859743        2.4562699416  CLST          92          1.0000000000
       275        92  TIP3  H1           10.0200665128       11.8007406674        3.3759347231  CLST          92          1.0000000000
       276        92  TIP3  H2            9.5023657032       12.2119281424        2.0356120820  CLST          92          1.0000000000
       277        93  TIP3  OH2          -8.8332866910        7.2498174556        2.7628386485  CLST          93          1.0000000000
       278        93  TIP3  H1           -8.5702787715        8.1919237034        2.8151596328  CLST          93          1.0000000000
       279        93  TIP3  H2           -7.9588026661        6.8472055352        2.9942210162  CLST          93          1.0000000000
       280        94  TIP3  OH2         -14.1627793104        6.6753529274        6.5269009712  CLST          94          1.0000000000
       281        94  TIP3  H1          -13.5779639743        7.4558586323        6.3783422405  CLST          94          1.0000000000
       282        94  TIP3  H2          -14.3083139459        6.4908281202        5.5665989817  CLST          94          1.0000000000
       283        95  TIP3  OH2           9.6990360277        5.7176367207       -1.8253782031  CLST          95          1.0000000000
       284        95  TIP3  H1            9.6040346769        5.8275984853       -0.8490103771  CLST          95          1.0000000000
       285        95  TIP3  H2           10.5568689775        5.2028150042       -1.7407307125  CLST          95          1.0000000000
       286        96  TIP3  OH2           9.5586771355      -11.0375828277       11.2937969289  CLST          96          1.0000000000
       287        96  TIP3  H1           10.2901609596      -11.2482485710       10.6853244739  CLST          96          1.0000000000
       288        96  TIP3  H2            9.2604848583      -11.9381361630       11.4717274780  CLST          96          1.0000000000
       289        97  TIP3  OH2          -7.6496812122        6.9622830578        8.5675698682  CLST          97          1.0000000000
       290        97  TIP3  H1           -7.3040231126        5.9823227752        8.9801887218  CLST          97          1.0000000000
       291        97  TIP3  H2           -8.6230000855        6.7265170052        8.6725043986  CLST          97          1.0000000000
       292        98  TIP3  OH2           6.0141238982        0.5741607431       -3.4885574555  CLST          98          1.0000000000
       293        98  TIP3  H1            6.7218699274        0.3044566601       -2.8381830745  CLST          98          1.0000000000
       294        98  TIP3  H2            5.2426283829        0.1547106515       -3.0490280768  CLST          98          1.0000000000
       295        99  TIP3  OH2          -6.7642226141      -11.5020106222        4.8311022983  CLST          99          1.0000000000
       296        99  TIP3  H1           -6.8846581416      -11.0999508020        5.7297262354  CLST          99          1.0000000000
       297        99  TIP3  H2           -5.9440689081      -11.9958023485        5.1208077730  CLST          99          1.0000000000
       298       100  TIP3  OH2           2.4391542741        0.4431887504       -9.1369232066  CLST         100          1.0000000000
       299       100  TIP3  H1            2.6912426989        0.4765840964      -10.0949475755  CLST         100          1.0000000000
       300       100  TIP3  H2            2.8878012662        1.2526024102       -8.8756274763  CLST         100          1.0000000000
       301       101  TIP3  OH2          12.7730512906       -6.9067136390        3.8237527039  CLST         101          1.0000000000
       302       101  TIP3  H1           12.6372001281       -7.5586334412        4.5681997131  CLST         101          1.0000000000
       303       101  TIP3  H2           13.5702431842       -6.5257423119        4.1504579049  CLST         101          1.0000000000
       304       102  TIP3  OH2         -12.2022802904       10.3577204896        1.2864844247  CLST         102          1.0000000000
       305       102  TIP3  H1          -12.7595802305        9.9087791315        1.9633379346  CLST         102          1.0000000000
       306       102  TIP3  H2          -12.5337066541        9.9435716298        0.4693485424  CLST         102          1.0000000000
       307       103  TIP3  OH2          -0.6254159900       -9.4385434573        7.7154260138  CLST         103          1.0000000000
       308       103  TIP3  H1            0.0255139929       -9.4655623376        8.5073894003  CLST         103          1.0000000000
       309       103  TIP3  H2           -1.1920161278      -10.1947442376        8.0449687858  CLST         103          1.0000000000
       310       104  TIP3  OH2          -4.3975961471      -12.0781460831        9.9327301076  CLST         104          1.0000000000
       311       104  TIP3  H1           -4.9672007954      -11.4676729123       10.4160823698  CLST         104          1.0000000000
       312       104  TIP3  H2           -4.9437886454      -12.8439122962        9.6462598517  CLST         104          1.0000000000
       313       105  TIP3  OH2          -5.2577131898       10.6272411537      -11.5091351772  CLST         105          1.0000000000
       314       105  TIP3  H1           -4.9232693021       11.0653306307      -12.3150161043  CLST         105          1.0000000000
       315       105  TIP3  H2           -5.9414406411       10.0011461915      -11.8379306913  CLST         105          1.0000000000
       316       106  TIP3  OH2           7.3987587136       -7.9953108831       -1.2690759206  CLST         106          1.0000000000
       317       106  TIP3  H1            8.0487408051       -7.3267373894       -1.0598722930  CLST         106          1.0000000000
       318       106  TIP3  H2            7.8145045019       -8.8675523807       -1.2908468160  CLST         106          1.0000000000
       319       107  TIP3  OH2          -8.3230510969       -4.8477366492        5.1433715356  CLST         107          1.0000000000
       320       107  TIP3  H1           -8.8450342799       -4.3618944662        4.4547722464  CLST         107          1.0000000000
       321       107  TIP3  H2           -7.4066911044       -4.6289442824        4.8126979131  CLST         107          1.0000000000
       322       108  TIP3  OH2         -10.5307894220        2.0055844855        9.5184747755  CLST         108          1.0000000000
       323       108  TIP3  H1           -9.5685129939        1.7785250663        9.4846153821  CLST         108          1.0000000000
       324       108  TIP3  H2          -10.8342494307        1.1672186038        9.9539878644  CLST         108          1.0000000000
       325       109  TIP3  OH2           2.4866248518        7.0938700482        8.6775111343  CLST         109          1.0000000000
       326       109  TIP3  H1            1.8085235197        6.6403267410        9.2032798481  CLST         109          1.0000000000
       327       109  TIP3  H2            3.1138068257        6.3348570636        8.5318338031  CLST         109          1.0000000000
       328       110  TIP3  OH2           1.7536584565       12.2704096539      -11.2133543096  CLST         110          1.0000000000
       329       110  TIP3  H1            2.3413795241       12.9402528656      -11.0164991959  CLST         110          1.0000000000
       330       110  TIP3  H2            1.2278841145       12.2619232289      -10.3842472137  CLST         110          1.0000000000
       331       111  TIP3  OH2          11.8473146739      -11.6802089240        9.5123218885  CLST         111          1.0000000000
       332       111  TIP3  H1           12.7052281904      -11.9435361623        9.5414645810  CLST         111          1.0000000000
       333       111  TIP3  H2           11.4880343748      -12.5252296020        9.0939669600  CLST         111          1.0000000000
       334       112  TIP3  OH2           6.5107092370       -0.0295632397        1.7469746803  CLST         112          1.0000000000
       335       112  TIP3  H1            7.0846944436        0.7882527092        1.7414328031  CLST         112          1.0000000000
       336       112  TIP3  H2            6.1998642984       -0.1866787631        2.6447667394  CLST         112          1.0000000000
       337       113  TIP3  OH2         -12.8889657456        0.9471246353        0.0738929099  CLST         113          1.0000000000
       338       113  TIP3  H1          -13.4095253341        0.0407427153       -0.0738132331  CLST         113          1.0000000000
       339       113  TIP3  H2          -12.4246929759        0.8895982374       -0.7910473109  CLST         113          1.0000000000
       340       114  TIP3  OH2         -13.8680007407        3.4974784316       -0.2654855404  CLST         114          1.0000000000
       341       114  TIP3  H1          -13.5985130032        2.5699560503       -0.0292165607  CLST         114          1.0000000000
       342       114  TIP3  H2          -13.3217960460        3.5096881892       -1.0959988449  CLST         114          1.0000000000
       343       115  TIP3  OH2          -8.9169477163        0.3502568540      -10.7764292479  CLST         115          1.0000000000
       344       115  TIP3  H1           -8.1380339287        0.7635209418      -11.2430555702  CLST         115          1.0000000000
       345       115  TIP3  H2           -9.3698750427        1.2300850550      -10.7429178337  CLST         115          1.0000000000
       346       116  TIP3  OH2           6.9000074546       -5.8042472252        2.0564104126  CLST         116          1.0000000000
       347       116  TIP3  H1            7.5959805496       -5.9845169502        1.3857795753  CLST         116          1.0000000000
       348       116  TIP3  H2            7.0109471254       -4.8857235153        2.3420717043  CLST         116          1.0000000000
       349       117  TIP3  OH2          -0.8644481286        0.2136723298       12.3161535635  CLST         117          1.0000000000
       350       117  TIP3  H1           -0.2195633710       -0.4685025721       12.6096783470  CLST         117          1.0000000000
       351       117  TIP3  H2           -0.6877950797        0.8867450884       12.9994969655  CLST         117          1.0000000000
       352       118  TIP3  OH2           0.1743191167       -9.5616573239        4.9465930803  CLST         118          1.0000000000
       353       118  TIP3  H1           -0.0004407474       -9.4189185628        5.8887992637  CLST         118          1.0000000000
       354       118  TIP3  H2           -0.1111509728       -8.7609962266        4.4271289718  CLST         118          1.0000000000
       355       119  TIP3  OH2          -9.0687113421      -10.4283951558       -8.7746490762  CLST         119          1.0000000000
       356       119  TIP3  H1           -9.2385501787      -10.9135897740       -9.6097494262  CLST         119          1.0000000000
       357       119  TIP3  H2           -8.6772108504       -9.6332830524       -9.1508848273  CLST         119          1.0000000000
       358       120  TIP3  OH2           9.7011971770       -7.9356161312        1.1651236552  CLST         120          1.0000000000
       359       120  TIP3  H1            8.9536142921       -8.4688343658        0.7692327508  CLST         120          1.0000000000
       360       120  TIP3  H2            9.6397701380       -7.1292042857        0.5593502825  CLST         120          1.0000000000
       361       121  TIP3  OH2          -5.6213642511       -0.2491928982       -8.0203962915  CLST         121          1.0000000000
       362       121  TIP3  H1           -5.5688687336       -0.2040531992       -9.0135179630  CLST         121          1.0000000000
       363       121  TIP3  H2           -4.9982965701       -1.0193337170       -7.9351314547  CLST         121          1.0000000000
       364       122  TIP3  OH2          10.4527047810       12.0327114340        5.2618715045  CLST         122          1.0000000000
       365       122  TIP3  H1            9.5557435982       12.3887989725        5.5578094430  CLST         122          1.0000000000
       366       122  TIP3  H2           10.9545591988       12.2895107371        6.0812994151  CLST         122          1.0000000000
       367       123  TIP3  OH2          -7.2924432891       -5.3706717954      -11.2542868265  CLST         123          1.0000000000
       368       123  TIP3  H1           -6.5157090605       -5.7858766191      -11.5872439461  CLST         123          1.0000000000
       369       123  TIP3  H2           -7.2744507677       -5.3260707745      -10.2742937752  CLST         123          1.0000000000
       370       124  TIP3  OH2          -5.9531842698       -8.5644171266      -10.6830231694  CLST         124          1.0000000000
       371       124  TIP3  H1           -5.1516760567       -8.8860584929      -10.1812366545  CLST         124          1.0000000000
       372       124  TIP3  H2           -6.4976827596       -8.1737928371       -9.9429444222  CLST         124          1.0000000000
       373       125  TIP3  OH2         -13.3655180470        4.1051546024        8.0280982942  CLST         125          1.0000000000
       374       125  TIP3  H1          -13.0926050739        3.3604491759        7.4527296393  CLST         125          1.0000000000
       375       125  TIP3  H2          -13.6509852294        4.8387679622        7.5150071327  CLST         125          1.0000000000
       376       126  TIP3  OH2          -7.0598455428      -10.6923291100      -12.2574530233  CLST         126          1.0000000000
       377       126  TIP3  H1           -6.2730051966      -11.3064577689      -12.0570705060  CLST         126          1.0000000000
       378       126  TIP3  H2           -6.7018490083       -9.8807768530      -11.7697654594  CLST         126          1.0000000000
       379       127  TIP3  OH2          -7.3002714216      -11.6048992779       -7.1483134477  CLST         127          1.0000000000
       380       127  TIP3  H1           -7.7848391101      -12.4417058026       -7.2371673737  CLST         127          1.0000000000
       381       127  TIP3  H2           -7.8071118197      -11.0925610233       -7.8520961949  CLST         127          1.0000000000
       382       128  TIP3  OH2          10.0186763770        0.8649342989       -2.4825034970  CLST         128          1.0000000000
       383       128  TIP3  H1            9.0796182627        0.7389269870       -2.1800854676  CLST         128          1.0000000000
       384       128  TIP3  H2            9.8709007695        1.4489888267       -3.2558534023  CLST         128          1.0000000000
       385       129  TIP3  OH2          -7.8099986139        9.6458381518        1.0894212211  CLST         129          1.0000000000
       386       129  TIP3  H1           -6.9115808623       10.1069243095        1.2711817860  CLST         129          1.0000000000
       387       129  TIP3  H2           -7.2876107905        8.8340098543        0.7062002566  CLST         129          1.0000000000
       388       130  TIP3  OH2          -3.9406359102        3.9522327984        9.8591455704  CLST         130          1.0000000000
       389       130  TIP3  H1           -3.3825968460        4.7627988927        9.8766306679  CLST         130          1.0000000000
       390       130  TIP3  H2           -3.6159448064        3.4231017269       10.6284654421  CLST         130          1.0000000000
       391       131  TIP3  OH2           7.8424592547       -3.7319946270       -9.9185100056  CLST         131          1.0000000000
       392       131  TIP3  H1            7.8287528425       -2.9681454790       -9.2490826030  CLST         131          1.0000000000
       393       131  TIP3  H2            6.8643570306       -4.0128793359       -9.8148655666  CLST         131          1.0000000000
       394       132  TIP3  OH2         -11.5372302349       11.3679903707       12.3488519904  CLST         132          1.0000000000
       395       132  TIP3  H1          -11.1668157469       12.0678037499       11.6899123183  CLST         132          1.0000000000
       396       132  TIP3  H2          -12.1294798119       11.7203635664       12.8267374340  CLST         132          1.0000000000
       397       133  TIP3  OH2          10.3667803146        9.4097653227        8.5866106326  CLST         133          1.0000000000
       398       133  TIP3  H1           10.4311437818        8.9568354770        9.4680641967  CLST         133          1.0000000000
       399       133  TIP3  H2           11.2675170062        9.8045396531        8.5904649352  CLST         133          1.0000000000
       400       134  TIP3  OH2          -7.7608682027        5.7349877682       -5.9286279121  CLST         134          1.0000000000
       401       134  TIP3  H1           -8.4416322067        6.3923846258       -5.7740471319  CLST         134          1.0000000000
       402       134  TIP3  H2           -7.4068828983        5.7473131713       -4.9534694531  CLST         134          1.0000000000
       403       135  TIP3  OH2          10.8870920353      -11.1778434785      -13.2630912243  CLST         135          1.0000000000
       404       135  TIP3  H1           11.0811719814      -10.3452588640      -12.7862807749  CLST         135          1.0000000000
       405       135  TIP3  H2           11.0638921402      -11.0246746938      -14.1637714612  CLST         135          1.0000000000
       406       136  TIP3  OH2          -4.3277356573        1.8246469074       -7.1091696251  CLST         136          1.0000000000
       407       136  TIP3  H1           -4.8744595417        1.0317609085       -7.4656126842  CLST         136          1.0000000000
       408       136  TIP3  H2           -5.0847804783        2.2467459928       -6.5925524472  CLST         136          1.0000000000
       409       137  TIP3  OH2          12.8288742759       10.2448602706        8.9912227531  CLST         137          1.0000000000
       410       137  TIP3  H1           12.7704494235       10.1559169093        9.9912362011  CLST         137          1.0000000000
       411       137  TIP3  H2           13.4296341739        9.5295147955        8.7713041082  CLST         137          1.0000000000
       412       138  TIP3  OH2          -0.8557942181       -9.9506928482        1.6214439358  CLST         138          1.0000000000
       413       138  TIP3  H1           -1.0177388589       -9.7482904861        0.6797417693  CLST         138          1.0000000000
       414       138  TIP3  H2           -0.9393466757       -9.1351506563        2.1690257915  CLST         138          1.0000000000
       415       139  TIP3  OH2          -9.6491923304      -10.8237907713        4.6193183069  CLST         139          1.0000000000
       416       139  TIP3  H1          -10.1067789324      -10.7528312394        3.7606941623  CLST         139          1.0000000000
       417       139  TIP3  H2           -8.8222676713      -11.2419312857        4.3100302464  CLST         139          1.0000000000
       418       140  TIP3  OH2          -6.9638284313        3.3289167511       -0.3212081883  CLST         140          1.0000000000
       419       140  TIP3  H1           -6.1499937616        3.8845334435       -0.1385933902  CLST         140          1.0000000000
       420       140  TIP3  H2           -7.5706634546        4.0271024101       -0.6033021545  CLST         140          1.0000000000
       421       141  TIP3  OH2           1.9656028479       -4.5125911893       -3.5863792395  CLST         141          1.0000000000
       422       141  TIP3  H1            1.7197258496       -3.6099809756       -3.1619547923  CLST         141          1.0000000000
       423       141  TIP3  H2            2.5006854487       -4.0594522645       -4.2875196236  CLST         141          1.0000000000
       424       142  TIP3  OH2         -11.6742161904       -0.0364317055        4.5608477817  CLST         142          1.0000000000
       425       142  TIP3  H1          -11.8359605542        0.6280384515        5.2740050329  CLST         142          1.0000000000
       426       142  TIP3  H2          -12.0174916303        0.5445287339        3.8581245744  CLST         142          1.0000000000
       427       143  TIP3  OH2           9.3999546386       -5.7033181963       -8.2429655799  CLST         143          1.0000000000
       428       143  TIP3  H1            9.1756810813       -5.1965658593       -9.0303521941  CLST         143          1.0000000000
       429       143  TIP3  H2            9.9765876213       -6.4393053762       -8.5681801996  CLST         143          1.0000000000
       430       144  TIP3  OH2           3.2740854185       -2.8824739807        9.1463884277  CLST         144          1.0000000000
       431       144  TIP3  H1            2.4063509282       -2.5995627238        9.5561491876  CLST         144          1.0000000000
       432       144  TIP3  H2            3.1849859540       -2.1667653916        8.4178020874  CLST         144          1.0000000000
       433       145  TIP3  OH2         -10.2260593229       13.4078554063        3.1328699082  CLST         145          1.0000000000
       434       145  TIP3  H1          -10.5616538243       13.2214987306        2.2080929990  CLST         145          1.0000000000
       435       145  TIP3  H2           -9.9248120010       12.4697569499        3.2714878235  CLST         145          1.0000000000
       436       146  TIP3  OH2           9.2472531655        2.7135332684       -4.3190994944  CLST         146          1.0000000000
       437       146  TIP3  H1            9.0868397906        3.6898948554       -4.1947619454  CLST         146          1.0000000000
       438       146  TIP3  H2            8.5765960134        2.6053789586       -5.0654107242  CLST         146          1.0000000000
       439       147  TIP3  OH2         -11.0658299582       -0.3880393474       -4.2226510137  CLST         147          1.0000000000
       440       147  TIP3  H1          -10.1246368386       -0.7017315768       -4.3870777630  CLST         147          1.0000000000
       441       147  TIP3  H2          -11.3064392243       -0.6782157646       -5.2256112273  CLST         147          1.0000000000
       442       148  TIP3  OH2          -7.9331858024        1.3184614314        9.0001892565  CLST         148          1.0000000000
       443       148  TIP3  H1           -7.8921428866        1.0865246030        8.0415470934  CLST         148          1.0000000000
       444       148  TIP3  H2           -6.9254950802        1.3596798359        9.0934351119  CLST         148          1.0000000000
       445       149  TIP3  OH2           8.6435064673       -2.7242990572        0.8192355700  CLST         149          1.0000000000
       446       149  TIP3  H1            9.3051377830       -2.0144642435        0.8399245859  CLST         149          1.0000000000
       447       149  TIP3  H2            8.0981729436       -2.5727756910        1.6380921646  CLST         149          1.0000000000
       448       150  TIP3  OH2          -2.1519341554      -11.4706295221        8.5145009675  CLST         150          1.0000000000
       449       150  TIP3  H1           -3.0198184742      -11.7077594599        8.9989653888  CLST         150          1.0000000000
       450       150  TIP3  H2           -1.5275404449      -11.8714316770        9.2176610616  CLST         150          1.0000000000
       451       151  TIP3  OH2          -9.1078942306       -6.6194332140       -4.9533807742  CLST         151          1.0000000000
       452       151  TIP3  H1           -8.1660205583       -6.5963595332       -4.5618901532  CLST         151          1.0000000000
       453       151  TIP3  H2           -8.8777777816       -7.4572190195       -5.4770415177  CLST         151          1.0000000000
       454       152  TIP3  OH2           3.9249668569       -2.0232015761        5.0127239247  CLST         152          1.0000000000
       455       152  TIP3  H1            4.3438459728       -2.7879669455        5.5097357537  CLST         152          1.0000000000
       456       152  TIP3  H2            3.8668712822       -2.5601513739        4.1811551683  CLST         152          1.0000000000
       457       153  TIP3  OH2          -2.5673183266        4.7195752087      -14.1850962282  CLST         153          1.0000000000
       458       153  TIP3  H1           -1.8449052699        5.1813468433      -13.7454860473  CLST         153          1.0000000000
       459       153  TIP3  H2           -2.7487120424        4.0863821127      -13.4815325305  CLST         153          1.0000000000
       460       154  TIP3  OH2           4.5203788167       -6.8877879582        2.1029264015  CLST         154          1.0000000000
       461       154  TIP3  H1            5.3497950970       -6.3870114512        1.9009999366  CLST         154          1.0000000000
       462       154  TIP3  H2            3.8808578569       -6.4500282406        1.4978756990  CLST         154          1.0000000000
       463       155  TIP3  OH2           9.4941942924       -2.6477260179       10.2741305289  CLST         155          1.0000000000
       464       155  TIP3  H1            9.0511555600       -3.0923151082        9.4963478663  CLST         155          1.0000000000
       465       155  TIP3  H2           10.1596413934       -3.2822724666       10.3445434571  CLST         155          1.0000000000
       466       156  TIP3  OH2          -2.1335776180       11.3349459213       11.6340369845  CLST         156          1.0000000000
       467       156  TIP3  H1           -2.9072726792       11.7862081972       11.9495877068  CLST         156          1.0000000000
       468       156  TIP3  H2           -2.6320811386       10.4924792684       11.7045751561  CLST         156          1.0000000000
       469       157  TIP3  OH2           3.8566405069       -0.8908390363        7.4798578865  CLST         157          1.0000000000
       470       157  TIP3  H1            4.7615189463       -1.0478086374        7.7806781813  CLST         157          1.0000000000
       471       157  TIP3  H2            3.8615294000       -1.0836379150        6.4838109243  CLST         157          1.0000000000
       472       158  TIP3  OH2          10.6523210235        9.0844604075       13.1938947039  CLST         158          1.0000000000
       473       158  TIP3  H1            9.7064227939        8.7487841696       13.0463916215  CLST         158          1.0000000000
       474       158  TIP3  H2           10.3612913437        9.9881349255       12.9888230254  CLST         158          1.0000000000
       475       159  TIP3  OH2           0.4368507085      -12.3461319392        4.3296122570  CLST         159          1.0000000000
       476       159  TIP3  H1           -0.2742197111      -12.6368501041        4.9713336493  CLST         159          1.0000000000
       477       159  TIP3  H2            0.2047192196      -11.4013186327        4.5040121450  CLST         159          1.0000000000
       478       160  TIP3  OH2           7.6201476810       -3.5170315887        8.4209842587  CLST         160          1.0000000000
       479       160  TIP3  H1            7.0706464657       -3.6531604278        7.6309028997  CLST         160          1.0000000000
       480       160  TIP3  H2            7.1697062449       -2.6276139819        8.5699196232  CLST         160          1.0000000000
       481       161  TIP3  OH2          -2.3851242223       -2.2786210138        7.9552791253  CLST         161          1.0000000000
       482       161  TIP3  H1           -1.8961471212       -1.6797358023        8.5718357139  CLST         161          1.0000000000
       483       161  TIP3  H2           -3.2769243262       -2.2064419583        8.3581107459  CLST         161          1.0000000000
       484       162  TIP3  OH2          -0.6378411324        3.6023921095      -10.7029821784  CLST         162          1.0000000000
       485       162  TIP3  H1           -0.4301278929        4.4490100893      -11.1378293801  CLST         162          1.0000000000
       486       162  TIP3  H2           -0.6277986059        3.8859868292       -9.7412092272  CLST         162          1.0000000000
       487       163  TIP3  OH2         -10.1763626539        9.0421528948       11.2516688526  CLST         163          1.0000000000
       488       163  TIP3  H1          -10.8169901204        8.2843023089       11.4555779549  CLST         163          1.0000000000
       489       163  TIP3  H2          -10.5226891539        9.6487214314       11.9351656728  CLST         163          1.0000000000
       490       164  TIP3  OH2           3.9210508440      -10.5409998331       12.9813349741  CLST         164          1.0000000000
       491       164  TIP3  H1            4.2870352561       -9.6429447605       13.0314950348  CLST         164          1.0000000000
       492       164  TIP3  H2            4.6375318827      -11.0011552546       12.5514723291  CLST         164          1.0000000000
       493       165  TIP3  OH2         -12.0406166427       -5.5751166093        3.6764534016  CLST         165          1.0000000000
       494       165  TIP3  H1          -11.8119746119       -5.7269928006        4.6532237298  CLST         165          1.0000000000
       495       165  TIP3  H2          -12.9716111125       -5.6900347389        3.7130080492  CLST         165          1.0000000000
       496       166  TIP3  OH2          -1.4878688354       -6.4154348459      -10.4021686186  CLST         166          1.0000000000
       497       166  TIP3  H1           -0.5528507756       -6.5930886294      -10.4593870520  CLST         166          1.0000000000
       498       166  TIP3  H2           -1.8596351518       -7.3346420677      -10.3143251795  CLST         166          1.0000000000
       499       167  TIP3  OH2           8.1354292913       10.7747944099       -0.8345886507  CLST         167          1.0000000000
       500       167  TIP3  H1            8.6582591697       10.1459412229       -0.1856143299  CLST         167          1.0000000000
       501       167  TIP3  H2            8.5414124201       10.6321510192       -1.6597709294  CLST         167          1.0000000000
       502       168  TIP3  OH2          -0.6468554982      -13.4424807519        2.1463049669  CLST         168          1.0000000000
       503       168  TIP3  H1           -0.2428310154      -13.1733622660        3.0184219243  CLST         168          1.0000000000
       504       168  TIP3  H2            0.0949364366      -13.9227629380        1.7735554168  CLST         168          1.0000000000
       505       169  TIP3  OH2           5.1709131116        4.0636438545        3.2076125179  CLST         169          1.0000000000
       506       169  TIP3  H1            4.1964949381        3.8594990779        3.1993694818  CLST         169          1.0000000000
       507       169  TIP3  H2            5.1610211301        4.6631373329        2.3970053456  CLST         169          1.0000000000
       508       170  TIP3  OH2          -1.1460580145        4.3483141358        1.5249162133  CLST         170          1.0000000000
       509       170  TIP3  H1           -1.8889474033        5.0662069646        1.3611466453  CLST         170          1.0000000000
       510       170  TIP3  H2           -1.5282611101        3.4627635717        1.4561636643  CLST         170          1.0000000000
       511       171  TIP3  OH2          -3.0608786760        1.2969479542        7.3484613515  CLST         171          1.0000000000
       512       171  TIP3  H1           -2.9416827646        1.1857700391        6.3906074366  CLST         171          1.0000000000
       513       171  TIP3  H2           -2.1596644654        1.6128645728        7.5955940455  CLST         171          1.0000000000
       514       172  TIP3  OH2          -6.3187272478      -13.2678321099        8.0462687921  CLST         172          1.0000000000
       515       172  TIP3  H1           -6.9570162800      -13.5133223521        7.3997241657  CLST         172          1.0000000000
       516       172  TIP3  H2           -5.5837549913      -12.9508299769        7.4392904274  CLST         172          1.0000000000
       517       173  TIP3  OH2          10.2501356436      -12.4815239780        1.7485143846  CLST         173          1.0000000000
       518       173  TIP3  H1           10.3461166233      -12.4562377905        0.7365375557  CLST         173          1.0000000000
       519       173  TIP3  H2            9.3218416963      -12.2965994658        1.8562592987  CLST         173          1.0000000000
       520       174  TIP3  OH2           0.0799501592        5.6150247725        9.7444551077  CLST         174          1.0000000000
       521       174  TIP3  H1            0.1321451743        4.7918515718       10.2472130637  CLST         174          1.0000000000
       522       174  TIP3  H2           -0.8882662309        5.8462164690        9.9508985254  CLST         174          1.0000000000
       523       175  TIP3  OH2          -5.7479149186       10.3150876222       -3.5156325792  CLST         175          1.0000000000
       524       175  TIP3  H1           -5.2829064717        9.8981367913       -4.2895701548  CLST         175          1.0000000000
       525       175  TIP3  H2           -6.6501002862       10.2131221579       -3.8875037822  CLST         175          1.0000000000
       526       176  TIP3  OH2           6.6405214346        9.2114917381       -7.7850226212  CLST         176          1.0000000000
       527       176  TIP3  H1            7.1167815420        9.9658825420       -8.1779165929  CLST         176          1.0000000000
       528       176  TIP3  H2            5.9548540140        9.6198664071       -7.1721638644  CLST         176          1.0000000000
       529       177  TIP3  OH2          -3.8430705018      -11.5513830138       -1.5364403590  CLST         177          1.0000000000
       530       177  TIP3  H1           -3.2261521092      -11.9337035783       -0.8959505556  CLST         177          1.0000000000
       531       177  TIP3  H2           -4.5743801035      -11.2348814226       -0.8846000878  CLST         177          1.0000000000
       532       178  TIP3  OH2          10.6932331793       -9.1354666538      -11.4497046830  CLST         178          1.0000000000
       533       178  TIP3  H1           11.2018667644       -8.9577074600      -10.6225470131  CLST         178          1.0000000000
       534       178  TIP3  H2           10.5598447075       -8.1881066607      -11.6593246871  CLST         178          1.0000000000
       535       179  TIP3  OH2           6.4743852799       -1.0225990665        8.4945716212  CLST         179          1.0000000000
       536       179  TIP3  H1            6.3056767610       -0.3524774846        9.2195216586  CLST         179          1.0000000000
       537       179  TIP3  H2            7.0140403596       -0.4011726281        7.9352004190  CLST         179          1.0000000000
       538       180  TIP3  OH2          -7.6442037903        8.1774919257        5.9433223098  CLST         180          1.0000000000
       539       180  TIP3  H1           -7.4162395198        7.8509666315        6.8819242393  CLST         180          1.0000000000
       540       180  TIP3  H2           -8.6228404952        8.1529286820        6.0329578007  CLST         180          1.0000000000
       541       181  TIP3  OH2           5.9350339300      -13.1101152515       -0.3041352308  CLST         181          1.0000000000
       542       181  TIP3  H1            6.7023755817      -13.0849059816       -0.9059631828  CLST         181          1.0000000000
       543       181  TIP3  H2            6.2696851162      -13.1206369599        0.6059333790  CLST         181          1.0000000000
       544       182  TIP3  OH2          -1.6291826581       10.3749653945      -10.4377960050  CLST         182          1.0000000000
       545       182  TIP3  H1           -0.8805304587       10.5772778622       -9.8249903563  CLST         182          1.0000000000
       546       182  TIP3  H2           -2.4078455681       10.3671892944       -9.8573789778  CLST         182          1.0000000000
       547       183  TIP3  OH2          -5.2756985348        3.6273255833      -12.3792275304  CLST         183          1.0000000000
       548       183  TIP3  H1           -5.0623347644        3.5315042687      -11.4033117673  CLST         183          1.0000000000
       549       183  TIP3  H2           -6.2107322715        3.2964676399      -12.3654091280  CLST         183          1.0000000000
       550       184  TIP3  OH2           3.0500082216        8.3921014583       -2.4436034462  CLST         184          1.0000000000
       551       184  TIP3  H1            3.0650867676        7.6949655452       -1.7541243814  CLST         184          1.0000000000
       552       184  TIP3  H2            2.1720059510        8.1038369869       -2.8451146439  CLST         184          1.0000000000
       553       185  TIP3  OH2           7.5166539981        4.7939454464       12.2282892217  CLST         185          1.0000000000
       554       185  TIP3  H1            7.7117986712        3.8115530381       12.2459469860  CLST         185          1.0000000000
       555       185  TIP3  H2            6.8880030371        4.9503729168       12.9648644433  CLST         185          1.0000000000
       556       186  TIP3  OH2           3.7795072310        5.9884492068       -5.1255753608  CLST         186          1.0000000000
       557       186  TIP3  H1            4.0312393778        6.9566919090       -5.1918456291  CLST         186          1.0000000000
       558       186  TIP3  H2            3.9138713024        5.7602842455       -6.0900812047  CLST         186          1.0000000000
       559       187  TIP3  OH2           4.0185380240        1.7808901605       -5.5773143187  CLST         187          1.0000000000
       560       187  TIP3  H1            4.2161354746        1.7363523671       -4.6286986571  CLST         187          1.0000000000
       561       187  TIP3  H2            3.6574286698        0.8429854120       -5.6624424723  CLST         187          1.0000000000
       562       188  TIP3  OH2          -4.6116757363       -1.5444453152        4.8839741122  CLST         188          1.0000000000
       563       188  TIP3  H1           -4.7269008372       -0.6498085550        4.4277393962  CLST         188          1.0000000000
       564       188  TIP3  H2           -4.7451188490       -1.2656938581        5.8313201282  CLST         188          1.0000000000
       565       189  TIP3  OH2          -5.1277234279        3.5456886040      -15.2065465045  CLST         189          1.0000000000
       566       189  TIP3  H1           -5.0376528990        3.6875919480      -14.2513364229  CLST         189          1.0000000000
       567       189  TIP3  H2           -4.2822272403        3.9333479269      -15.4736771204  CLST         189          1.0000000000
       568       190  TIP3  OH2           7.1524276469       -5.5956623558        5.3560998438  CLST         190          1.0000000000
       569       190  TIP3  H1            7.0055853728       -5.8763110589        4.4212386656  CLST         190          1.0000000000
       570       190  TIP3  H2            8.1252141837       -5.6351688158        5.3350389879  CLST         190          1.0000000000
       571       191  TIP3  OH2         -10.9020385134       -4.8580038761       -6.4690908600  CLST         191          1.0000000000
       572       191  TIP3  H1          -10.2379924721       -4.5452184951       -7.1475810035  CLST         191          1.0000000000
       573       191  TIP3  H2          -10.4821514918       -5.6868733345       -6.1589827471  CLST         191          1.0000000000
       574       192  TIP3  OH2           8.9401429096       14.2155189694        1.9024778113  CLST         192          1.0000000000
       575       192  TIP3  H1            8.3806882440       14.4457280809        2.6866869448  CLST         192          1.0000000000
       576       192  TIP3  H2            9.3305813156       15.0900471719        1.7064400231  CLST         192          1.0000000000
       577       193  TIP3  OH2           6.1936600367      -12.2213984506       11.6466559256  CLST         193          1.0000000000
       578       193  TIP3  H1            6.7312880370      -13.0208566918       11.6503424301  CLST         193          1.0000000000
       579       193  TIP3  H2            6.5151140148      -11.6542900694       10.9418050189  CLST         193          1.0000000000
       580       194  TIP3  OH2          -6.1801909375       -4.3971378066       11.0669827966  CLST         194          1.0000000000
       581       194  TIP3  H1           -6.7229123234       -4.6029292821       11.8229730490  CLST         194          1.0000000000
       582       194  TIP3  H2           -6.9127570791       -4.0917303685       10.3986520657  CLST         194          1.0000000000
       583       195  TIP3  OH2          -7.3511928721        9.0305241681       10.2433815432  CLST         195          1.0000000000
       584       195  TIP3  H1           -8.1658371191        8.8254519771       10.7574345204  CLST         195          1.0000000000
       585       195  TIP3  H2           -7.5584097681        8.5031585592        9.4336970290  CLST         195          1.0000000000
       586       196  TIP3  OH2           6.0284015879      -12.2749040995       -5.9588185561  CLST         196          1.0000000000
       587       196  TIP3  H1            6.3269352351      -11.5557866056       -6.5634605866  CLST         196          1.0000000000
       588       196  TIP3  H2            5.1408837820      -11.8950075559       -5.7443298818  CLST         196          1.0000000000
       589       197  TIP3  OH2           2.2611494604       -9.1701030261       -2.7850069365  CLST         197          1.0000000000
       590       197  TIP3  H1            1.8808788487       -8.2442618272       -2.5635264382  CLST         197          1.0000000000
       591       197  TIP3  H2            3.1860827014       -8.9549665713       -2.4582204367  CLST         197          1.0000000000
       592       198  TIP3  OH2          10.8574850532        1.9148791960        4.6410236929  CLST         198          1.0000000000
       593       198  TIP3  H1           10.1299671610        1.7831656847        3.9949562619  CLST         198          1.0000000000
       594       198  TIP3  H2           10.8530095754        2.8497799333        4.4777533563  CLST         198          1.0000000000
       595       199  TIP3  OH2           0.0257251573        8.3178835350       -5.9580613264  CLST         199          1.0000000000
       596       199  TIP3  H1           -0.5019185203        8.7703827035       -5.2629973993  CLST         199          1.0000000000
       597       199  TIP3  H2           -0.2227441191        7.3772920188       -5.7742209809  CLST         199          1.0000000000
       598       200  TIP3  OH2          -7.6390980134       11.9390083397       10.9705583791  CLST         200          1.0000000000
       599       200  TIP3  H1           -7.6622729515       10.9542849542       10.9590280294  CLST         200          1.0000000000
       600       200  TIP3  H2           -7.4529221623       12.1288307266       10.0267534967  CLST         200          1.0000000000
       601       201  TIP3  OH2           4.4774117743        0.7885618071        0.0646873414  CLST         201          1.0000000000
       602       201  TIP3  H1            4.1662105356        1.3721552222        0.7612165386  CLST         201          1.0000000000
       603       201  TIP3  H2            5.3015838656        0.5168887559        0.5390554980  CLST         201          1.0000000000
       604       202  TIP3  OH2          -1.9948460211       -4.3774815228      -12.4464049533  CLST         202          1.0000000000
       605       202  TIP3  H1           -1.7616253683       -4.9775154601      -11.6647787397  CLST         202          1.0000000000
       606       202  TIP3  H2           -2.3870242866       -3.6086660054      -11.9787725276  CLST         202          1.0000000000
       607       203  TIP3  OH2          -0.6746907635       11.2917022434        7.4418746206  CLST         203          1.0000000000
       608       203  TIP3  H1            0.1320173830       10.8489252254        7.7397247150  CLST         203          1.0000000000
       609       203  TIP3  H2           -1.3273470179       10.8481984820        8.0319451978  CLST         203          1.0000000000
       610       204  TIP3  OH2          -5.4418014950        6.3674875603      -13.3116280074  CLST         204          1.0000000000
       611       204  TIP3  H1           -4.6140099134        6.3277164768      -13.7819162587  CLST         204          1.0000000000
       612       204  TIP3  H2           -5.5533577778        5.4157035014      -13.0806194534  CLST         204          1.0000000000
       613       205  TIP3  OH2          -2.4347661479        7.2572784811       -2.6418996561  CLST         205          1.0000000000
       614       205  TIP3  H1           -2.3933825712        7.9525438327       -3.3922215099  CLST         205          1.0000000000
       615       205  TIP3  H2           -1.4651576452        7.2160021592       -2.5338043001  CLST         205          1.0000000000
       616       206  TIP3  OH2           4.8246309192      -11.0522849011       -9.7729232423  CLST         206          1.0000000000
       617       206  TIP3  H1            5.0369111310      -11.9499731305       -9.3457250774  CLST         206          1.0000000000
       618       206  TIP3  H2            5.5117600645      -10.5601608428       -9.2740352997  CLST         206          1.0000000000
       619       207  TIP3  OH2          12.9564960584       10.1105309593       12.1771226377  CLST         207          1.0000000000
       620       207  TIP3  H1           12.3341707732        9.8986656851       12.8780592447  CLST         207          1.0000000000
       621       207  TIP3  H2           13.6978754376       10.1096943660       12.5888018532  CLST         207          1.0000000000
       622       208  TIP3  OH2         -11.5753672390        2.2490733203        6.8630096619  CLST         208          1.0000000000
       623       208  TIP3  H1          -11.2344816138        2.1944718604        7.7863293624  CLST         208          1.0000000000
       624       208  TIP3  H2          -11.3298376270        3.1635739962        6.6277194718  CLST         208          1.0000000000
       625       209  TIP3  OH2           4.4245793686       -9.2492988120        7.3452512686  CLST         209          1.0000000000
       626       209  TIP3  H1            4.0936188821       -9.7180216695        6.5171103384  CLST         209          1.0000000000
       627       209  TIP3  H2            3.6199073122       -8.7151538073        7.4547496939  CLST         209          1.0000000000
       628       210  TIP3  OH2          12.1128026443      -11.2265854307        5.2923472017  CLST         210          1.0000000000
       629       210  TIP3  H1           12.4101676846      -11.2014874081        4.3066363422  CLST         210          1.0000000000
       630       210  TIP3  H2           12.3783606209      -10.3906719898        5.6720034362  CLST         210          1.0000000000
       631       211  TIP3  OH2          -0.3135125119       -9.1617622421       12.1686064805  CLST         211          1.0000000000
       632       211  TIP3  H1            0.2946479450       -9.5886123019       12.8341020421  CLST         211          1.0000000000
       633       211  TIP3  H2           -0.9621435569       -9.9369553141       12.0980119007  CLST         211          1.0000000000
       634       212  TIP3  OH2         -12.3828382190        3.4520629011       -2.3161642706  CLST         212          1.0000000000
       635       212  TIP3  H1          -11.8513394627        4.1769443711       -2.7528289261  CLST         212          1.0000000000
       636       212  TIP3  H2          -11.9299532811        2.6105088060       -2.5336055214  CLST         212          1.0000000000
       637       213  TIP3  OH2          -9.4643775820      -11.3905308757      -11.6821686810  CLST         213          1.0000000000
       638       213  TIP3  H1          -10.2058796100      -11.4455984877      -12.3898803032  CLST         213          1.0000000000
       639       213  TIP3  H2           -8.1433171158      -11.0392942686      -12.0973181761  CLST         213          1.0000000000
       640       214  TIP3  OH2          -6.5757947965        2.2963425005       -5.4645372311  CLST         214          1.0000000000
       641       214  TIP3  H1           -6.5121429115        1.4468342232       -4.9040351319  CLST         214          1.0000000000
       642       214  TIP3  H2           -7.0587263382        2.7898432576       -4.7176906476  CLST         214          1.0000000000
       643       215  TIP3  OH2         -11.6817657504      -12.8655518875        5.5235114132  CLST         215          1.0000000000
       644       215  TIP3  H1          -11.1271109846      -12.1249347526        5.1964432705  CLST         215          1.0000000000
       645       215  TIP3  H2          -11.8847994735      -13.0916150908        4.5657582921  CLST         215          1.0000000000
       646       216  TIP3  OH2         -11.8943213107       -2.2985152411        7.9583626625  CLST         216          1.0000000000
       647       216  TIP3  H1          -10.8709280644       -2.2212854402        7.9492645600  CLST         216          1.0000000000
       648       216  TIP3  H2          -11.8842877824       -3.1224754182        8.4830051986  CLST         216          1.0000000000
       649       217  TIP3  OH2           7.6361980972       -0.1863073339       -1.5307522183  CLST         217          1.0000000000
       650       217  TIP3  H1            8.1802991390       -1.0268978864       -1.5833179535  CLST         217          1.0000000000
       651       217  TIP3  H2            7.0336844450       -0.3359881162       -0.7704689039  CLST         217          1.0000000000
       652       218  TIP3  OH2          -8.1411850906       -3.8935103957        9.0719303137  CLST         218          1.0000000000
       653       218  TIP3  H1           -8.4384841628       -2.9791281677        8.7556078371  CLST         218          1.0000000000
       654       218  TIP3  H2           -7.6608576778       -4.3585286299        8.3900185210  CLST         218          1.0000000000
       655       219  TIP3  OH2         -12.4836295144       -4.3613153998       -2.7538475446  CLST         219          1.0000000000
       656       219  TIP3  H1          -12.4441593830       -3.4208644527       -2.4758571389  CLST         219          1.0000000000
       657       219  TIP3  H2          -13.0503443856       -4.2834201694       -3.6206089860  CLST         219          1.0000000000
       658       220  TIP3  OH2           6.3133921368        6.8072606648        7.7012097998  CLST         220          1.0000000000
       659       220  TIP3  H1            5.9291744494        6.5881095577        6.7865548894  CLST         220          1.0000000000
       660       220  TIP3  H2            5.4989308481        6.4536263012        8.1992099502  CLST         220          1.0000000000
       661       221  TIP3  OH2         -10.3686535545       -6.9637115640       10.2684801031  CLST         221          1.0000000000
       662       221  TIP3  H1           -9.5545328889       -7.4484539484       10.5541927596  CLST         221          1.0000000000
       663       221  TIP3  H2          -10.7255412348       -7.7330505341        9.7687439340  CLST         221          1.0000000000
       664       222  TIP3  OH2          -6.8515794388       -0.8596851039      -13.7660269537  CLST         222          1.0000000000
       665       222  TIP3  H1           -6.3445327401       -1.7358032068      -13.6357071140  CLST         222          1.0000000000
       666       222  TIP3  H2           -7.6535968403       -1.0882357527      -13.2598778337  CLST         222          1.0000000000
       667       223  TIP3  OH2           2.8402178893      -10.8007217886      -11.7248977766  CLST         223          1.0000000000
       668       223  TIP3  H1            2.3921225093      -11.6766517366      -11.5854849089  CLST         223          1.0000000000
       669       223  TIP3  H2            3.6797155193      -10.9492579413      -11.1667036059  CLST         223          1.0000000000
       670       224  TIP3  OH2           7.4973183027        4.7690484933        0.5757542918  CLST         224          1.0000000000
       671       224  TIP3  H1            8.4225896190        4.9539672468        0.8382425158  CLST         224          1.0000000000
       672       224  TIP3  H2            7.4851567938        4.5682104142       -0.4028145740  CLST         224          1.0000000000
       673       225  TIP3  OH2          -0.3209502323        4.4861609867       -1.2059225885  CLST         225          1.0000000000
       674       225  TIP3  H1           -0.8075989122        4.3770285951       -0.3670811139  CLST         225          1.0000000000
       675       225  TIP3  H2           -0.0532040773        3.5340463404       -1.3176172043  CLST         225          1.0000000000
       676       226  TIP3  OH2          -5.7047270192       -4.3554465730        7.6534180885  CLST         226          1.0000000000
       677       226  TIP3  H1           -5.8199599179       -5.3398846086        7.8217673987  CLST         226          1.0000000000
       678       226  TIP3  H2           -5.9442709515       -4.3747449239        6.7141555946  CLST         226          1.0000000000
       679       227  TIP3  OH2          11.5919864066       -4.1693973973       -9.9426631144  CLST         227          1.0000000000
       680       227  TIP3  H1           11.8252425386       -3.9375392582       -9.0229973190  CLST         227          1.0000000000
       681       227  TIP3  H2           11.1720205328       -3.3483223013      -10.2723115724  CLST         227          1.0000000000
       682       228  TIP3  OH2           3.5008601838       12.3688649653        3.2997081437  CLST         228          1.0000000000
       683       228  TIP3  H1            2.7047525718       11.8112246677        3.7235943336  CLST         228          1.0000000000
       684       228  TIP3  H2            2.9286688099       12.7823637915        2.8150918533  CLST         228          1.0000000000
       685       229  TIP3  OH2         -11.4859710524      -13.0149604952        2.9072946791  CLST         229          1.0000000000
       686       229  TIP3  H1          -11.8662110962      -13.6453728610        2.4560783481  CLST         229          1.0000000000
       687       229  TIP3  H2          -10.9833922306      -12.3526537867        2.3147210519  CLST         229          1.0000000000
       688       230  TIP3  OH2          12.2263038464        6.2301725878       -3.3971890853  CLST         230          1.0000000000
       689       230  TIP3  H1           13.0741770908        5.9716833743       -3.0322755141  CLST         230          1.0000000000
       690       230  TIP3  H2           12.1503640898        5.3869370592       -4.0013690536  CLST         230          1.0000000000
       691       231  TIP3  OH2           7.0663672355        3.3989930544        4.9237395603  CLST         231          1.0000000000
       692       231  TIP3  H1            7.2935018019        4.3804356109        5.0087813525  CLST         231          1.0000000000
       693       231  TIP3  H2            6.2409657500        3.4498080738        4.3391860491  CLST         231          1.0000000000
       694       232  TIP3  OH2         -10.3131282252        8.8565490005        7.4458986696  CLST         232          1.0000000000
       695       232  TIP3  H1          -10.8144114956        9.3823777542        8.1154670973  CLST         232          1.0000000000
       696       232  TIP3  H2          -10.2673747012        7.9752290243        7.9541442585  CLST         232          1.0000000000
       697       233  TIP3  OH2           3.6193937531       -5.1841077426        7.9506881469  CLST         233          1.0000000000
       698       233  TIP3  H1            4.3112908795       -5.5429760470        8.5887484162  CLST         233          1.0000000000
       699       233  TIP3  H2            3.3754539448       -4.3890867467        8.5167794207  CLST         233          1.0000000000
       700       234  TIP3  OH2          -3.7094511436        8.5159536456       -0.5894010907  CLST         234          1.0000000000
       701       234  TIP3  H1           -3.3926617911        7.9266475614       -1.3280422674  CLST         234          1.0000000000
       702       234  TIP3  H2           -3.7604736687        9.3557525243       -1.1630237611  CLST         234          1.0000000000
       703       235  TIP3  OH2          -1.7485182303       -4.0337399774       -9.0752330303  CLST         235          1.0000000000
       704       235  TIP3  H1           -1.6870747012       -4.9790972810       -9.2894135198  CLST         235          1.0000000000
       705       235  TIP3  H2           -0.8207816266       -3.6920805232       -9.2406356200  CLST         235          1.0000000000
       706       236  TIP3  OH2          -0.4442145055      -13.5958973267       -2.9422449238  CLST         236          1.0000000000
       707       236  TIP3  H1            0.2755407179      -12.8658908313       -2.7748676750  CLST         236          1.0000000000
       708       236  TIP3  H2           -0.9168536145      -13.3389945675       -2.1257189825  CLST         236          1.0000000000
       709       237  TIP3  OH2          -3.6451574103       -5.1871221236       10.8624475028  CLST         237          1.0000000000
       710       237  TIP3  H1           -4.6121313587       -5.0136511056       10.7601528433  CLST         237          1.0000000000
       711       237  TIP3  H2           -3.4597810901       -5.9658096717       10.3215187222  CLST         237          1.0000000000
       712       238  TIP3  OH2           0.5956026625        4.6958664203        7.2541033255  CLST         238          1.0000000000
       713       238  TIP3  H1            0.0437551162        5.3489696570        6.7424853676  CLST         238          1.0000000000
       714       238  TIP3  H2            0.4025750754        5.1046388369        8.1381949227  CLST         238          1.0000000000
       715       239  TIP3  OH2         -14.0037594916        6.0719213757        3.5463043493  CLST         239          1.0000000000
       716       239  TIP3  H1          -14.0532154057        6.6117016671        2.7424650986  CLST         239          1.0000000000
       717       239  TIP3  H2          -13.3223104645        5.4435067987        3.2590646163  CLST         239          1.0000000000
       718       240  TIP3  OH2         -14.0670927924        8.9862091818       -0.3392684692  CLST         240          1.0000000000
       719       240  TIP3  H1          -14.7247591804        9.2072131950        0.2964882188  CLST         240          1.0000000000
       720       240  TIP3  H2          -13.8771105330        8.0137263717       -0.0505955063  CLST         240          1.0000000000
       721       241  TIP3  OH2          -7.6230130999       -7.7292670193       -8.6640433599  CLST         241          1.0000000000
       722       241  TIP3  H1           -7.9125977416       -7.9708654830       -7.7615465080  CLST         241          1.0000000000
       723       241  TIP3  H2           -7.3933450993       -6.7893489550       -8.4862643535  CLST         241          1.0000000000
       724       242  TIP3  OH2           6.0389478441       -5.6691055578        9.7338743931  CLST         242          1.0000000000
       725       242  TIP3  H1            6.6839899463       -4.9569922217        9.3922832950  CLST         242          1.0000000000
       726       242  TIP3  H2            6.6461317543       -6.3996864516        9.4594105109  CLST         242          1.0000000000
       727       243  TIP3  OH2          -6.7075306494       -7.2411833971       -4.3086430984  CLST         243          1.0000000000
       728       243  TIP3  H1           -6.1972013526       -7.9976612687       -4.6395327316  CLST         243          1.0000000000
       729       243  TIP3  H2           -6.7769915368       -7.6061299185       -3.3476710144  CLST         243          1.0000000000
       730       244  TIP3  OH2           4.7857885208        5.7024433287        5.3286385935  CLST         244          1.0000000000
       731       244  TIP3  H1            5.2493898158        5.4902373248        4.4941680469  CLST         244          1.0000000000
       732       244  TIP3  H2            4.0670782706        5.0333532250        5.3862918538  CLST         244          1.0000000000
       733       245  TIP3  OH2          -6.9485808630        3.7261892377       -7.7051371308  CLST         245          1.0000000000
       734       245  TIP3  H1           -6.9393249753        3.1921289638       -6.8761365495  CLST         245          1.0000000000
       735       245  TIP3  H2           -7.3006108454        4.5466484396       -7.3331546239  CLST         245          1.0000000000
       736       246  TIP3  OH2           2.0386063903       -6.5917155201       -1.9925556168  CLST         246          1.0000000000
       737       246  TIP3  H1            1.9739926640       -5.8455093962       -2.7059249908  CLST         246          1.0000000000
       738       246  TIP3  H2            3.0232487628       -6.6232491336       -1.9141707977  CLST         246          1.0000000000
       739       247  TIP3  OH2           5.8981555049        8.0649994954        0.5527874200  CLST         247          1.0000000000
       740       247  TIP3  H1            6.1140021881        7.7570315148       -0.3828181771  CLST         247          1.0000000000
       741       247  TIP3  H2            5.7921921573        9.0218769914        0.3527830564  CLST         247          1.0000000000
       742       248  TIP3  OH2          -2.3680519898        8.3965040692      -11.9018001031  CLST         248          1.0000000000
       743       248  TIP3  H1           -2.6873823672        9.0657651315      -12.5176876967  CLST         248          1.0000000000
       744       248  TIP3  H2           -1.8119954378        9.0021228932      -11.3452016174  CLST         248          1.0000000000
       745       249  TIP3  OH2           8.8564477512        4.7109683392       -7.7403064432  CLST         249          1.0000000000
       746       249  TIP3  H1            8.3878236426        5.3435488558       -7.1603728468  CLST         249          1.0000000000
       747       249  TIP3  H2            8.4998624625        3.8712510954       -7.3328149616  CLST         249          1.0000000000
       748       250  TIP3  OH2          -7.4621014131        9.7847084074       -5.4918299044  CLST         250          1.0000000000
       749       250  TIP3  H1           -7.9125311508        8.9719689338       -5.7517204018  CLST         250          1.0000000000
       750       250  TIP3  H2           -7.6848663201       10.4792790429       -6.1175536079  CLST         250          1.0000000000
       751       251  TIP3  OH2          -3.6386067857       12.3215656654        3.0389510921  CLST         251          1.0000000000
       752       251  TIP3  H1           -3.2929629969       13.1373059083        2.7238025193  CLST         251          1.0000000000
       753       251  TIP3  H2           -2.9960637325       12.2051302003        3.8118677488  CLST         251          1.0000000000
       754       252  TIP3  OH2           5.9057979403        5.3680563471       14.5401958259  CLST         252          1.0000000000
       755       252  TIP3  H1            5.8333984757        6.3274804488       14.4248530882  CLST         252          1.0000000000
       756       252  TIP3  H2            5.5100112647        5.2884826755       15.3284908898  CLST         252          1.0000000000
       757       253  TIP3  OH2           5.9816450200       13.9579139361        3.3739584775  CLST         253          1.0000000000
       758       253  TIP3  H1            5.0776458001       13.8072494198        3.6320501223  CLST         253          1.0000000000
       759       253  TIP3  H2            5.8399269399       13.6720745936        2.4394155963  CLST         253          1.0000000000
       760       254  TIP3  OH2          -4.1075092389        8.0419140838        2.9759635451  CLST         254          1.0000000000
       761       254  TIP3  H1           -4.3860690253        8.9573071277        2.7559776074  CLST         254          1.0000000000
       762       254  TIP3  H2           -4.9682609183        7.6330419549        3.1792319088  CLST         254          1.0000000000
       763       255  TIP3  OH2          -6.9938631948       10.5032299838        4.2760718224  CLST         255          1.0000000000
       764       255  TIP3  H1           -7.9419750671       10.7549314192        4.3071378177  CLST         255          1.0000000000
       765       255  TIP3  H2           -7.0455481856        9.7494303797        4.9192314105  CLST         255          1.0000000000
       766       256  TIP3  OH2          11.6420720843        3.6683730894       -1.3281836976  CLST         256          1.0000000000
       767       256  TIP3  H1           11.9043516680        2.9562596684       -1.9521993749  CLST         256          1.0000000000
       768       256  TIP3  H2           11.4409120665        3.1279554905       -0.5327120095  CLST         256          1.0000000000
       769       257  TIP3  OH2          -8.3499506590       -1.1000911319       -4.9928905843  CLST         257          1.0000000000
       770       257  TIP3  H1           -7.4446046487       -0.8401215498       -4.6803572444  CLST         257          1.0000000000
       771       257  TIP3  H2           -8.2679155713       -0.9598288769       -5.9510398143  CLST         257          1.0000000000
       772       258  TIP3  OH2          -5.3919340381       10.2532395303        7.8371388066  CLST         258          1.0000000000
       773       258  TIP3  H1           -5.2717899616       11.0676960274        7.2634944535  CLST         258          1.0000000000
       774       258  TIP3  H2           -6.0513227551       10.6625590852        8.4681912675  CLST         258          1.0000000000
       775       259  TIP3  OH2          10.1712974567        6.0279349142        0.9742912581  CLST         259          1.0000000000
       776       259  TIP3  H1           11.0814492086        6.3728815923        1.1135315365  CLST         259          1.0000000000
       777       259  TIP3  H2            9.8977975439        6.4291776492        1.8546279381  CLST         259          1.0000000000
       778       260  TIP3  OH2          -4.8953532366        7.6110123090        8.8550112647  CLST         260          1.0000000000
       779       260  TIP3  H1           -5.1587366834        8.3469076017        8.2948829673  CLST         260          1.0000000000
       780       260  TIP3  H2           -5.7265371112        7.1249838280        8.8958384676  CLST         260          1.0000000000
       781       261  TIP3  OH2           0.7552774363       -4.3765150993       12.4690657120  CLST         261          1.0000000000
       782       261  TIP3  H1            0.4288405718       -5.3604913149       12.3685721773  CLST         261          1.0000000000
       783       261  TIP3  H2            1.6650302514       -4.4799838161       12.7643306718  CLST         261          1.0000000000
       784       262  TIP3  OH2         -10.9491778689        4.8123817503        5.9767541796  CLST         262          1.0000000000
       785       262  TIP3  H1          -10.2738433063        4.6370710355        5.2171064430  CLST         262          1.0000000000
       786       262  TIP3  H2          -11.7400423065        4.9722746076        5.4776245213  CLST         262          1.0000000000
       787       263  TIP3  OH2           1.7991618334        0.7982742888        6.5882381465  CLST         263          1.0000000000
       788       263  TIP3  H1            2.4502732273        1.3372226578        6.1194939447  CLST         263          1.0000000000
       789       263  TIP3  H2            2.4060685082        0.2193910139        7.1495453855  CLST         263          1.0000000000
       790       264  TIP3  OH2           5.2702609540       -4.3954093938       -9.5688187964  CLST         264          1.0000000000
       791       264  TIP3  H1            4.9846533871       -5.3142584679       -9.7783968514  CLST         264          1.0000000000
       792       264  TIP3  H2            4.6093851794       -3.8700407270      -10.0658705704  CLST         264          1.0000000000
       793       265  TIP3  OH2           7.6139034478        4.9339015156      -10.2103471936  CLST         265          1.0000000000
       794       265  TIP3  H1            7.7905455605        5.8317487318      -10.5358290323  CLST         265          1.0000000000
       795       265  TIP3  H2            8.1601885091        5.0111345070       -9.3575080437  CLST         265          1.0000000000
       796       266  TIP3  OH2          -7.9179262793       -8.8794399134        0.0760965461  CLST         266          1.0000000000
       797       266  TIP3  H1           -7.8338326246       -9.1536771441        1.0123170156  CLST         266          1.0000000000
       798       266  TIP3  H2           -8.2911170667       -7.9529761813        0.2300315522  CLST         266          1.0000000000
       799       267  TIP3  OH2           1.1876500542        2.5336660147       -5.1067462660  CLST         267          1.0000000000
       800       267  TIP3  H1            1.4828630421        3.3106462073       -4.5812930665  CLST         267          1.0000000000
       801       267  TIP3  H2            1.9271436921        1.9167161031       -4.8784822877  CLST         267          1.0000000000
       802       268  TIP3  OH2           5.0510472876       -4.4730288631       -6.8244452627  CLST         268          1.0000000000
       803       268  TIP3  H1            5.0152158369       -4.3324982060       -7.8078623729  CLST         268          1.0000000000
       804       268  TIP3  H2            4.8122795026       -5.4157348683       -6.7562256945  CLST         268          1.0000000000
       805       269  TIP3  OH2           5.5052356401       10.8081808640       -0.1607872312  CLST         269          1.0000000000
       806       269  TIP3  H1            6.4840314092       10.7858129074       -0.4964984840  CLST         269          1.0000000000
       807       269  TIP3  H2            5.6182105630       11.7247889332        0.1570662293  CLST         269          1.0000000000
       808       270  TIP3  OH2           1.2321954206        9.3063700417       -8.0334524249  CLST         270          1.0000000000
       809       270  TIP3  H1            1.3519842660        8.4991151689       -8.5376846045  CLST         270          1.0000000000
       810       270  TIP3  H2            0.8338582731        8.8305546181       -7.1657601443  CLST         270          1.0000000000
       811       271  TIP3  OH2          -6.4711476696       -8.9954895679       -2.1077267105  CLST         271          1.0000000000
       812       271  TIP3  H1           -5.7388296448       -8.9189201727       -1.4539946690  CLST         271          1.0000000000
       813       271  TIP3  H2           -7.1617623210       -8.9496462059       -1.2827250838  CLST         271          1.0000000000
       814       272  TIP3  OH2           9.2679576681       -8.3149944183        5.8058748243  CLST         272          1.0000000000
       815       272  TIP3  H1            8.2874620544       -8.3614229957        5.7861522684  CLST         272          1.0000000000
       816       272  TIP3  H2            9.4181938433       -7.8217568775        4.9292210901  CLST         272          1.0000000000
       817       273  TIP3  OH2         -13.8896639543        9.3527939911        3.2520901050  CLST         273          1.0000000000
       818       273  TIP3  H1          -14.5265470269        9.7093062970        3.9234531256  CLST         273          1.0000000000
       819       273  TIP3  H2          -13.3901220255        8.8175482929        3.8754535463  CLST         273          1.0000000000
       820       274  TIP3  OH2           4.1855297151       13.0274969904       -4.0490159700  CLST         274          1.0000000000
       821       274  TIP3  H1            3.9719298568       12.4091716588       -3.2822143230  CLST         274          1.0000000000
       822       274  TIP3  H2            4.0880249563       13.8238638218       -3.7385245158  CLST         274          1.0000000000
       823       275  TIP3  OH2           8.7413270257      -11.2907863619        5.9041104696  CLST         275          1.0000000000
       824       275  TIP3  H1            9.2400504729      -10.4720256337        5.9993447454  CLST         275          1.0000000000
       825       275  TIP3  H2            9.3055639905      -12.0348857698        5.6274318054  CLST         275          1.0000000000
       826       276  TIP3  OH2          -0.2153912449       -5.9066312634        1.3364664455  CLST         276          1.0000000000
       827       276  TIP3  H1           -0.8072990584       -6.2913332180        0.6782264980  CLST         276          1.0000000000
       828       276  TIP3  H2           -0.7709183129       -5.2702213538        1.8485961987  CLST         276          1.0000000000
       829       277  TIP3  OH2           6.4470437557        6.4134838627       -6.8880808858  CLST         277          1.0000000000
       830       277  TIP3  H1            5.7858821456        5.8977319850       -7.4205743548  CLST         277          1.0000000000
       831       277  TIP3  H2            6.5518882627        7.3060704092       -7.3642281386  CLST         277          1.0000000000
       832       278  TIP3  OH2          -0.6489536994       -7.6306729491        3.4494705971  CLST         278          1.0000000000
       833       278  TIP3  H1           -0.3570796336       -7.0177455565        2.6790531105  CLST         278          1.0000000000
       834       278  TIP3  H2           -0.8232990241       -6.9013420002        4.0660403605  CLST         278          1.0000000000
       835       279  TIP3  OH2         -13.5222856722        6.5026329409        0.3757178489  CLST         279          1.0000000000
       836       279  TIP3  H1          -13.8545963775        5.5864230880        0.1925659837  CLST         279          1.0000000000
       837       279  TIP3  H2          -12.5734146357        6.3775910631        0.5740726415  CLST         279          1.0000000000
       838       280  TIP3  OH2          -3.2642843456      -10.1661648747        5.4726260252  CLST         280          1.0000000000
       839       280  TIP3  H1           -2.6744078043       -9.4579210836        5.7886383374  CLST         280          1.0000000000
       840       280  TIP3  H2           -3.9680905194       -9.5368777877        5.1667429126  CLST         280          1.0000000000
       841       281  TIP3  OH2           8.0960281392        7.8366765018      -10.6131797125  CLST         281          1.0000000000
       842       281  TIP3  H1            8.6398710804        8.6413712090      -10.5224002100  CLST         281          1.0000000000
       843       281  TIP3  H2            7.1721184784        8.1887046636      -10.6633227080  CLST         281          1.0000000000
       844       282  TIP3  OH2          -7.8232757611      -11.9022882572        9.9491119635  CLST         282          1.0000000000
       845       282  TIP3  H1           -8.4178277969      -11.5952677115        9.2501312152  CLST         282          1.0000000000
       846       282  TIP3  H2           -7.3033526510      -12.4913005219        9.3034809865  CLST         282          1.0000000000
       847       283  TIP3  OH2           4.3922239548        8.6358340864       -4.7361461331  CLST         283          1.0000000000
       848       283  TIP3  H1            4.6927846693        9.5570154090       -4.8731573210  CLST         283          1.0000000000
       849       283  TIP3  H2            3.9219475495        8.7076039723       -3.8451037737  CLST         283          1.0000000000
       850       284  TIP3  OH2          11.8233806219        8.3021518654       -1.5255975994  CLST         284          1.0000000000
       851       284  TIP3  H1           12.0658131325        7.7237008949       -2.2787364974  CLST         284          1.0000000000
       852       284  TIP3  H2           10.9566676471        8.6469382778       -1.8551887153  CLST         284          1.0000000000
       853       285  TIP3  OH2          -5.3727953353        1.8860785324        8.8776384975  CLST         285          1.0000000000
       854       285  TIP3  H1           -4.5689855170        1.5602895704        8.4390183016  CLST         285          1.0000000000
       855       285  TIP3  H2           -4.9201736857        2.6832504193        9.3087448893  CLST         285          1.0000000000
       856       286  TIP3  OH2           2.9508768161        5.9840325720       -0.4965669973  CLST         286          1.0000000000
       857       286  TIP3  H1            2.3474164148        5.9538301306        0.2419177436  CLST         286          1.0000000000
       858       286  TIP3  H2            3.8386171961        6.0353187137        0.0695580308  CLST         286          1.0000000000
       859       287  TIP3  OH2          -4.4094656346        9.2902176521       11.1935429404  CLST         287          1.0000000000
       860       287  TIP3  H1           -4.7761183045        9.9271115432       11.8035121728  CLST         287          1.0000000000
       861       287  TIP3  H2           -5.2385744317        8.9390954445       10.7704300455  CLST         287          1.0000000000
       862       288  TIP3  OH2           5.6096425896        3.5387506332       -9.5206307847  CLST         288          1.0000000000
       863       288  TIP3  H1            5.3457506879        2.8918967487      -10.0678584172  CLST         288          1.0000000000
       864       288  TIP3  H2            6.3939837526        3.9820461159       -9.9848633904  CLST         288          1.0000000000
       865       289  TIP3  OH2          -7.0796279144       -4.9870624116       -8.4204375073  CLST         289          1.0000000000
       866       289  TIP3  H1           -7.9508594755       -4.3775548369       -8.2724599758  CLST         289          1.0000000000
       867       289  TIP3  H2           -6.5075282603       -4.6605569082       -7.7294407766  CLST         289          1.0000000000
       868       290  TIP3  OH2           2.0651040730      -11.9476283993       11.1935015734  CLST         290          1.0000000000
       869       290  TIP3  H1            2.5851412111      -12.7171352279       11.0276112316  CLST         290          1.0000000000
       870       290  TIP3  H2            2.6005237450      -11.4111476275       11.7834734913  CLST         290          1.0000000000
       871       291  TIP3  OH2         -10.1586605989       -3.7098134763        2.9485357833  CLST         291          1.0000000000
       872       291  TIP3  H1          -10.9461770014       -4.2335130814        3.2237593830  CLST         291          1.0000000000
       873       291  TIP3  H2          -10.0409770384       -3.8452622843        2.0327448617  CLST         291          1.0000000000
       874       292  TIP3  OH2          12.0240354437        3.4953801516       -4.6375354316  CLST         292          1.0000000000
       875       292  TIP3  H1           11.0766619394        3.3408341178       -4.3891732527  CLST         292          1.0000000000
       876       292  TIP3  H2           11.8812304552        3.8792144522       -5.5204107191  CLST         292          1.0000000000
       877       293  TIP3  OH2           9.0073581991       10.6008291592       11.1974592196  CLST         293          1.0000000000
       878       293  TIP3  H1            8.4661566795       11.1713334073       11.7283510478  CLST         293          1.0000000000
       879       293  TIP3  H2            9.1887532208       11.1183670754       10.3755573383  CLST         293          1.0000000000
       880       294  TIP3  OH2           4.2015250380        4.4968497115       -2.4532459900  CLST         294          1.0000000000
       881       294  TIP3  H1            3.6769586824        5.0224596288       -1.7771731376  CLST         294          1.0000000000
       882       294  TIP3  H2            4.2184792040        5.0025410367       -3.3091993174  CLST         294          1.0000000000
       883       295  TIP3  OH2          -2.3974798577      -13.3915418847       -8.7929004936  CLST         295          1.0000000000
       884       295  TIP3  H1           -3.0438282295      -13.1551400273       -8.0865200753  CLST         295          1.0000000000
       885       295  TIP3  H2           -1.5798598687      -13.3959919434       -8.2012286876  CLST         295          1.0000000000
       886       296  TIP3  OH2          -1.6545985006       11.3905521868      -12.9920103859  CLST         296          1.0000000000
       887       296  TIP3  H1           -0.7404647979       11.0975368914      -13.2171880329  CLST         296          1.0000000000
       888       296  TIP3  H2           -1.5054929301       11.2295692076      -12.0030209147  CLST         296          1.0000000000
       889       297  TIP3  OH2           8.0399105645       -0.4774152219       11.5202530506  CLST         297          1.0000000000
       890       297  TIP3  H1            8.4444356364       -1.3550978527       11.2590668750  CLST         297          1.0000000000
       891       297  TIP3  H2            7.1246373245       -0.8264622200       11.7012472855  CLST         297          1.0000000000
       892       298  TIP3  OH2           0.9934560902       -1.3268006176       -7.5007287090  CLST         298          1.0000000000
       893       298  TIP3  H1            1.3194957129       -0.7397736460       -8.2456681692  CLST         298          1.0000000000
       894       298  TIP3  H2            0.7956259104       -2.1119519143       -8.0924471140  CLST         298          1.0000000000
       895       299  TIP3  OH2           2.9628355865       10.2665609837       12.8865394055  CLST         299          1.0000000000
       896       299  TIP3  H1            2.3063186022       10.7971556857       12.3965765810  CLST         299          1.0000000000
       897       299  TIP3  H2            2.3094248635        9.9161737728       13.4312242185  CLST         299          1.0000000000
       898       300  TIP3  OH2         -10.8165959683        5.2338047006       -3.7309889268  CLST         300          1.0000000000
       899       300  TIP3  H1          -10.7785647429        5.7090069138       -4.5803999957  CLST         300          1.0000000000
       900       300  TIP3  H2          -10.7193291404        6.0307303010       -3.1347493027  CLST         300          1.0000000000
       901       301  TIP3  OH2           9.7251239558       -8.2737601225       11.1351464326  CLST         301          1.0000000000
       902       301  TIP3  H1            9.5645220566       -8.0305477200       12.0607579326  CLST         301          1.0000000000
       903       301  TIP3  H2            9.6520323032       -9.2894265891       11.2702483577  CLST         301          1.0000000000
       904       302  TIP3  OH2           7.9197500563       12.8070809526        5.4799571830  CLST         302          1.0000000000
       905       302  TIP3  H1            7.5547237987       13.3675724003        4.7371545887  CLST         302          1.0000000000
       906       302  TIP3  H2            7.0682864367       12.2890680201        5.5008228169  CLST         302          1.0000000000
       907       303  TIP3  OH2         -10.9339311958        1.1923511935       -2.0343632113  CLST         303          1.0000000000
       908       303  TIP3  H1           -9.9942265957        1.1128063269       -1.8329495367  CLST         303          1.0000000000
       909       303  TIP3  H2          -11.0095610089        0.5571014117       -2.8238868588  CLST         303          1.0000000000
       910       304  TIP3  OH2          -8.0104923178        1.1728917898      -15.0566937784  CLST         304          1.0000000000
       911       304  TIP3  H1           -7.4903863082        0.3993748181      -14.7027883989  CLST         304          1.0000000000
       912       304  TIP3  H2           -7.4399352744        1.7333920449      -15.5850664743  CLST         304          1.0000000000
       913       305  TIP3  OH2           3.4258271893       -3.9481988242       13.9142362993  CLST         305          1.0000000000
       914       305  TIP3  H1            4.2809371031       -4.2414676227       13.6517752923  CLST         305          1.0000000000
       915       305  TIP3  H2            3.3647109420       -3.0059393334       13.7383276326  CLST         305          1.0000000000
       916       306  TIP3  OH2           8.8310713631      -11.9898271499      -11.2661180112  CLST         306          1.0000000000
       917       306  TIP3  H1            9.5933261439      -11.6851941761      -11.8703210029  CLST         306          1.0000000000
       918       306  TIP3  H2            9.0845243642      -12.8612135447      -11.0783200998  CLST         306          1.0000000000
       919       307  TIP3  OH2           9.2372952335        7.8416414642       -7.6229154814  CLST         307          1.0000000000
       920       307  TIP3  H1            8.6245675713        8.5321298705       -7.8501132163  CLST         307          1.0000000000
       921       307  TIP3  H2            9.3310252349        7.9480417434       -6.6329276533  CLST         307          1.0000000000
       922       308  TIP3  OH2         -10.9209871165       -4.7465890992        8.8692776727  CLST         308          1.0000000000
       923       308  TIP3  H1          -10.8635469028       -5.5693897220        9.4320955668  CLST         308          1.0000000000
       924       308  TIP3  H2          -10.0172737728       -4.4091448991        8.9160239625  CLST         308          1.0000000000
       925       309  TIP3  OH2          -1.9922302081       -0.5901706043        5.6453547995  CLST         309          1.0000000000
       926       309  TIP3  H1           -2.7599785444       -1.0571707267        5.2578481888  CLST         309          1.0000000000
       927       309  TIP3  H2           -1.8344353275       -1.3054391229        6.2983952829  CLST         309          1.0000000000
       928       310  TIP3  OH2          -4.9910128915       -0.5705098270        7.1921772853  CLST         310          1.0000000000
       929       310  TIP3  H1           -4.2531673892        0.0768687223        7.3526444908  CLST         310          1.0000000000
       930       310  TIP3  H2           -5.1166001032       -0.9571716919        8.1084614020  CLST         310          1.0000000000
       931       311  TIP3  OH2          -7.2470153299        8.5824700980      -12.2947026713  CLST         311          1.0000000000
       932       311  TIP3  H1           -6.6147633483        7.9282528281      -12.7496662243  CLST         311          1.0000000000
       933       311  TIP3  H2           -7.6412566778        7.8810130233      -11.7546135732  CLST         311          1.0000000000
       934       312  TIP3  OH2           6.4878221562       -0.7982592812       -6.2550079150  CLST         312          1.0000000000
       935       312  TIP3  H1            6.1670717561        0.0040501906       -5.8023341912  CLST         312          1.0000000000
       936       312  TIP3  H2            6.3761277142       -1.3651708115       -5.4489703973  CLST         312          1.0000000000
       937       313  TIP3  OH2          -8.9665743580      -10.7170857675        7.2889675700  CLST         313          1.0000000000
       938       313  TIP3  H1           -8.3586408115       -9.9902930957        6.9488567784  CLST         313          1.0000000000
       939       313  TIP3  H2           -9.4239503772      -10.8850654425        6.4357724050  CLST         313          1.0000000000
       940       314  TIP3  OH2          -1.3230980559      -12.0786714813      -10.7671100053  CLST         314          1.0000000000
       941       314  TIP3  H1           -1.3391604747      -11.2766946209      -10.2132899959  CLST         314          1.0000000000
       942       314  TIP3  H2           -1.8775694540      -12.6675064348      -10.1376161406  CLST         314          1.0000000000
       943       315  TIP3  OH2          -1.3948466172       -0.6169305326       -6.4788665230  CLST         315          1.0000000000
       944       315  TIP3  H1           -0.4739983801       -0.9558058009       -6.7541517931  CLST         315          1.0000000000
       945       315  TIP3  H2           -1.1506638499       -0.1522856059       -5.5928323143  CLST         315          1.0000000000
       946       316  TIP3  OH2         -13.2884449862       -3.8144789536       -5.4363703271  CLST         316          1.0000000000
       947       316  TIP3  H1          -12.6344294279       -4.1384162047       -6.0728721813  CLST         316          1.0000000000
       948       316  TIP3  H2          -12.9091014485       -2.9483382452       -5.4225811467  CLST         316          1.0000000000
       949       317  TIP3  OH2          -6.1818369278       -0.0072773309       -3.8118163376  CLST         317          1.0000000000
       950       317  TIP3  H1           -5.3119122308        0.0225963633       -3.3145170034  CLST         317          1.0000000000
       951       317  TIP3  H2           -6.7285491049        0.1220992332       -2.9984904954  CLST         317          1.0000000000
       952       318  TIP3  OH2          -3.8950990647       -9.5834382775       -9.4626389316  CLST         318          1.0000000000
       953       318  TIP3  H1           -3.9839736222       -9.9247116491       -8.5065273115  CLST         318          1.0000000000
       954       318  TIP3  H2           -2.9010053269       -9.5793840453       -9.4286022570  CLST         318          1.0000000000
       955       319  TIP3  OH2           5.5792475704       10.8311710489        8.6659839688  CLST         319          1.0000000000
       956       319  TIP3  H1            6.3905692437       10.8168371884        8.1076853526  CLST         319          1.0000000000
       957       319  TIP3  H2            5.7853149080       11.3616242243        9.4162327523  CLST         319          1.0000000000
       958       320  TIP3  OH2         -10.6513565598        1.0570621958      -14.4967101698  CLST         320          1.0000000000
       959       320  TIP3  H1           -9.6816519033        0.9898406444      -14.7738405740  CLST         320          1.0000000000
       960       320  TIP3  H2          -10.6191112394        0.1639009344      -14.0850303292  CLST         320          1.0000000000
       961       321  TIP3  OH2          -9.9430879207       10.2501520493       -9.7903600345  CLST         321          1.0000000000
       962       321  TIP3  H1          -10.8052943769       10.5011378496       -9.7613885618  CLST         321          1.0000000000
       963       321  TIP3  H2           -9.7998667857       10.2662249647      -10.8689739868  CLST         321          1.0000000000
       964       322  TIP3  OH2         -12.5899521490       -1.7928982162       -2.4208094647  CLST         322          1.0000000000
       965       322  TIP3  H1          -12.1655115300       -1.3728760000       -3.2368503785  CLST         322          1.0000000000
       966       322  TIP3  H2          -11.6975532708       -1.7972842577       -1.9206400260  CLST         322          1.0000000000
       967       323  TIP3  OH2          -1.0629961652        4.0745780845        4.2985533805  CLST         323          1.0000000000
       968       323  TIP3  H1           -0.4144664878        3.3313768694        4.3449543701  CLST         323          1.0000000000
       969       323  TIP3  H2           -1.0790074673        4.2578956046        3.3525986341  CLST         323          1.0000000000
       970       324  TIP3  OH2         -10.9693419135        6.3422562544        1.4297745589  CLST         324          1.0000000000
       971       324  TIP3  H1          -11.0674637904        5.7528994005        2.1964663746  CLST         324          1.0000000000
       972       324  TIP3  H2          -10.2037314625        6.8511439066        1.8581750966  CLST         324          1.0000000000
       973       325  TIP3  OH2          -4.7165326516        0.8842793587        3.6468985337  CLST         325          1.0000000000
       974       325  TIP3  H1           -5.7190555921        0.7913373690        3.7246418514  CLST         325          1.0000000000
       975       325  TIP3  H2           -4.7479503327        1.8296906469        3.5927960374  CLST         325          1.0000000000
       976       326  TIP3  OH2           9.1611100309        8.6248613539       -2.8209330047  CLST         326          1.0000000000
       977       326  TIP3  H1            9.0571947622        8.0348132610       -2.0427774054  CLST         326          1.0000000000
       978       326  TIP3  H2            8.2678015142        8.5389971505       -3.2227681383  CLST         326          1.0000000000
       979       327  TIP3  OH2          10.3668991505       -3.5294483785      -13.0437888317  CLST         327          1.0000000000
       980       327  TIP3  H1           10.4258822957       -3.3186502824      -13.8560419193  CLST         327          1.0000000000
       981       327  TIP3  H2           10.2344757400       -2.8004069253      -12.4115342603  CLST         327          1.0000000000
       982       328  TIP3  OH2           2.1581414235        7.0390062998       -9.9566725329  CLST         328          1.0000000000
       983       328  TIP3  H1            2.3761196565        6.2926136851       -9.3485786857  CLST         328          1.0000000000
       984       328  TIP3  H2            3.1252590668        7.3233282770       -9.9170523847  CLST         328          1.0000000000
       985       329  TIP3  OH2           1.3407977077      -11.8125540311       -2.2833771847  CLST         329          1.0000000000
       986       329  TIP3  H1            1.1959382071      -10.8227028720       -2.3270848149  CLST         329          1.0000000000
       987       329  TIP3  H2            2.2461068324      -11.7414882148       -1.9099370027  CLST         329          1.0000000000
       988       330  TIP3  OH2          -9.3657635870       -1.0636083433        3.5457286566  CLST         330          1.0000000000
       989       330  TIP3  H1           -9.6036835145       -1.9979870788        3.3784736872  CLST         330          1.0000000000
       990       330  TIP3  H2          -10.2124829636       -0.6889676825        3.8301926619  CLST         330          1.0000000000
       991       331  TIP3  OH2          12.3963414496        9.7640959466       -9.0458619912  CLST         331          1.0000000000
       992       331  TIP3  H1           13.2568005370        9.7180988546       -9.1004288759  CLST         331          1.0000000000
       993       331  TIP3  H2           11.9992162299        8.8492959975       -9.2105995579  CLST         331          1.0000000000
       994       332  TIP3  OH2          11.3637940205       -1.2202828598       -4.5305365203  CLST         332          1.0000000000
       995       332  TIP3  H1           12.2832007365       -1.4575025604       -4.8883344656  CLST         332          1.0000000000
       996       332  TIP3  H2           11.5591477139       -0.4287360173       -4.0105275846  CLST         332          1.0000000000
       997       333  TIP3  OH2          10.6814379635      -14.1344095910        7.9452178443  CLST         333          1.0000000000
       998       333  TIP3  H1            9.8284778528      -13.6767429537        8.1132784491  CLST         333          1.0000000000
       999       333  TIP3  H2           10.6864290985      -14.0394646734        6.9894125182  CLST         333          1.0000000000
      1000       334  TIP3  OH2         -10.5781843842       -9.5773988440        9.0336486480  CLST         334          1.0000000000
      1001       334  TIP3  H1          -11.3103721314       -9.9612652054        8.5199912909  CLST         334          1.0000000000
      1002       334  TIP3  H2           -9.9058148474       -9.8624027905        8.3764803726  CLST         334          1.0000000000
      1003       335  TIP3  OH2           6.8793637152       -9.9783867970        1.5047326740  CLST         335          1.0000000000
      1004       335  TIP3  H1            6.7066684886       -9.8027473923        2.4392080293  CLST         335          1.0000000000
      1005       335  TIP3  H2            5.9716745705      -10.2181453125        1.2300148869  CLST         335          1.0000000000
      1006       336  TIP3  OH2          -9.3458758940       -3.7723847867       -3.5157883752  CLST         336          1.0000000000
      1007       336  TIP3  H1           -9.6194445180       -4.6050795959       -3.9171597304  CLST         336          1.0000000000
      1008       336  TIP3  H2           -9.0818457165       -3.1847193579       -4.2656814527  CLST         336          1.0000000000
      1009       337  TIP3  OH2          -1.5606543974       -4.8796428121        8.0157835088  CLST         337          1.0000000000
      1010       337  TIP3  H1           -1.2869404758       -4.4882221237        8.9341626197  CLST         337          1.0000000000
      1011       337  TIP3  H2           -2.0031482016       -3.9757008756        7.7566950043  CLST         337          1.0000000000
      1012       338  TIP3  OH2          -0.6209458315        2.6433024640       10.7610548617  CLST         338          1.0000000000
      1013       338  TIP3  H1           -0.6299038637        2.4609302175        9.7567652287  CLST         338          1.0000000000
      1014       338  TIP3  H2           -0.2678878493        1.8089585706       11.0658555723  CLST         338          1.0000000000
      1015       339  TIP3  OH2           7.8799682665        8.0539541889        2.8194961689  CLST         339          1.0000000000
      1016       339  TIP3  H1            7.4796059903        8.7494179294        3.4218347886  CLST         339          1.0000000000
      1017       339  TIP3  H2            7.2314870665        7.8195641034        2.1583540669  CLST         339          1.0000000000
      1018       340  TIP3  OH2          -4.6993223887      -11.6721973179      -11.1848813497  CLST         340          1.0000000000
      1019       340  TIP3  H1           -4.4633566380      -10.9533924465      -10.5442490325  CLST         340          1.0000000000
      1020       340  TIP3  H2           -4.1301599772      -12.3801966856      -10.9452499903  CLST         340          1.0000000000
      1021       341  TIP3  OH2          -6.7623099257        4.8021825862        9.2496144026  CLST         341          1.0000000000
      1022       341  TIP3  H1           -5.8073847294        4.6222591074        9.5707550138  CLST         341          1.0000000000
      1023       341  TIP3  H2           -7.0736780146        3.9065475441        9.1693020905  CLST         341          1.0000000000
      1024       342  TIP3  OH2          -4.5505421172      -11.0862928492       13.9766215483  CLST         342          1.0000000000
      1025       342  TIP3  H1           -5.2250380315      -10.8917542033       13.3028403084  CLST         342          1.0000000000
      1026       342  TIP3  H2           -4.6387668918      -10.8738101447       14.8303244611  CLST         342          1.0000000000
      1027       343  TIP3  OH2           1.4946495551       -8.9569270817       -9.8220985684  CLST         343          1.0000000000
      1028       343  TIP3  H1            1.6366553700       -8.0794975836      -10.3265678783  CLST         343          1.0000000000
      1029       343  TIP3  H2            1.6197142685       -9.5345564392      -10.5904557661  CLST         343          1.0000000000
      1030       344  TIP3  OH2           5.4583478321       -3.9770730364        6.4402668732  CLST         344          1.0000000000
      1031       344  TIP3  H1            4.8440348525       -4.5452055879        7.0248369974  CLST         344          1.0000000000
      1032       344  TIP3  H2            6.0473744850       -4.7021565600        6.0268442246  CLST         344          1.0000000000
      1033       345  TIP3  OH2          13.1358929200        7.3549840897        8.9047484070  CLST         345          1.0000000000
      1034       345  TIP3  H1           12.6521838624        6.5784627154        8.5986991593  CLST         345          1.0000000000
      1035       345  TIP3  H2           12.5392656593        7.4866107464        9.7118001415  CLST         345          1.0000000000
      1036       346  TIP3  OH2           9.5086580058        9.4793058332        0.9605419100  CLST         346          1.0000000000
      1037       346  TIP3  H1            9.7687536116       10.1954723101        1.6739221376  CLST         346          1.0000000000
      1038       346  TIP3  H2            8.9598113574        8.9246192179        1.5793793098  CLST         346          1.0000000000
      1039       347  TIP3  OH2          -4.9174100397        3.0095394126       -9.6511345744  CLST         347          1.0000000000
      1040       347  TIP3  H1           -5.6654846282        3.2119728631       -8.9875849516  CLST         347          1.0000000000
      1041       347  TIP3  H2           -4.3776352772        2.5789552751       -8.9399984104  CLST         347          1.0000000000
      1042       348  TIP3  OH2          -1.2646709145        6.3056613818        5.8089810682  CLST         348          1.0000000000
      1043       348  TIP3  H1           -1.3117106327        5.4521001902        5.2732316174  CLST         348          1.0000000000
      1044       348  TIP3  H2           -0.5815744332        6.6707951959        5.1643980714  CLST         348          1.0000000000
      1045       349  TIP3  OH2          -4.1804742514        5.2104215386       -2.6490757363  CLST         349          1.0000000000
      1046       349  TIP3  H1           -3.7178839196        4.6195770054       -3.2965889849  CLST         349          1.0000000000
      1047       349  TIP3  H2           -3.4075681138        5.8895374658       -2.7033392220  CLST         349          1.0000000000
      1048       350  TIP3  OH2          -2.6133437610        8.9709377669        5.1790454632  CLST         350          1.0000000000
      1049       350  TIP3  H1           -2.9452197068        8.6545998498        4.2823953847  CLST         350          1.0000000000
      1050       350  TIP3  H2           -2.6123907676        8.0970844154        5.6017895074  CLST         350          1.0000000000
      1051       351  TIP3  OH2           4.8162550976       -7.4151691823       -7.7113763474  CLST         351          1.0000000000
      1052       351  TIP3  H1            4.1827878154       -8.1569014594       -7.6385064870  CLST         351          1.0000000000
      1053       351  TIP3  H2            4.8784773735       -7.3436445495       -8.6995005578  CLST         351          1.0000000000
      1054       352  TIP3  OH2         -10.3211836297      -10.9970659716        1.7222853056  CLST         352          1.0000000000
      1055       352  TIP3  H1           -9.4287576154      -10.8769203664        1.4451369840  CLST         352          1.0000000000
      1056       352  TIP3  H2          -10.8121739818      -10.4756780842        1.0507122993  CLST         352          1.0000000000
      1057       353  TIP3  OH2          10.8575347807       -8.2073139743       -8.7255845097  CLST         353          1.0000000000
      1058       353  TIP3  H1            9.9442580446       -8.5877867768       -8.7866648097  CLST         353          1.0000000000
      1059       353  TIP3  H2           11.2827005136       -8.5097182036       -7.9691404116  CLST         353          1.0000000000
      1060       354  TIP3  OH2           6.7652179943      -10.4506020616        4.1403649133  CLST         354          1.0000000000
      1061       354  TIP3  H1            7.4710247384      -10.8569461395        4.7030665925  CLST         354          1.0000000000
      1062       354  TIP3  H2            6.5327157720       -9.6699187870        4.7077336601  CLST         354          1.0000000000
      1063       355  TIP3  OH2          -7.1988757232        9.0633259422       -8.7781512876  CLST         355          1.0000000000
      1064       355  TIP3  H1           -6.8107567270        9.9210769419       -8.6620251262  CLST         355          1.0000000000
      1065       355  TIP3  H2           -8.1041640891        9.2805462663       -9.0115301497  CLST         355          1.0000000000
      1066       356  TIP3  OH2          12.4666831597        0.9364963531       -1.8347103982  CLST         356          1.0000000000
      1067       356  TIP3  H1           11.4763203117        0.7199650814       -2.0560387792  CLST         356          1.0000000000
      1068       356  TIP3  H2           12.5392309881        0.7732462521       -0.9130983834  CLST         356          1.0000000000
      1069       357  TIP3  OH2          -0.5242638548       -0.5046660321       -1.9466077643  CLST         357          1.0000000000
      1070       357  TIP3  H1            0.3723214728       -0.9554018804       -2.0138299820  CLST         357          1.0000000000
      1071       357  TIP3  H2           -0.5062802000       -0.2681216667       -2.9191766900  CLST         357          1.0000000000
      1072       358  TIP3  OH2          -5.6319260597        6.9903056255       -7.5118784287  CLST         358          1.0000000000
      1073       358  TIP3  H1           -6.1110643350        7.6967339323       -8.0133275664  CLST         358          1.0000000000
      1074       358  TIP3  H2           -6.4131599306        6.4951668031       -7.1727670637  CLST         358          1.0000000000
      1075       359  TIP3  OH2          -5.1069030033       12.2536758711        6.1942491202  CLST         359          1.0000000000
      1076       359  TIP3  H1           -5.4224267826       12.0690001722        5.2860083043  CLST         359          1.0000000000
      1077       359  TIP3  H2           -4.1335322831       12.2055120079        6.0419889582  CLST         359          1.0000000000
      1078       360  TIP3  OH2          -6.8880636253        5.8274419398       -3.3507776218  CLST         360          1.0000000000
      1079       360  TIP3  H1           -7.0321893054        6.2519932238       -2.5026217137  CLST         360          1.0000000000
      1080       360  TIP3  H2           -5.8995573315        5.5441250286       -3.1091676277  CLST         360          1.0000000000
      1081       361  TIP3  OH2          -1.5683768358       -1.0962823258        9.9627847056  CLST         361          1.0000000000
      1082       361  TIP3  H1           -1.5468257291       -0.3513084890       10.6060941299  CLST         361          1.0000000000
      1083       361  TIP3  H2           -1.7447614595       -1.8844509533       10.5471439276  CLST         361          1.0000000000
      1084       362  TIP3  OH2         -10.5438798855        2.6463367555        0.6222033250  CLST         362          1.0000000000
      1085       362  TIP3  H1          -10.6605513509        3.1286471281       -0.2305964215  CLST         362          1.0000000000
      1086       362  TIP3  H2          -11.0425832696        1.8359341756        0.3425920348  CLST         362          1.0000000000
      1087       363  TIP3  OH2          10.6950945375        2.4739725540       10.1492915836  CLST         363          1.0000000000
      1088       363  TIP3  H1           10.9963851940        1.0960139322       10.1426933407  CLST         363          1.0000000000
      1089       363  TIP3  H2           11.1808339989        2.9581173176       10.6091621532  CLST         363          1.0000000000
      1090       364  TIP3  OH2           7.6657891956       -5.5772524071       -6.2508864355  CLST         364          1.0000000000
      1091       364  TIP3  H1            6.9394490016       -4.9695333225       -6.4826745973  CLST         364          1.0000000000
      1092       364  TIP3  H2            8.2801875945       -5.5647874522       -7.0693203846  CLST         364          1.0000000000
      1093       365  TIP3  OH2          -6.0018147457       -6.8090030054        2.7453847575  CLST         365          1.0000000000
      1094       365  TIP3  H1           -6.5551301297       -6.0094696207        2.5965967155  CLST         365          1.0000000000
      1095       365  TIP3  H2           -6.8332677911       -7.3723552577        3.0524445533  CLST         365          1.0000000000
      1096       366  TIP3  OH2           1.8548182425       -1.6219532712       -2.9966156982  CLST         366          1.0000000000
      1097       366  TIP3  H1            2.7823489554       -1.6187480027       -2.6467211270  CLST         366          1.0000000000
      1098       366  TIP3  H2            2.0202917190       -1.1478769352       -3.8515157107  CLST         366          1.0000000000
      1099       367  TIP3  OH2          -5.2403332518       11.6612041798       12.4759679496  CLST         367          1.0000000000
      1100       367  TIP3  H1           -5.9441792801       11.9814718839       11.8771387935  CLST         367          1.0000000000
      1101       367  TIP3  H2           -5.3145527049       12.1538642784       13.2258248246  CLST         367          1.0000000000
      1102       368  TIP3  OH2          -2.7360525167        6.5131859453        1.1329732182  CLST         368          1.0000000000
      1103       368  TIP3  H1           -2.7839569173        7.3421139956        0.5818065357  CLST         368          1.0000000000
      1104       368  TIP3  H2           -3.2324733820        7.0120808276        1.8963156531  CLST         368          1.0000000000
      1105       369  TIP3  OH2         -11.4745930360       -1.7221933172       -6.3492645654  CLST         369          1.0000000000
      1106       369  TIP3  H1          -10.9294057583       -2.5087445531       -6.1693825243  CLST         369          1.0000000000
      1107       369  TIP3  H2          -11.8731326636       -2.0341291139       -7.2265298927  CLST         369          1.0000000000
      1108       370  TIP3  OH2         -12.0373051359        5.5000031171      -11.6424911263  CLST         370          1.0000000000
      1109       370  TIP3  H1          -12.3970806517        4.6612376236      -12.3947111764  CLST         370          1.0000000000
      1110       370  TIP3  H2          -12.7848778684        5.8654936200      -11.3950681633  CLST         370          1.0000000000
      1111       371  TIP3  OH2           2.0870132602        7.8276422978        5.7663920260  CLST         371          1.0000000000
      1112       371  TIP3  H1            1.9733464255        7.8509979082        6.7269453950  CLST         371          1.0000000000
      1113       371  TIP3  H2            2.9705932908        7.3645204641        5.7570050490  CLST         371          1.0000000000
      1114       372  TIP3  OH2           8.1431807608       -7.3997261212        9.0105841493  CLST         372          1.0000000000
      1115       372  TIP3  H1            8.8679111969       -7.6220337321        8.3807190208  CLST         372          1.0000000000
      1116       372  TIP3  H2            8.7031204661       -7.5667581502        9.8291634689  CLST         372          1.0000000000
      1117       373  TIP3  OH2          10.9848376641       -0.4673989581        6.4890257539  CLST         373          1.0000000000
      1118       373  TIP3  H1           11.3100620639        0.3652726754        6.1639197553  CLST         373          1.0000000000
      1119       373  TIP3  H2           10.2680669489       -0.4192345602        5.8980739186  CLST         373          1.0000000000
      1120       374  TIP3  OH2          -9.4801869815        4.7745859477      -12.2852237759  CLST         374          1.0000000000
      1121       374  TIP3  H1           -9.6866699552        5.4747610388      -12.9677053612  CLST         374          1.0000000000
      1122       374  TIP3  H2          -10.2357295246        5.0232007928      -11.7452096944  CLST         374          1.0000000000
      1123       375  TIP3  OH2           9.7394598684       -5.4431910903       -2.9793051286  CLST         375          1.0000000000
      1124       375  TIP3  H1           10.1477213875       -5.0999202820       -3.7989259431  CLST         375          1.0000000000
      1125       375  TIP3  H2           10.0727045075       -6.3825974509       -2.9531931276  CLST         375          1.0000000000
      1126       376  TIP3  OH2          -2.1782963420      -11.0398939633       12.1461473691  CLST         376          1.0000000000
      1127       376  TIP3  H1           -2.7831179022      -10.8566887716       12.9171655175  CLST         376          1.0000000000
      1128       376  TIP3  H2           -2.9147518012      -11.3923640130       11.5764868374  CLST         376          1.0000000000
      1129       377  TIP3  OH2         -10.2401560171       12.8746808293       10.4973832653  CLST         377          1.0000000000
      1130       377  TIP3  H1           -9.3287806052       12.7407280320       10.8211379328  CLST         377          1.0000000000
      1131       377  TIP3  H2           -9.9892817101       13.0480344295        9.5746047975  CLST         377          1.0000000000
      1132       378  TIP3  OH2           2.1856518454       -7.9702752632        7.3844187316  CLST         378          1.0000000000
      1133       378  TIP3  H1            2.3554841142       -7.0009290464        7.4122268004  CLST         378          1.0000000000
      1134       378  TIP3  H2            1.6776784285       -8.2373722520        8.1020974246  CLST         378          1.0000000000
      1135       379  TIP3  OH2          -9.4917975829        9.2833385432       -1.1478248047  CLST         379          1.0000000000
      1136       379  TIP3  H1           -8.8146499276        9.5198053070       -0.4942218059  CLST         379          1.0000000000
      1137       379  TIP3  H2           -9.6903755532       10.2284763524       -1.4180999400  CLST         379          1.0000000000
      1138       380  TIP3  OH2           3.0537136749       -4.1872404140      -11.3041203896  CLST         380          1.0000000000
      1139       380  TIP3  H1            2.4969641970       -3.5271578556      -11.8407637844  CLST         380          1.0000000000
      1140       380  TIP3  H2            3.3251029741       -4.7914621898      -12.0485586323  CLST         380          1.0000000000
      1141       381  TIP3  OH2          10.1811451678        4.3104097818        3.5129889199  CLST         381          1.0000000000
      1142       381  TIP3  H1            9.3484468743        4.6603631272        3.8890130893  CLST         381          1.0000000000
      1143       381  TIP3  H2           10.7969982072        5.0084414832        3.8081409025  CLST         381          1.0000000000
      1144       382  TIP3  OH2           1.9487640557       -5.3112308056        5.7290875092  CLST         382          1.0000000000
      1145       382  TIP3  H1            2.3657148064       -4.9703110045        6.5599318237  CLST         382          1.0000000000
      1146       382  TIP3  H2            2.7928329378       -5.7386995444        5.4009940128  CLST         382          1.0000000000
      1147       383  TIP3  OH2          10.3508861035        8.8639511302        4.8345952879  CLST         383          1.0000000000
      1148       383  TIP3  H1            9.4401119642        9.1996504247        4.6480350319  CLST         383          1.0000000000
      1149       383  TIP3  H2           10.7157419361        9.7690193395        4.9493886881  CLST         383          1.0000000000
      1150       384  TIP3  OH2          -3.3787386978       -1.8622295045       -8.2803729721  CLST         384          1.0000000000
      1151       384  TIP3  H1           -2.8631672084       -2.7277961111       -8.3108181985  CLST         384          1.0000000000
      1152       384  TIP3  H2           -2.7293586957       -1.4144594619       -7.6815921561  CLST         384          1.0000000000
      1153       385  TIP3  OH2           3.6856318933      -11.7869036550       -0.6475977920  CLST         385          1.0000000000
      1154       385  TIP3  H1            4.5932128616      -12.2682088140       -0.5625559361  CLST         385          1.0000000000
      1155       385  TIP3  H2            3.8606739795      -11.1148189656        0.0808262468  CLST         385          1.0000000000
      1156       386  TIP3  OH2          -4.3007923960        9.3619323626       -5.9985026247  CLST         386          1.0000000000
      1157       386  TIP3  H1           -4.8332292595        8.6024281379       -6.3080807815  CLST         386          1.0000000000
      1158       386  TIP3  H2           -4.2378780782        9.7812963198       -6.8940402716  CLST         386          1.0000000000
      1159       387  TIP3  OH2          -9.7776806335       10.5474010409        2.7347948021  CLST         387          1.0000000000
      1160       387  TIP3  H1          -10.5958933245       10.4482960316        2.1582746659  CLST         387          1.0000000000
      1161       387  TIP3  H2           -9.1443118574       10.1207271227        2.1107302974  CLST         387          1.0000000000
      1162       388  TIP3  OH2          -1.7088024518      -12.2872172514        5.8044429225  CLST         388          1.0000000000
      1163       388  TIP3  H1           -2.1405465459      -11.4573566031        5.4545598029  CLST         388          1.0000000000
      1164       388  TIP3  H2           -1.7476210122      -12.0799696865        6.7588079229  CLST         388          1.0000000000
      1165       389  TIP3  OH2          -8.2137406619        3.3156698260       -3.6028219735  CLST         389          1.0000000000
      1166       389  TIP3  H1           -7.8954417046        4.1347020101       -3.1471420680  CLST         389          1.0000000000
      1167       389  TIP3  H2           -8.9995200672        3.7141400222       -4.0422264777  CLST         389          1.0000000000
      1168       390  TIP3  OH2          -5.8445615452       -4.0681892159        4.5347630262  CLST         390          1.0000000000
      1169       390  TIP3  H1           -5.3514824541       -3.1860311602        4.6459041666  CLST         390          1.0000000000
      1170       390  TIP3  H2           -5.2264791434       -4.5024694104        3.9505723122  CLST         390          1.0000000000
      1171       391  TIP3  OH2          -8.7146134393       -8.8630816479       -6.2862163745  CLST         391          1.0000000000
      1172       391  TIP3  H1           -9.2781001136       -9.4697487252       -6.7591614926  CLST         391          1.0000000000
      1173       391  TIP3  H2           -7.9615801958       -9.4579954376       -6.0032942393  CLST         391          1.0000000000
      1174       392  TIP3  OH2           1.0538199947       -2.0281622085       10.0484653777  CLST         392          1.0000000000
      1175       392  TIP3  H1            0.3774166983       -2.6740932490       10.4153034237  CLST         392          1.0000000000
      1176       392  TIP3  H2            0.3674264916       -1.3613793100        9.7859546602  CLST         392          1.0000000000
      1177       393  TIP3  OH2          10.9471163345      -12.2477178060       -0.7180715326  CLST         393          1.0000000000
      1178       393  TIP3  H1           11.5710234285      -11.3769800301       -0.7708003826  CLST         393          1.0000000000
      1179       393  TIP3  H2           11.3996445906      -12.9595477164       -1.0516360178  CLST         393          1.0000000000
      1180       394  TIP3  OH2           0.4843674408       11.9060075503       -8.5551397326  CLST         394          1.0000000000
      1181       394  TIP3  H1            0.9865746556       12.4213556421       -7.8666714093  CLST         394          1.0000000000
      1182       394  TIP3  H2            0.6984041298       11.0162927231       -8.1603825347  CLST         394          1.0000000000
      1183       395  TIP3  OH2           6.8534564916        7.5510911187       -4.4880816335  CLST         395          1.0000000000
      1184       395  TIP3  H1            5.9515358458        8.0112901266       -4.5837226139  CLST         395          1.0000000000
      1185       395  TIP3  H2            6.8192091818        7.0186570306       -5.3718621747  CLST         395          1.0000000000
      1186       396  TIP3  OH2          -1.1287342427       -9.8669229664       -9.0263028133  CLST         396          1.0000000000
      1187       396  TIP3  H1           -1.2618896676       -9.7310247700       -8.0133558079  CLST         396          1.0000000000
      1188       396  TIP3  H2           -0.2166918090       -9.5462980016       -9.1476224567  CLST         396          1.0000000000
      1189       397  TIP3  OH2          11.2347192250        7.2368181721       -9.1330467492  CLST         397          1.0000000000
      1190       397  TIP3  H1           11.7472631252        6.5937366926       -8.6165443621  CLST         397          1.0000000000
      1191       397  TIP3  H2           10.3972579273        7.1880929453       -8.5505621333  CLST         397          1.0000000000
      1192       398  TIP3  OH2          10.5324072036        7.7971214472       -4.9031753652  CLST         398          1.0000000000
      1193       398  TIP3  H1           10.0165577872        8.1677870068       -4.0906195420  CLST         398          1.0000000000
      1194       398  TIP3  H2           11.2585437663        7.4144810755       -4.3468642888  CLST         398          1.0000000000
      1195       399  TIP3  OH2           1.7585119155       11.0544153049        4.8533500279  CLST         399          1.0000000000
      1196       399  TIP3  H1            0.9950700921       10.5474051418        5.2085700401  CLST         399          1.0000000000
      1197       399  TIP3  H2            2.2566324987       11.0156770829        5.7219044018  CLST         399          1.0000000000
      1198       400  TIP3  OH2           3.7749409400       -2.8955755534       -5.0870917367  CLST         400          1.0000000000
      1199       400  TIP3  H1            4.3955776413       -2.7231860703       -4.3926298436  CLST         400          1.0000000000
      1200       400  TIP3  H2            4.3799520659       -3.3262106065       -5.7964745713  CLST         400          1.0000000000
      1201       401  TIP3  OH2         -15.1452589252       10.0691663491        5.6396943816  CLST         401          1.0000000000
      1202       401  TIP3  H1          -14.4894105620       10.0554615273        6.3750568276  CLST         401          1.0000000000
      1203       401  TIP3  H2          -15.8840961276        9.8137210499        6.1996310426  CLST         401          1.0000000000
      1204       402  TIP3  OH2           1.9009876251       -1.6476575081       12.8833618083  CLST         402          1.0000000000
      1205       402  TIP3  H1            1.3521790568       -2.4736821892       12.7372188070  CLST         402          1.0000000000
      1206       402  TIP3  H2            2.0252903479       -1.5528580295       11.9135537257  CLST         402          1.0000000000
      1207       403  TIP3  OH2          -2.0007617953       -6.9760967381       -0.6901730809  CLST         403          1.0000000000
      1208       403  TIP3  H1           -1.9103673421       -6.4186146281       -1.3339779370  CLST         403          1.0000000000
      1209       403  TIP3  H2           -1.8709910061       -7.8735826683       -1.1898072970  CLST         403          1.0000000000
      1210       404  TIP3  OH2          -4.9980453227       -2.3723953775        9.1983360916  CLST         404          1.0000000000
      1211       404  TIP3  H1           -5.1765916326       -2.7386136327       10.0793978725  CLST         404          1.0000000000
      1212       404  TIP3  H2           -5.2120904036       -3.1843936528        8.6612222362  CLST         404          1.0000000000
      1213       405  TIP3  OH2         -12.0241744447        7.2322302691       11.3070771428  CLST         405          1.0000000000
      1214       405  TIP3  H1          -11.9346680362        6.3294713982       10.9339901009  CLST         405          1.0000000000
      1215       405  TIP3  H2          -12.9258232674        7.0146093522       11.5336639514  CLST         405          1.0000000000
      1216       406  TIP3  OH2           1.0104175683        7.7691937663      -12.2556653624  CLST         406          1.0000000000
      1217       406  TIP3  H1            0.9354406534        8.7636858438      -12.3426275462  CLST         406          1.0000000000
      1218       406  TIP3  H2            1.4407056048        7.5895643463      -11.3681236439  CLST         406          1.0000000000
      1219       407  TIP3  OH2          10.3574749189      -13.4048694227        5.1936299118  CLST         407          1.0000000000
      1220       407  TIP3  H1           10.5524265962      -13.4339384349        4.2386192910  CLST         407          1.0000000000
      1221       407  TIP3  H2           11.0806945220      -12.6766028385        5.2910121987  CLST         407          1.0000000000
      1222       408  TIP3  OH2          -3.0468553661      -11.6448187307        1.9036200972  CLST         408          1.0000000000
      1223       408  TIP3  H1           -2.2983868297      -11.0033451960        1.8598016460  CLST         408          1.0000000000
      1224       408  TIP3  H2           -2.5085489914      -12.3853650885        2.2692157900  CLST         408          1.0000000000
      1225       409  TIP3  OH2           1.1112849147       -9.5240780223        9.6241570401  CLST         409          1.0000000000
      1226       409  TIP3  H1            0.6457096017       -9.5053562827       10.4933490139  CLST         409          1.0000000000
      1227       409  TIP3  H2            1.5135155299      -10.4019054210        9.7249955855  CLST         409          1.0000000000
      1228       410  TIP3  OH2           9.7616538898       -7.1793439691       -5.2037607065  CLST         410          1.0000000000
      1229       410  TIP3  H1            8.9649346315       -6.8253962080       -5.6343921329  CLST         410          1.0000000000
      1230       410  TIP3  H2           10.3156708673       -6.4628645716       -5.5823851333  CLST         410          1.0000000000
      1231       411  TIP3  OH2         -10.1226372903       -2.3390722239       -1.2254932196  CLST         411          1.0000000000
      1232       411  TIP3  H1           -9.4942905691       -2.8014822533       -0.6196153622  CLST         411          1.0000000000
      1233       411  TIP3  H2           -9.7054884481       -2.8551392326       -2.0077323650  CLST         411          1.0000000000
      1234       412  TIP3  OH2           6.7527820278      -10.5176464273      -11.9338981179  CLST         412          1.0000000000
      1235       412  TIP3  H1            6.0649688354      -11.0099968342      -11.4288983394  CLST         412          1.0000000000
      1236       412  TIP3  H2            7.5543082320      -11.0899432261      -11.7038788583  CLST         412          1.0000000000
      1237       413  TIP3  OH2           7.1187894480       13.0570541200        0.3927469757  CLST         413          1.0000000000
      1238       413  TIP3  H1            7.7432276683       12.5939893950       -0.1897932481  CLST         413          1.0000000000
      1239       413  TIP3  H2            7.8019263355       13.5396849090        0.9266111571  CLST         413          1.0000000000
      1240       414  TIP3  OH2           1.4298209325       -2.4430624152      -12.4113109429  CLST         414          1.0000000000
      1241       414  TIP3  H1            0.5380710654       -2.0751316577      -12.2305223673  CLST         414          1.0000000000
      1242       414  TIP3  H2            1.3762235518       -2.6680965544      -13.3640547255  CLST         414          1.0000000000
      1243       415  TIP3  OH2           4.0924837755        5.3551470087       -8.2409226160  CLST         415          1.0000000000
      1244       415  TIP3  H1            3.5551587211        4.4931365024       -8.0888894900  CLST         415          1.0000000000
      1245       415  TIP3  H2            4.6833853674        4.9348067957       -8.9036570853  CLST         415          1.0000000000
      1246       416  TIP3  OH2           5.4935283979       12.4304517285       -7.6518078456  CLST         416          1.0000000000
      1247       416  TIP3  H1            5.3951872393       13.2299547260       -8.1496793430  CLST         416          1.0000000000
      1248       416  TIP3  H2            6.3597915087       12.1393788166       -8.1410726350  CLST         416          1.0000000000
      1249       417  TIP3  OH2          12.5211039443      -11.1756221365        2.7217712811  CLST         417          1.0000000000
      1250       417  TIP3  H1           11.8591974019      -11.7698763940        2.2318688704  CLST         417          1.0000000000
      1251       417  TIP3  H2           12.4089841660      -10.4009925155        2.1350604438  CLST         417          1.0000000000
      1252       418  TIP3  OH2          -9.1136989372       -1.6584576703        8.3747688342  CLST         418          1.0000000000
      1253       418  TIP3  H1           -8.6140843523       -1.1197620470        7.7446303784  CLST         418          1.0000000000
      1254       418  TIP3  H2           -9.3229430494       -0.9818785737        9.0246879317  CLST         418          1.0000000000
      1255       419  TIP3  OH2          14.9687159409        0.3034748467       -6.0706237521  CLST         419          1.0000000000
      1256       419  TIP3  H1           14.8949186914        1.0654835364       -4.8719293835  CLST         419          1.0000000000
      1257       419  TIP3  H2           15.8840961276        0.3779747099       -6.3439510783  CLST         419          1.0000000000
      1258       420  TIP3  OH2          -8.1468052482       -8.1952082981        3.5418930769  CLST         420          1.0000000000
      1259       420  TIP3  H1           -9.0419048765       -8.0603799730        3.0834096666  CLST         420          1.0000000000
      1260       420  TIP3  H2           -8.0253767236       -9.1893947198        3.4380437575  CLST         420          1.0000000000
      1261       421  TIP3  OH2           3.4660953086       -6.3025689250      -13.2781988452  CLST         421          1.0000000000
      1262       421  TIP3  H1            4.3677828301       -6.7560970818      -13.2705341494  CLST         421          1.0000000000
      1263       421  TIP3  H2            3.0277773975       -7.2267407392      -13.1855903766  CLST         421          1.0000000000
      1264       422  TIP3  OH2          -1.9335452623       -9.3278386711       -1.6966462894  CLST         422          1.0000000000
      1265       422  TIP3  H1           -1.3614694251      -10.1258205026       -1.6537513151  CLST         422          1.0000000000
      1266       422  TIP3  H2           -2.7448091984       -9.9104697808       -1.6895923988  CLST         422          1.0000000000
      1267       423  TIP3  OH2           1.7430944227        4.8926963979       -3.9110613087  CLST         423          1.0000000000
      1268       423  TIP3  H1            2.4752653319        5.3844974194       -4.3870117606  CLST         423          1.0000000000
      1269       423  TIP3  H2            2.1217574661        4.9296386240       -3.0166212215  CLST         423          1.0000000000
      1270       424  TIP3  OH2          -9.0035222674        4.4070280077        4.4303178541  CLST         424          1.0000000000
      1271       424  TIP3  H1           -9.0251339750        3.7664018498        3.6747370134  CLST         424          1.0000000000
      1272       424  TIP3  H2           -8.3116489792        5.0145068137        4.2631029826  CLST         424          1.0000000000
      1273       425  TIP3  OH2           8.1099911339      -12.7834448248        8.4729872186  CLST         425          1.0000000000
      1274       425  TIP3  H1            8.2167851893      -12.1006480260        7.7365763717  CLST         425          1.0000000000
      1275       425  TIP3  H2            7.4402429068      -12.2761794796        8.9522421302  CLST         425          1.0000000000
      1276       426  TIP3  OH2           8.3256401138        2.2533762461        8.3159549488  CLST         426          1.0000000000
      1277       426  TIP3  H1            9.0763283025        2.2517769161        8.8721704099  CLST         426          1.0000000000
      1278       426  TIP3  H2            8.4407992008        3.1638429563        7.9269546767  CLST         426          1.0000000000
      1279       427  TIP3  OH2          11.4979003607        7.4957858660       10.8571538459  CLST         427          1.0000000000
      1280       427  TIP3  H1           11.4294326528        8.0508343021       11.6689538340  CLST         427          1.0000000000
      1281       427  TIP3  H2           10.6627274839        6.9132130624       10.9120750039  CLST         427          1.0000000000
      1282       428  TIP3  OH2          12.4371672818        7.5198475146        1.2049583604  CLST         428          1.0000000000
      1283       428  TIP3  H1           12.1439315556        7.8989563100        0.3156216585  CLST         428          1.0000000000
      1284       428  TIP3  H2           13.3376002984        7.4251695419        0.9534077357  CLST         428          1.0000000000
      1285       429  TIP3  OH2          12.0379192531       -9.8991179525       -0.7758561628  CLST         429          1.0000000000
      1286       429  TIP3  H1           12.2698793201       -9.4042845396        0.0609411980  CLST         429          1.0000000000
      1287       429  TIP3  H2           11.4662693836       -9.2160422180       -1.2020014028  CLST         429          1.0000000000
      1288       430  TIP3  OH2           9.7455341247       -6.7536163876        3.6243752582  CLST         430          1.0000000000
      1289       430  TIP3  H1            9.5875683617       -7.0379083790        2.6871838644  CLST         430          1.0000000000
      1290       430  TIP3  H2           10.7407666243       -6.7722999545        3.5696409347  CLST         430          1.0000000000
      1291       431  TIP3  OH2         -12.8519547472        9.3427110789       -2.5587578457  CLST         431          1.0000000000
      1292       431  TIP3  H1          -13.2713894134        9.5467317938       -3.2840333520  CLST         431          1.0000000000
      1293       431  TIP3  H2          -13.4542004921        9.3165009327       -1.7540503700  CLST         431          1.0000000000
      1294       432  TIP3  OH2           5.3915757740        8.4041305019      -10.0970960165  CLST         432          1.0000000000
      1295       432  TIP3  H1            5.8341704612        8.4051713792       -9.2083617707  CLST         432          1.0000000000
      1296       432  TIP3  H2            4.9393331613        9.2783440200       -9.9346748672  CLST         432          1.0000000000
      1297       433  TIP3  OH2          -0.6715395856        8.1582447560        7.8239891256  CLST         433          1.0000000000
      1298       433  TIP3  H1           -1.5569323310        8.5298264331        8.0138012749  CLST         433          1.0000000000
      1299       433  TIP3  H2           -0.9497588100        7.4331845960        7.2254168622  CLST         433          1.0000000000
      1300       434  TIP3  OH2          -7.2724240720        0.6092785974        3.7454275365  CLST         434          1.0000000000
      1301       434  TIP3  H1           -7.6159740124        1.3404341389        3.1451448086  CLST         434          1.0000000000
      1302       434  TIP3  H2           -7.9581657843       -0.1291718239        3.5730742078  CLST         434          1.0000000000
      1303       435  TIP3  OH2           9.8564385997       -0.2108333251       -7.2686253867  CLST         435          1.0000000000
      1304       435  TIP3  H1            9.8083678922       -0.6657140677       -6.4138545123  CLST         435          1.0000000000
      1305       435  TIP3  H2           10.0129292607        0.7069123528       -7.1206284443  CLST         435          1.0000000000
      1306       436  TIP3  OH2           3.7782597976       10.5882525094       -8.9945739777  CLST         436          1.0000000000
      1307       436  TIP3  H1            3.6489064414       11.3735357290       -8.3828541025  CLST         436          1.0000000000
      1308       436  TIP3  H2            2.8681025557       10.2235780247       -8.7463164283  CLST         436          1.0000000000
      1309       437  TIP3  OH2          -8.5297620373       -0.7929581326       -7.9724084664  CLST         437          1.0000000000
      1310       437  TIP3  H1           -8.8436136732       -0.4325088504       -8.8556846163  CLST         437          1.0000000000
      1311       437  TIP3  H2           -7.5441086287       -0.6266485291       -8.0733083995  CLST         437          1.0000000000
      1312       438  TIP3  OH2          -3.3407812281        5.5198956069       -8.0472500453  CLST         438          1.0000000000
      1313       438  TIP3  H1           -4.0726774990        6.1947638576       -7.8495507002  CLST         438          1.0000000000
      1314       438  TIP3  H2           -3.6985864531        5.3917782746       -8.9589253722  CLST         438          1.0000000000
      1315       439  TIP3  OH2          14.2580814394        1.5510736804       -3.9923406559  CLST         439          1.0000000000
      1316       439  TIP3  H1           13.6921182670        2.3784610183       -4.1847211193  CLST         439          1.0000000000
      1317       439  TIP3  H2           13.7741271108        1.1268376273       -3.2033305960  CLST         439          1.0000000000
      1318       440  TIP3  OH2           1.2809709566      -12.9526177693      -11.2203524088  CLST         440          1.0000000000
      1319       440  TIP3  H1            0.3238850948      -12.6632511501      -11.2749388142  CLST         440          1.0000000000
      1320       440  TIP3  H2            1.2280000531      -13.7334364025      -11.6251532439  CLST         440          1.0000000000
      1321       441  TIP3  OH2          -1.4494508276       -4.3670812580        3.2619967948  CLST         441          1.0000000000
      1322       441  TIP3  H1           -1.9476896213       -3.6214292019        3.3209175986  CLST         441          1.0000000000
      1323       441  TIP3  H2           -1.2796048019       -4.7447320312        4.1947204820  CLST         441          1.0000000000
      1324       442  TIP3  OH2           3.2737414035       -9.8130005873       -8.0710777155  CLST         442          1.0000000000
      1325       442  TIP3  H1            3.7258312944      -10.3566759794       -8.7729044520  CLST         442          1.0000000000
      1326       442  TIP3  H2            2.4920728176       -9.4592812587       -8.5713581946  CLST         442          1.0000000000
      1327       443  TIP3  OH2           1.3414907409       10.4627978576      -12.8750761421  CLST         443          1.0000000000
      1328       443  TIP3  H1            1.6712821027       11.0868053549      -12.2153391391  CLST         443          1.0000000000
      1329       443  TIP3  H2            1.9606061028       10.5354653700      -13.5384754805  CLST         443          1.0000000000
      1330       444  TIP3  OH2          -7.8800498342        1.2528859925       -1.8304468425  CLST         444          1.0000000000
      1331       444  TIP3  H1           -8.0000999959        1.9212570995       -2.6068011575  CLST         444          1.0000000000
      1332       444  TIP3  H2           -7.3540414749        1.8423861664       -1.2602573629  CLST         444          1.0000000000
      1333       445  TIP3  OH2         -11.5292155815       -5.3973109787        6.2166947676  CLST         445          1.0000000000
      1334       445  TIP3  H1          -11.2521957363       -4.4644564877        5.9050466359  CLST         445          1.0000000000
      1335       445  TIP3  H2          -11.6212714564       -5.1587130191        7.1622780087  CLST         445          1.0000000000
      1336       446  TIP3  OH2          -2.8580785153        4.8233846373       -5.3340740092  CLST         446          1.0000000000
      1337       446  TIP3  H1           -3.0858060119        4.9800665026       -6.2767874292  CLST         446          1.0000000000
      1338       446  TIP3  H2           -1.9254397688        5.2141408717       -5.3691256348  CLST         446          1.0000000000
      1339       447  TIP3  OH2          -4.9401190634      -12.5769115101       -3.7607043979  CLST         447          1.0000000000
      1340       447  TIP3  H1           -5.3361515442      -13.1551770082       -3.0853075014  CLST         447          1.0000000000
      1341       447  TIP3  H2           -4.5075896140      -12.0238849440       -3.0324884055  CLST         447          1.0000000000
      1342       448  TIP3  OH2           7.2546940073        9.5769712365        4.7359660698  CLST         448          1.0000000000
      1343       448  TIP3  H1            7.5772496409        9.6403935891        5.6585083742  CLST         448          1.0000000000
      1344       448  TIP3  H2            6.3807004451       10.1269580728        4.8904699856  CLST         448          1.0000000000
      1345       449  TIP3  OH2           4.1767630299        5.1078632860        8.3935928688  CLST         449          1.0000000000
      1346       449  TIP3  H1            4.6915773410        4.4758876912        8.9361645132  CLST         449          1.0000000000
      1347       449  TIP3  H2            3.8516831241        4.6002670943        7.6444999307  CLST         449          1.0000000000
      1348       450  TIP3  OH2          -4.0318385499        0.4999916194       -2.0548119374  CLST         450          1.0000000000
      1349       450  TIP3  H1           -3.6681787406        1.1507585526       -2.6624271179  CLST         450          1.0000000000
      1350       450  TIP3  H2           -3.2608898807       -0.1041483183       -1.9160679356  CLST         450          1.0000000000
      1351       451  TIP3  OH2          13.7642525607       -1.4865836058       -6.1529308265  CLST         451          1.0000000000
      1352       451  TIP3  H1           14.3198865605       -2.1410950495       -5.6856306334  CLST         451          1.0000000000
      1353       451  TIP3  H2           14.3973646651       -0.7810228023       -6.2259814075  CLST         451          1.0000000000
      1354       452  TIP3  OH2           8.4255424221        5.0129483295        7.8971366067  CLST         452          1.0000000000
      1355       452  TIP3  H1            7.5859005533        5.5953334611        7.7269098034  CLST         452          1.0000000000
      1356       452  TIP3  H2            9.0718638127        5.5704991482        7.4524641440  CLST         452          1.0000000000
      1357       453  TIP3  OH2           6.9813562901        2.8570969663       -6.0874375850  CLST         453          1.0000000000
      1358       453  TIP3  H1            6.2893119902        2.6834885106       -5.4253495471  CLST         453          1.0000000000
      1359       453  TIP3  H2            6.4243757474        2.7323084469       -6.8768456370  CLST         453          1.0000000000
      1360       454  TIP3  OH2           1.1479270694        5.4748101140        1.9002071863  CLST         454          1.0000000000
      1361       454  TIP3  H1            0.3226469262        5.0152623685        1.5965841326  CLST         454          1.0000000000
      1362       454  TIP3  H2            0.7770585317        6.1312590421        2.5451682144  CLST         454          1.0000000000
      1363       455  TIP3  OH2          -1.2484870953        1.0016232228      -10.5662400669  CLST         455          1.0000000000
      1364       455  TIP3  H1           -1.4319782754        1.2147662639       -9.6232967147  CLST         455          1.0000000000
      1365       455  TIP3  H2           -1.0428312014        1.9923242957      -10.8427318225  CLST         455          1.0000000000
      1366       456  TIP3  OH2           5.3742202774       11.3398622609        5.2662288907  CLST         456          1.0000000000
      1367       456  TIP3  H1            4.8008883622       11.7217223585        4.5934989932  CLST         456          1.0000000000
      1368       456  TIP3  H2            4.7408937368       10.9587745607        5.9485877328  CLST         456          1.0000000000
      1369       457  TIP3  OH2          -4.8475255030       -7.7979720304        4.8597117331  CLST         457          1.0000000000
      1370       457  TIP3  H1           -5.6851871570       -7.7883640497        5.2817692048  CLST         457          1.0000000000
      1371       457  TIP3  H2           -5.0729102844       -7.5202576077        3.9706468170  CLST         457          1.0000000000
      1372       458  TIP3  OH2           7.9773298884       -6.4421210918      -11.3836449805  CLST         458          1.0000000000
      1373       458  TIP3  H1            8.9632609759       -6.1949496602      -11.5086794219  CLST         458          1.0000000000
      1374       458  TIP3  H2            7.7193543094       -5.5515870700      -11.0216403588  CLST         458          1.0000000000
      1375       459  TIP3  OH2           6.5147650674       -9.7773539937       -7.8517988798  CLST         459          1.0000000000
      1376       459  TIP3  H1            6.0781670072       -8.8898599816       -7.7470585595  CLST         459          1.0000000000
      1377       459  TIP3  H2            7.2709115064       -9.4998316229       -8.4215202917  CLST         459          1.0000000000
      1378       460  TIP3  OH2           9.1278244641       -2.2302599044       -2.7734537391  CLST         460          1.0000000000
      1379       460  TIP3  H1            9.5414889015       -2.9224765997       -2.2287042043  CLST         460          1.0000000000
      1380       460  TIP3  H2            9.8540354377       -1.8555953453       -3.2904982552  CLST         460          1.0000000000
      1381       461  TIP3  OH2          -1.2194008497      -12.7772205035       -5.2129745626  CLST         461          1.0000000000
      1382       461  TIP3  H1           -0.7207143859      -13.2093601950       -5.9386723335  CLST         461          1.0000000000
      1383       461  TIP3  H2           -0.9108121615      -13.2297175428       -4.3897132151  CLST         461          1.0000000000
      1384       462  TIP3  OH2           0.0418575013        5.4508533949      -12.8014381498  CLST         462          1.0000000000
      1385       462  TIP3  H1            0.2554699250        6.4403180082      -12.7427977950  CLST         462          1.0000000000
      1386       462  TIP3  H2            0.9052433218        5.1795054371      -13.1490029198  CLST         462          1.0000000000
      1387       463  TIP3  OH2          -1.7691169775        1.8536788851       -7.8297345103  CLST         463          1.0000000000
      1388       463  TIP3  H1           -1.4916021870        1.0494603260       -7.3459657994  CLST         463          1.0000000000
      1389       463  TIP3  H2           -2.7366277760        1.8603320820       -7.6158868861  CLST         463          1.0000000000
      1390       464  TIP3  OH2          -6.6609544655        6.3008189432        4.3736724023  CLST         464          1.0000000000
      1391       464  TIP3  H1           -6.0062319996        5.9136919874        4.9534993301  CLST         464          1.0000000000
      1392       464  TIP3  H2           -6.9466592857        7.0903005088        4.9060511564  CLST         464          1.0000000000
      1393       465  TIP3  OH2          -4.6026583560      -12.4807166165        6.3412647529  CLST         465          1.0000000000
      1394       465  TIP3  H1           -3.8661186462      -12.9394573478        5.8735844941  CLST         465          1.0000000000
      1395       465  TIP3  H2           -4.1796342787      -11.5728934904        6.2524200543  CLST         465          1.0000000000
      1396       466  TIP3  OH2          -2.3487379143        9.2420859148       -4.2847864668  CLST         466          1.0000000000
      1397       466  TIP3  H1           -3.0877622469        9.2869987836       -5.0138194116  CLST         466          1.0000000000
      1398       466  TIP3  H2           -2.6505061024        9.9206183309       -3.6097715010  CLST         466          1.0000000000
      1399       467  TIP3  OH2           8.2137364760        5.9681319371        4.6472674742  CLST         467          1.0000000000
      1400       467  TIP3  H1            8.7015445488        6.4371049197        5.3091672019  CLST         467          1.0000000000
      1401       467  TIP3  H2            8.2438166450        6.6965633982        3.9597329402  CLST         467          1.0000000000
      1402       468  TIP3  OH2          -0.4955227366      -12.2390324378       10.4820317641  CLST         468          1.0000000000
      1403       468  TIP3  H1           -1.0413952639      -12.0579582426       11.3039366371  CLST         468          1.0000000000
      1404       468  TIP3  H2            0.4082871763      -12.4179561777       10.8620253771  CLST         468          1.0000000000
      1405       469  TIP3  OH2           5.5196905379        8.3590227435       14.2606303475  CLST         469          1.0000000000
      1406       469  TIP3  H1            6.1933346326        8.6571327686       13.6183312764  CLST         469          1.0000000000
      1407       469  TIP3  H2            4.7322123992        8.7550782083       13.9222279620  CLST         469          1.0000000000
      1408       470  TIP3  OH2         -11.0842480976       12.7943167650        0.6683262057  CLST         470          1.0000000000
      1409       470  TIP3  H1          -10.7476704323       12.3830395475       -0.1456079591  CLST         470          1.0000000000
      1410       470  TIP3  H2          -11.6901027627       12.0312159239        0.8976851898  CLST         470          1.0000000000
      1411       471  TIP3  OH2          -4.3398975452        9.6499480386       -8.9211144084  CLST         471          1.0000000000
      1412       471  TIP3  H1           -4.0100499771        8.7696457688       -9.0825303819  CLST         471          1.0000000000
      1413       471  TIP3  H2           -4.6600055551        9.7862243395       -9.8483571955  CLST         471          1.0000000000
      1414       472  TIP3  OH2         -11.8406701114        3.9179111485        2.8790649997  CLST         472          1.0000000000
      1415       472  TIP3  H1          -12.4294046216        3.1506413154        3.0803580308  CLST         472          1.0000000000
      1416       472  TIP3  H2          -11.2601236605        3.4809585920        2.2227915367  CLST         472          1.0000000000
      1417       473  TIP3  OH2           5.3920432829        0.7807932336       10.2399095555  CLST         473          1.0000000000
      1418       473  TIP3  H1            5.9377612613        1.5143339381       10.4713650751  CLST         473          1.0000000000
      1419       473  TIP3  H2            4.5393850361        1.1869438161       10.1213766790  CLST         473          1.0000000000
      1420       474  TIP3  OH2           1.2806073396        1.7332303349        1.5643308140  CLST         474          1.0000000000
      1421       474  TIP3  H1            0.2800167961        1.7279409604        1.4955806998  CLST         474          1.0000000000
      1422       474  TIP3  H2            1.4434640382        1.2814155651        0.7293955394  CLST         474          1.0000000000
      1423       475  TIP3  OH2           5.9910605784       -8.5946464323       11.9914568008  CLST         475          1.0000000000
      1424       475  TIP3  H1            6.9265887971       -8.4334023171       12.2489872188  CLST         475          1.0000000000
      1425       475  TIP3  H2            6.0053837944       -9.3485567980       11.3968246898  CLST         475          1.0000000000
      1426       476  TIP3  OH2         -11.4043676856       -9.0608769645       -0.1681471796  CLST         476          1.0000000000
      1427       476  TIP3  H1          -11.8931296298       -8.2450872428       -0.4521242258  CLST         476          1.0000000000
      1428       476  TIP3  H2          -10.7111566534       -8.9376097397       -0.8502936351  CLST         476          1.0000000000
      1429       477  TIP3  OH2         -12.4703683739        3.6467283273      -13.4131004704  CLST         477          1.0000000000
      1430       477  TIP3  H1          -12.7144024248        2.7894635552      -13.5713773457  CLST         477          1.0000000000
      1431       477  TIP3  H2          -11.7632074527        3.6765080124      -14.1214428597  CLST         477          1.0000000000
      1432       478  TIP3  OH2          -3.9541396135        6.5273344460      -10.7454872508  CLST         478          1.0000000000
      1433       478  TIP3  H1           -4.4810410877        6.2691298001      -11.5299191126  CLST         478          1.0000000000
      1434       478  TIP3  H2           -3.2554729139        7.0126395536      -11.2715872144  CLST         478          1.0000000000
      1435       479  TIP3  OH2           7.9086241427       -1.5919217037       -8.5156148011  CLST         479          1.0000000000
      1436       479  TIP3  H1            8.6084991958       -0.9079861187       -8.4218521415  CLST         479          1.0000000000
      1437       479  TIP3  H2            7.4199678715       -1.2968118744       -7.6652543018  CLST         479          1.0000000000
      1438       480  TIP3  OH2          -6.1577484599        7.7065322375        0.0008073803  CLST         480          1.0000000000
      1439       480  TIP3  H1           -5.2485320368        8.1218079068       -0.1275371246  CLST         480          1.0000000000
      1440       480  TIP3  H2           -5.8125078212        6.7710644886        0.0921156609  CLST         480          1.0000000000
      1441       481  TIP3  OH2          -2.9487550628        2.2961376829       11.8601148804  CLST         481          1.0000000000
      1442       481  TIP3  H1           -2.0608130885        2.5218249649       11.5675867206  CLST         481          1.0000000000
      1443       481  TIP3  H2           -2.7860331571        1.5986895795       12.4800879774  CLST         481          1.0000000000
      1444       482  TIP3  OH2          -8.0387936792       11.6754129337       -7.6682526819  CLST         482          1.0000000000
      1445       482  TIP3  H1           -8.6275744859       11.3610465907       -8.3462626091  CLST         482          1.0000000000
      1446       482  TIP3  H2           -7.2828773039       12.0715845383       -8.2321906246  CLST         482          1.0000000000
      1447       483  TIP3  OH2           6.3897627484       -5.8899056095       12.7005596254  CLST         483          1.0000000000
      1448       483  TIP3  H1            5.6741328623       -6.5249813003       12.5134122528  CLST         483          1.0000000000
      1449       483  TIP3  H2            6.4421806826       -5.4825774420       11.8158316918  CLST         483          1.0000000000
      1450       484  TIP3  OH2           6.7469931427       -3.0710082920        2.9818554492  CLST         484          1.0000000000
      1451       484  TIP3  H1            5.7969945977       -3.2004712050        2.8103928489  CLST         484          1.0000000000
      1452       484  TIP3  H2            6.6905664709       -2.3494226342        3.6896509782  CLST         484          1.0000000000
      1453       485  TIP3  OH2         -11.7794186142        4.5217285994       10.1499276317  CLST         485          1.0000000000
      1454       485  TIP3  H1          -11.3498533807        3.6460067614       10.1799785055  CLST         485          1.0000000000
      1455       485  TIP3  H2          -12.4392282734        4.3014446901        9.3646501325  CLST         485          1.0000000000
      1456       486  TIP3  OH2           8.4936941709       -7.2709349976       13.7208164530  CLST         486          1.0000000000
      1457       486  TIP3  H1            9.0080013087       -6.9725048109       14.3286680020  CLST         486          1.0000000000
      1458       486  TIP3  H2            7.7021346048       -6.6860919808       13.5413274716  CLST         486          1.0000000000
      1459       487  TIP3  OH2          12.2218628906       -8.4789529059        6.1849218747  CLST         487          1.0000000000
      1460       487  TIP3  H1           11.2566401647       -8.3586038655        6.3504896460  CLST         487          1.0000000000
      1461       487  TIP3  H2           12.4040213330       -8.5235579155        7.1779011484  CLST         487          1.0000000000
      1462       488  TIP3  OH2          15.1668322379        8.2806929373        7.8146285220  CLST         488          1.0000000000
      1463       488  TIP3  H1           15.8840961276        7.6780385553        7.7379792204  CLST         488          1.0000000000
      1464       488  TIP3  H2           14.3967686410        7.7727820017        8.1429999115  CLST         488          1.0000000000
      1465       489  TIP3  OH2          -6.1862636378      -10.7510627719       11.6799210016  CLST         489          1.0000000000
      1466       489  TIP3  H1           -6.5440638124       -9.8602564434       11.5252854547  CLST         489          1.0000000000
      1467       489  TIP3  H2           -6.9485196140      -11.2262004602       11.1574182519  CLST         489          1.0000000000
      1468       490  TIP3  OH2           6.7568119924      -13.0416790639        2.4352177534  CLST         490          1.0000000000
      1469       490  TIP3  H1            6.5394101147      -12.1811126516        2.9263225231  CLST         490          1.0000000000
      1470       490  TIP3  H2            7.1162387648      -13.5922319316        3.1419917250  CLST         490          1.0000000000
      1471       491  TIP3  OH2           3.0782134758       -9.2897583859        4.9903392525  CLST         491          1.0000000000
      1472       491  TIP3  H1            2.2530333122       -9.0368687298        5.4485549535  CLST         491          1.0000000000
      1473       491  TIP3  H2            2.6537916524       -9.5790731529        4.1550309950  CLST         491          1.0000000000
      1474       492  TIP3  OH2          -0.6583677086       -6.6060008592       12.1496854220  CLST         492          1.0000000000
      1475       492  TIP3  H1           -0.5234114060       -7.5901521410       12.0912034292  CLST         492          1.0000000000
      1476       492  TIP3  H2           -1.6323454164       -6.5750283579       12.0789348835  CLST         492          1.0000000000
      1477       493  TIP3  OH2           3.3872204260       10.7494177175        7.0587571342  CLST         493          1.0000000000
      1478       493  TIP3  H1            3.9977885601       10.8392099141        7.8132819613  CLST         493          1.0000000000
      1479       493  TIP3  H2            2.6536333638       10.3008317827        7.5754929037  CLST         493          1.0000000000
      1480       494  TIP3  OH2          -9.2551253711        5.4687801645       -0.8336428457  CLST         494          1.0000000000
      1481       494  TIP3  H1           -9.5440857745        6.1770931000       -1.4041097437  CLST         494          1.0000000000
      1482       494  TIP3  H2           -9.8654033190        5.6667847743       -0.0971445226  CLST         494          1.0000000000
      1483       495  TIP3  OH2           5.0451090057       -6.8224940176       -2.0130115988  CLST         495          1.0000000000
      1484       495  TIP3  H1            5.5459426827       -6.3422333971       -2.7200995021  CLST         495          1.0000000000
      1485       495  TIP3  H2            5.8931109335       -7.2355556149       -1.6399743551  CLST         495          1.0000000000
      1486       496  TIP3  OH2         -12.9035576396      -10.7292212947        7.5011650355  CLST         496          1.0000000000
      1487       496  TIP3  H1          -13.4835121030      -11.0459909216        8.1143715486  CLST         496          1.0000000000
      1488       496  TIP3  H2          -12.7121278134      -11.5625178514        7.0360986920  CLST         496          1.0000000000
      1489       497  TIP3  OH2          -9.6843901709      -13.4821587187       -7.2972707624  CLST         497          1.0000000000
      1490       497  TIP3  H1           -9.9966381936      -14.3071689103       -7.0216998121  CLST         497          1.0000000000
      1491       497  TIP3  H2          -10.2660050621      -13.0722415499       -7.8209838843  CLST         497          1.0000000000
      1492       498  TIP3  OH2          -5.6055495500        0.3391020644      -11.0726439341  CLST         498          1.0000000000
      1493       498  TIP3  H1           -5.9557338605        0.2346058274      -11.9906186564  CLST         498          1.0000000000
      1494       498  TIP3  H2           -5.4152454882        1.3046518907      -11.0940408727  CLST         498          1.0000000000
      1495       499  TIP3  OH2          11.7414904962        6.7219777198        3.6663238929  CLST         499          1.0000000000
      1496       499  TIP3  H1           12.3468027363        7.0673786600        3.0171634842  CLST         499          1.0000000000
      1497       499  TIP3  H2           11.2888396003        7.5553563921        3.9568744493  CLST         499          1.0000000000
      1498       500  TIP3  OH2           2.3777551065       -8.7803890376      -13.2415351655  CLST         500          1.0000000000
      1499       500  TIP3  H1            1.6383499437       -8.7950054500      -13.7522429417  CLST         500          1.0000000000
      1500       500  TIP3  H2            2.5932511213       -9.6533591604      -12.7733788103  CLST         500          1.0000000000
      1501       501  TIP3  OH2           1.4966278381      -10.9858076366       13.9817179248  CLST         501          1.0000000000
      1502       501  TIP3  H1            1.4598487734      -11.7291347379       14.4214138366  CLST         501          1.0000000000
      1503       501  TIP3  H2            2.4313148085      -10.6990680150       13.7825771996  CLST         501          1.0000000000
      1504       502  TIP3  OH2           6.0316609344        3.6803369338        9.8304698220  CLST         502          1.0000000000
      1505       502  TIP3  H1            6.5327190149        4.0187127439       10.6077700714  CLST         502          1.0000000000
      1506       502  TIP3  H2            6.8237334484        3.3631369898        9.3422383757  CLST         502          1.0000000000
      1507       503  TIP3  OH2          10.3857213979       -0.9126070146        0.3953579761  CLST         503          1.0000000000
      1508       503  TIP3  H1           11.3427244413       -0.8014705811        0.5989456933  CLST         503          1.0000000000
      1509       503  TIP3  H2           10.2272213592       -0.1190413540       -0.1213244931  CLST         503          1.0000000000
      1510       504  TIP3  OH2           8.3613412927      -13.9246015868       10.8489099090  CLST         504          1.0000000000
      1511       504  TIP3  H1            8.0635973121      -13.7489902080        9.9501708925  CLST         504          1.0000000000
      1512       504  TIP3  H2            8.2634660597      -14.8511449845       10.9279226271  CLST         504          1.0000000000
      1513       505  TIP3  OH2           3.4933859829      -11.0376350474       -5.6174989032  CLST         505          1.0000000000
      1514       505  TIP3  H1            3.3620552039      -10.4106299449       -6.3614335004  CLST         505          1.0000000000
      1515       505  TIP3  H2            3.1650824048      -10.5365299607       -4.8498490928  CLST         505          1.0000000000
      1516       506  TIP3  OH2          -9.1855434411       -3.3614749037       -8.2538257463  CLST         506          1.0000000000
      1517       506  TIP3  H1           -8.9313587858       -2.3986106480       -7.9482760056  CLST         506          1.0000000000
      1518       506  TIP3  H2           -9.9196801471       -3.0574118552       -8.8502813082  CLST         506          1.0000000000
      1519       507  TIP3  OH2          11.0274381808        9.7130335895      -12.6603683534  CLST         507          1.0000000000
      1520       507  TIP3  H1           11.5888418925        9.9557704084      -13.2567596544  CLST         507          1.0000000000
      1521       507  TIP3  H2           10.9606436841        8.6900293070      -12.4711197651  CLST         507          1.0000000000
      1522       508  TIP3  OH2           9.2285018562       12.2920196362        8.7313031628  CLST         508          1.0000000000
      1523       508  TIP3  H1            8.6808736467       11.9606543917        7.9985620133  CLST         508          1.0000000000
      1524       508  TIP3  H2           10.0381182813       12.5406827302        8.2311886666  CLST         508          1.0000000000
      1525       509  TIP3  OH2          -0.8293943516       -1.4822147400      -11.3282732945  CLST         509          1.0000000000
      1526       509  TIP3  H1           -1.7816998695       -1.7318041639      -11.1774206255  CLST         509          1.0000000000
      1527       509  TIP3  H2           -0.9073031370       -0.5380275829      -11.0342857833  CLST         509          1.0000000000
      1528       510  TIP3  OH2           8.1719036557        2.3435089769       11.6062069188  CLST         510          1.0000000000
      1529       510  TIP3  H1            8.1392854399        1.3458294590       11.6141265954  CLST         510          1.0000000000
      1530       510  TIP3  H2            9.0032435155        2.4434361484       11.0852024169  CLST         510          1.0000000000
      1531       511  TIP3  OH2          -8.6764241158       -5.9606266788       -0.6040824681  CLST         511          1.0000000000
      1532       511  TIP3  H1           -9.6293546360       -6.0752687684       -0.7730617786  CLST         511          1.0000000000
      1533       511  TIP3  H2           -8.5456340303       -5.3706027278       -1.3735367484  CLST         511          1.0000000000
      1534       512  TIP3  OH2          10.0815001879        7.0850613219        6.9262269558  CLST         512          1.0000000000
      1535       512  TIP3  H1           10.5438954492        7.7197348625        7.5434464424  CLST         512          1.0000000000
      1536       512  TIP3  H2           10.2518794621        7.7273826382        6.1595494562  CLST         512          1.0000000000
      1537       513  TIP3  OH2         -11.7796878652       10.3833810807        9.2018446311  CLST         513          1.0000000000
      1538       513  TIP3  H1          -11.3468666469       11.2316523275        9.4458250205  CLST         513          1.0000000000
      1539       513  TIP3  H2          -11.4163399325        9.8292400904        9.9490236998  CLST         513          1.0000000000
      1540       514  TIP3  OH2          -4.7583372553        5.0788981430        0.1697394045  CLST         514          1.0000000000
      1541       514  TIP3  H1           -3.9602400623        5.4829697167        0.6209539884  CLST         514          1.0000000000
      1542       514  TIP3  H2           -4.3879622768        5.0617458258       -0.7495225029  CLST         514          1.0000000000
      1543       515  TIP3  OH2          -0.7358609778        0.8741113619       -4.3155066074  CLST         515          1.0000000000
      1544       515  TIP3  H1           -1.5807626550        1.3934500388       -4.1864890343  CLST         515          1.0000000000
      1545       515  TIP3  H2           -0.1022262643        1.5996530952       -4.5185589252  CLST         515          1.0000000000
      1546       516  TIP3  OH2          -7.3621342210       -8.6059960744        6.2212248332  CLST         516          1.0000000000
      1547       516  TIP3  H1           -7.8381344476       -8.3332090295        5.3893299957  CLST         516          1.0000000000
      1548       516  TIP3  H2           -7.8250669060       -7.8315289217        6.7617520163  CLST         516          1.0000000000
      1549       517  TIP3  OH2           0.4866903137       11.1140858494       11.5403081960  CLST         517          1.0000000000
      1550       517  TIP3  H1            0.6639808136       11.1733451155       10.5830970108  CLST         517          1.0000000000
      1551       517  TIP3  H2           -0.5129519950       11.0731899923       11.5254671937  CLST         517          1.0000000000
      1552       518  TIP3  OH2         -11.7539936598       -3.4081993739      -11.3822244638  CLST         518          1.0000000000
      1553       518  TIP3  H1          -12.1409430357       -3.1708839123      -12.2440726980  CLST         518          1.0000000000
      1554       518  TIP3  H2          -10.9728941902       -3.9442493872      -11.7343357858  CLST         518          1.0000000000
      1555       519  TIP3  OH2           2.0618419326        3.4488309631        3.4216523699  CLST         519          1.0000000000
      1556       519  TIP3  H1            1.6669986598        4.1217742564        2.8031134989  CLST         519          1.0000000000
      1557       519  TIP3  H2            1.8471881831        2.6703118616        2.8495530433  CLST         519          1.0000000000
      1558       520  TIP3  OH2         -10.2516307599        6.1687212104        8.1582887235  CLST         520          1.0000000000
      1559       520  TIP3  H1          -10.6471419581        5.6328134044        7.3952143134  CLST         520          1.0000000000
      1560       520  TIP3  H2          -10.5087738894        5.6188633103        8.9055981018  CLST         520          1.0000000000
      1561       521  TIP3  OH2           8.4022125379       -8.7856851003       -9.4892887804  CLST         521          1.0000000000
      1562       521  TIP3  H1            8.7541247813       -9.2721963050      -10.2813321915  CLST         521          1.0000000000
      1563       521  TIP3  H2            8.0152177960       -8.0253121966       -9.9830396163  CLST         521          1.0000000000
      1564       522  TIP3  OH2          -5.6448559682       -7.2264419396        8.1919651426  CLST         522          1.0000000000
      1565       522  TIP3  H1           -5.7373409243       -7.9536770578        7.5887667448  CLST         522          1.0000000000
      1566       522  TIP3  H2           -4.6923155346       -7.3940331066        8.4301250408  CLST         522          1.0000000000
      1567       523  TIP3  OH2          -4.0170756183       12.0483670203      -13.6589806998  CLST         523          1.0000000000
      1568       523  TIP3  H1           -3.0496578315       11.7261822464      -13.4263573465  CLST         523          1.0000000000
      1569       523  TIP3  H2           -3.7659592019       12.7827715233      -13.9977792489  CLST         523          1.0000000000
      1570       524  TIP3  OH2           6.8180503444        3.9187306483       -1.7192459289  CLST         524          1.0000000000
      1571       524  TIP3  H1            7.1208152273        3.1444421234       -2.2423882980  CLST         524          1.0000000000
      1572       524  TIP3  H2            5.8393585602        3.8902281020       -1.9336569591  CLST         524          1.0000000000
      1573       525  TIP3  OH2           0.5581250826        6.9273685385       -2.5623470811  CLST         525          1.0000000000
      1574       525  TIP3  H1            0.7041398417        6.1662671745       -3.1473357516  CLST         525          1.0000000000
      1575       525  TIP3  H2            0.4948591920        6.3945897519       -1.7171647287  CLST         525          1.0000000000
      1576       526  TIP3  OH2           6.9905073456       -5.6982445500       -3.6190060628  CLST         526          1.0000000000
      1577       526  TIP3  H1            7.1737002977       -5.7617864631       -4.5968743752  CLST         526          1.0000000000
      1578       526  TIP3  H2            7.8921815107       -5.8765165924       -3.2663811880  CLST         526          1.0000000000
      1579       527  TIP3  OH2           0.4066776099        7.1777933871        3.9272490463  CLST         527          1.0000000000
      1580       527  TIP3  H1            1.0906980795        7.5990650130        4.4578112778  CLST         527          1.0000000000
      1581       527  TIP3  H2           -0.1214445042        7.8465741935        3.4422185713  CLST         527          1.0000000000
      1582       528  TIP3  OH2          -2.7628351423        9.8900686592        8.7167305872  CLST         528          1.0000000000
      1583       528  TIP3  H1           -3.1252150091        9.7038905822        9.6012070655  CLST         528          1.0000000000
      1584       528  TIP3  H2           -3.5850832342        9.8459158041        8.1819810291  CLST         528          1.0000000000
      1585       529  TIP3  OH2          -6.0415628478       12.2599862953       -9.2752560660  CLST         529          1.0000000000
      1586       529  TIP3  H1           -5.1554348453       12.3752425134       -8.9530360883  CLST         529          1.0000000000
      1587       529  TIP3  H2           -5.8160716691       11.6300867744      -10.0108758237  CLST         529          1.0000000000
      1588       530  TIP3  OH2          -4.5484107078       -5.6069961476      -13.2263326172  CLST         530          1.0000000000
      1589       530  TIP3  H1           -4.4456213556       -6.5848751304      -13.2144426973  CLST         530          1.0000000000
      1590       530  TIP3  H2           -3.6431534041       -5.3739396149      -12.8846442503  CLST         530          1.0000000000
      1591       531  TIP3  OH2         -11.5986275317       -0.3248123194       10.5400445585  CLST         531          1.0000000000
      1592       531  TIP3  H1          -12.3812696196       -0.3269834400       11.0388019047  CLST         531          1.0000000000
      1593       531  TIP3  H2          -11.7993615154       -1.0495519401        9.9324963687  CLST         531          1.0000000000
      1594       532  TIP3  OH2         -12.0792621233       -3.1980344748       -8.6746010674  CLST         532          1.0000000000
      1595       532  TIP3  H1          -12.4824306463       -4.0797732017       -8.6910358504  CLST         532          1.0000000000
      1596       532  TIP3  H2          -12.0732153740       -3.1400063894       -9.6825952406  CLST         532          1.0000000000
      1597       533  TIP3  OH2          -2.7822131411       -7.3043104054        8.6803045784  CLST         533          1.0000000000
      1598       533  TIP3  H1           -2.0912968460       -7.9415311542        8.3810976533  CLST         533          1.0000000000
      1599       533  TIP3  H2           -2.3257491933       -6.4719613132        8.3969296810  CLST         533          1.0000000000
      1600       534  TIP3  OH2           0.2770259231      -13.2174552452       -7.7325939818  CLST         534          1.0000000000
      1601       534  TIP3  H1            0.3646898105      -12.8247549440       -8.6088658132  CLST         534          1.0000000000
      1602       534  TIP3  H2            1.2467256571      -13.3431956369       -7.4525372117  CLST         534          1.0000000000
      1603       535  TIP3  OH2           2.9168056062        3.2896664282       -7.5454093116  CLST         535          1.0000000000
      1604       535  TIP3  H1            3.4083476571        2.7469131300       -6.8255734587  CLST         535          1.0000000000
      1605       535  TIP3  H2            2.0574051198        3.3240017290       -7.0241927375  CLST         535          1.0000000000
      1606       536  TIP3  OH2           7.9398807620      -12.6793851136       -3.4555203811  CLST         536          1.0000000000
      1607       536  TIP3  H1            7.2955877614      -12.5906322636       -4.2129902378  CLST         536          1.0000000000
      1608       536  TIP3  H2            8.4336344421      -13.3631060325       -3.8308699035  CLST         536          1.0000000000
      1609       537  TIP3  OH2          11.8238697287       -2.6094147164       -7.5302355812  CLST         537          1.0000000000
      1610       537  TIP3  H1           11.2211424194       -1.9106692808       -7.8224359930  CLST         537          1.0000000000
      1611       537  TIP3  H2           12.4074837510       -2.0828365484       -6.9444664939  CLST         537          1.0000000000
      1612       538  TIP3  OH2          -5.2393128247      -10.9443235408        0.6881034531  CLST         538          1.0000000000
      1613       538  TIP3  H1           -4.5138274176      -11.3464497405        1.2780948628  CLST         538          1.0000000000
      1614       538  TIP3  H2           -4.9327029399       -9.9872926583        0.7453451023  CLST         538          1.0000000000
      1615       539  TIP3  OH2           2.5980655272       -4.9808071086        0.8355407490  CLST         539          1.0000000000
      1616       539  TIP3  H1            1.6755366875       -5.2446095353        1.1485761170  CLST         539          1.0000000000
      1617       539  TIP3  H2            2.4839206480       -5.3197321547       -0.0762042783  CLST         539          1.0000000000
      1618       540  TIP3  OH2           4.1334337249       -6.7769287546        4.6848087034  CLST         540          1.0000000000
      1619       540  TIP3  H1            3.9537969264       -7.7340617103        4.8415883418  CLST         540          1.0000000000
      1620       540  TIP3  H2            4.3313077734       -6.8928416781        3.7149201276  CLST         540          1.0000000000
      1621       541  TIP3  OH2          -5.5093552896       10.6475660606        2.1926743485  CLST         541          1.0000000000
      1622       541  TIP3  H1           -6.0357458285       10.6417098881        3.0540180194  CLST         541          1.0000000000
      1623       541  TIP3  H2           -4.7511982002       11.3262960202        2.3820464823  CLST         541          1.0000000000
      1624       542  TIP3  OH2         -10.9946089886       14.5293419388        5.5238833212  CLST         542          1.0000000000
      1625       542  TIP3  H1          -11.2410596075       15.4327207009        5.2443393759  CLST         542          1.0000000000
      1626       542  TIP3  H2          -10.7277959410       14.1603215357        4.5952639342  CLST         542          1.0000000000
      1627       543  TIP3  OH2         -10.5585718703       11.4638611004       -2.3969151660  CLST         543          1.0000000000
      1628       543  TIP3  H1          -11.1612913515       10.7652366332       -2.7326260344  CLST         543          1.0000000000
      1629       543  TIP3  H2          -10.4891143963       11.9395199266       -3.2533078621  CLST         543          1.0000000000
      1630       544  TIP3  OH2          -0.4337307184        5.6717463345       -5.6604104086  CLST         544          1.0000000000
      1631       544  TIP3  H1           -0.2739065391        5.1765604686       -6.5216884492  CLST         544          1.0000000000
      1632       544  TIP3  H2            0.1978818114        5.2462864840       -5.0079020291  CLST         544          1.0000000000
      1633       545  TIP3  OH2          -7.8577688464        2.5312297269      -12.5751878207  CLST         545          1.0000000000
      1634       545  TIP3  H1           -8.1069502666        2.1697180869      -13.5215806110  CLST         545          1.0000000000
      1635       545  TIP3  H2           -8.4737552256        3.3541498317      -12.5525622948  CLST         545          1.0000000000
      1636       546  TIP3  OH2           3.8176128031       11.1039817398       -2.2822546869  CLST         546          1.0000000000
      1637       546  TIP3  H1            3.4266325890       10.1891198791       -2.1062396691  CLST         546          1.0000000000
      1638       546  TIP3  H2            4.4553758774       11.0848982405       -1.4848095759  CLST         546          1.0000000000
      1639       547  TIP3  OH2          -3.5646249262       -2.1869216611      -11.1838698891  CLST         547          1.0000000000
      1640       547  TIP3  H1           -3.5857013706       -2.2581037385      -10.1902133155  CLST         547          1.0000000000
      1641       547  TIP3  H2           -4.0784338383       -1.3263408700      -11.2874052209  CLST         547          1.0000000000
      1642       548  TIP3  OH2          10.5845908885        2.2428341473        1.4104929864  CLST         548          1.0000000000
      1643       548  TIP3  H1            9.6170047649        2.0429052574        1.4529967188  CLST         548          1.0000000000
      1644       548  TIP3  H2           10.5205812619        3.1146071673        1.9143511190  CLST         548          1.0000000000
