* Geometry rescue: heat segment 8/8 at step 2500
*
        1644  EXT
         1         1  TIP3  OH2           4.4833751649       -1.3474608927       -2.2738907897  CLST           1          1.0000000000
         2         1  TIP3  H1            4.7634215146       -1.2901162077       -1.3268695430  CLST           1          1.0000000000
         3         1  TIP3  H2            5.0671639290       -2.1448875358       -2.4893059444  CLST           1          1.0000000000
         4         2  TIP3  OH2          10.6876726893        7.5789083275      -11.6940978156  CLST           2          1.0000000000
         5         2  TIP3  H1           11.2185131085        7.3224492276      -10.9091524799  CLST           2          1.0000000000
         6         2  TIP3  H2            9.7914789564        7.5344795375      -11.3185883234  CLST           2          1.0000000000
         7         3  TIP3  OH2           8.9321085203        5.2072436472       -4.1541378940  CLST           3          1.0000000000
         8         3  TIP3  H1            9.2391503637        5.6052071822       -3.2821046074  CLST           3          1.0000000000
         9         3  TIP3  H2            8.5988460797        5.9900980460       -4.6681782775  CLST           3          1.0000000000
        10         4  TIP3  OH2          -2.9742927820        6.7402323009       10.1329521854  CLST           4          1.0000000000
        11         4  TIP3  H1           -3.6908593394        7.0236135333        9.5299193821  CLST           4          1.0000000000
        12         4  TIP3  H2           -3.1262336660        7.4200383738       10.8304063632  CLST           4          1.0000000000
        13         5  TIP3  OH2           8.8642943122        6.1493824404       10.5123914347  CLST           5          1.0000000000
        14         5  TIP3  H1            8.3061254624        5.5699284513       11.1343495687  CLST           5          1.0000000000
        15         5  TIP3  H2            8.8920680709        5.4007044047        9.8188941756  CLST           5          1.0000000000
        16         6  TIP3  OH2          10.6242319192       -5.9445076715      -11.6939683238  CLST           6          1.0000000000
        17         6  TIP3  H1           11.1534226839       -5.4720522922      -11.0131239230  CLST           6          1.0000000000
        18         6  TIP3  H2           10.5980228405       -5.2487397401      -12.3929561008  CLST           6          1.0000000000
        19         7  TIP3  OH2         -12.4750945557        8.4451591359        5.7155870934  CLST           7          1.0000000000
        20         7  TIP3  H1          -12.9521534731        9.1642075405        6.2412213403  CLST           7          1.0000000000
        21         7  TIP3  H2          -11.6240044047        8.4216459986        6.2659650496  CLST           7          1.0000000000
        22         8  TIP3  OH2          -4.4756037536       -8.3434996153        0.5841886708  CLST           8          1.0000000000
        23         8  TIP3  H1           -4.8160148473       -7.8355871885        1.3850239056  CLST           8          1.0000000000
        24         8  TIP3  H2           -3.6994180776       -7.8371283679        0.3052259277  CLST           8          1.0000000000
        25         9  TIP3  OH2           2.6362639235      -14.0099252413       -4.1220925537  CLST           9          1.0000000000
        26         9  TIP3  H1            1.6969226208      -14.1875831396       -3.8881582473  CLST           9          1.0000000000
        27         9  TIP3  H2            2.7507165291      -13.4180408632       -3.2842211749  CLST           9          1.0000000000
        28        10  TIP3  OH2         -14.2153520923       -1.1390216128       -0.5092930739  CLST          10          1.0000000000
        29        10  TIP3  H1          -13.6633894784       -1.4763501682       -1.2999836436  CLST          10          1.0000000000
        30        10  TIP3  H2          -14.5336832742       -1.6806491869        0.0627982721  CLST          10          1.0000000000
        31        11  TIP3  OH2           6.8797067291        6.7798083451       -1.7659984074  CLST          11          1.0000000000
        32        11  TIP3  H1            7.0472402112        5.8488694345       -1.4701517467  CLST          11          1.0000000000
        33        11  TIP3  H2            6.7137355893        6.6698078402       -2.7232836657  CLST          11          1.0000000000
        34        12  TIP3  OH2          -8.3314478208        2.4574360557        1.9992720787  CLST          12          1.0000000000
        35        12  TIP3  H1           -7.7594532271        2.6886816396        1.2492061391  CLST          12          1.0000000000
        36        12  TIP3  H2           -9.2554456520        2.5682401935        1.5738403814  CLST          12          1.0000000000
        37        13  TIP3  OH2           7.8327562848        2.3790260965        2.2247474017  CLST          13          1.0000000000
        38        13  TIP3  H1            7.8035708465        3.3163155623        1.8530219542  CLST          13          1.0000000000
        39        13  TIP3  H2            7.4308447853        2.6561544947        3.1306264720  CLST          13          1.0000000000
        40        14  TIP3  OH2          -0.4084483818        2.2719135939        7.9436157838  CLST          14          1.0000000000
        41        14  TIP3  H1           -0.0158935494        3.1542480359        7.8019448075  CLST          14          1.0000000000
        42        14  TIP3  H2            0.2083335508        1.6676917775        7.4269575237  CLST          14          1.0000000000
        43        15  TIP3  OH2          -8.8018972882       -3.7386455461      -13.0216450712  CLST          15          1.0000000000
        44        15  TIP3  H1           -8.3145978958       -4.1307043581      -13.7730162769  CLST          15          1.0000000000
        45        15  TIP3  H2           -8.1988634943       -4.1906870762      -12.3420568824  CLST          15          1.0000000000
        46        16  TIP3  OH2          -3.7965070903      -12.8404143548       -6.0920809646  CLST          16          1.0000000000
        47        16  TIP3  H1           -4.3709562081      -12.7885762255       -5.2346136117  CLST          16          1.0000000000
        48        16  TIP3  H2           -2.8744109964      -12.8618970116       -5.6976387521  CLST          16          1.0000000000
        49        17  TIP3  OH2           4.8786680886      -13.2433691994       -8.3015575780  CLST          17          1.0000000000
        50        17  TIP3  H1            5.3934665789      -12.9990676606       -7.4800026246  CLST          17          1.0000000000
        51        17  TIP3  H2            4.0977890138      -13.5955286073       -7.7655538575  CLST          17          1.0000000000
        52        18  TIP3  OH2         -11.6694525610       -6.8026040195       -1.4995695886  CLST          18          1.0000000000
        53        18  TIP3  H1          -12.1001973857       -5.8822599988       -1.8463421487  CLST          18          1.0000000000
        54        18  TIP3  H2          -11.7088962414       -7.1945347331       -2.5047442441  CLST          18          1.0000000000
        55        19  TIP3  OH2          10.9889607022       -0.1382315398        9.3524790524  CLST          19          1.0000000000
        56        19  TIP3  H1           10.6250441974       -1.0036914920        9.6733825059  CLST          19          1.0000000000
        57        19  TIP3  H2           11.2180327623       -0.4176670631        8.4713578213  CLST          19          1.0000000000
        58        20  TIP3  OH2         -13.2900760721        1.3899612171        2.6175772697  CLST          20          1.0000000000
        59        20  TIP3  H1          -12.9756922088        1.1446477601        1.7216651804  CLST          20          1.0000000000
        60        20  TIP3  H2          -14.0675451680        0.9880348123        2.7489220926  CLST          20          1.0000000000
        61        21  TIP3  OH2         -10.0530360343       12.5661018088       -5.3872114481  CLST          21          1.0000000000
        62        21  TIP3  H1          -10.1684937000       13.3973841480       -5.7522566751  CLST          21          1.0000000000
        63        21  TIP3  H2           -9.3351827723       12.2152375288       -6.0262636699  CLST          21          1.0000000000
        64        22  TIP3  OH2           2.8891137001       12.1903984612       -6.5698287838  CLST          22          1.0000000000
        65        22  TIP3  H1            3.2136830415       11.3086897507       -6.3250266687  CLST          22          1.0000000000
        66        22  TIP3  H2            3.2119454691       12.6351748903       -5.6935536695  CLST          22          1.0000000000
        67        23  TIP3  OH2           5.6854369051       -1.6465479763       11.4513676821  CLST          23          1.0000000000
        68        23  TIP3  H1            5.2851577650       -2.1403396411       10.6959803713  CLST          23          1.0000000000
        69        23  TIP3  H2            5.3852098115       -0.7378051544       11.1984569606  CLST          23          1.0000000000
        70        24  TIP3  OH2          -0.0844713308        1.0670728736        4.4927184608  CLST          24          1.0000000000
        71        24  TIP3  H1            0.8225260009        0.9011449910        4.7595356675  CLST          24          1.0000000000
        72        24  TIP3  H2           -0.5707073772        0.3484275815        4.9911067390  CLST          24          1.0000000000
        73        25  TIP3  OH2           3.3027036752        2.0455584327       -2.5435886359  CLST          25          1.0000000000
        74        25  TIP3  H1            3.8238450742        1.3780016689       -2.0065694738  CLST          25          1.0000000000
        75        25  TIP3  H2            3.7699779782        2.8820183521       -2.3095038641  CLST          25          1.0000000000
        76        26  TIP3  OH2          11.5167043233        5.5212797474       -6.6959266333  CLST          26          1.0000000000
        77        26  TIP3  H1           10.6588225047        5.1490169884       -7.0565286439  CLST          26          1.0000000000
        78        26  TIP3  H2           11.1134914251        6.2020855323       -6.0974692708  CLST          26          1.0000000000
        79        27  TIP3  OH2         -10.2006099553        7.3464349940       -5.4836726663  CLST          27          1.0000000000
        80        27  TIP3  H1          -10.3218299953        7.7760679721       -4.6097784789  CLST          27          1.0000000000
        81        27  TIP3  H2          -10.8055024483        7.5219737627       -6.1082154185  CLST          27          1.0000000000
        82        28  TIP3  OH2          -4.2234377953      -10.2612932334       -6.6886918100  CLST          28          1.0000000000
        83        28  TIP3  H1           -4.3157218158      -11.2894853724       -6.6220858400  CLST          28          1.0000000000
        84        28  TIP3  H2           -4.8652172013      -10.0657299886       -5.9631937702  CLST          28          1.0000000000
        85        29  TIP3  OH2         -10.8017066404        7.5833682719       -2.6260262137  CLST          29          1.0000000000
        86        29  TIP3  H1          -10.1615048481        8.2324795134       -2.1432050625  CLST          29          1.0000000000
        87        29  TIP3  H2          -11.5524783003        8.2664316827       -2.5855430833  CLST          29          1.0000000000
        88        30  TIP3  OH2           8.9108562356      -10.4749893900       -2.1570077226  CLST          30          1.0000000000
        89        30  TIP3  H1            9.3289181447      -10.8918410237       -1.4161426257  CLST          30          1.0000000000
        90        30  TIP3  H2            8.5373771571      -11.2787355863       -2.6417471743  CLST          30          1.0000000000
        91        31  TIP3  OH2          -9.8431086644       -1.2910976732      -13.1052496985  CLST          31          1.0000000000
        92        31  TIP3  H1           -9.5175758572       -2.2512089099      -13.1134537601  CLST          31          1.0000000000
        93        31  TIP3  H2           -9.8193604197       -1.0999629320      -12.1614627651  CLST          31          1.0000000000
        94        32  TIP3  OH2          -8.6228126934       -6.4952859473        6.9624115733  CLST          32          1.0000000000
        95        32  TIP3  H1          -10.0308975536       -6.1102208467        6.9373302711  CLST          32          1.0000000000
        96        32  TIP3  H2           -8.3941189201       -5.4979609750        5.6530244623  CLST          32          1.0000000000
        97        33  TIP3  OH2          11.8292602062       -9.0166505762        8.8928300844  CLST          33          1.0000000000
        98        33  TIP3  H1           11.6275316307       -9.9894829393        9.0085901509  CLST          33          1.0000000000
        99        33  TIP3  H2           11.3585281969       -8.7698439872        9.7186688693  CLST          33          1.0000000000
       100        34  TIP3  OH2           4.1217216690       -3.9658454781        2.9993823513  CLST          34          1.0000000000
       101        34  TIP3  H1            3.5716044208       -4.1994785619        2.2166879144  CLST          34          1.0000000000
       102        34  TIP3  H2            4.5124062857       -4.8178992281        3.1907535364  CLST          34          1.0000000000
       103        35  TIP3  OH2           6.1841408445       -0.6070072112        4.4966051003  CLST          35          1.0000000000
       104        35  TIP3  H1            5.3503131581       -1.0106236718        4.8700981511  CLST          35          1.0000000000
       105        35  TIP3  H2            6.4846885870       -0.0735815692        5.2696551326  CLST          35          1.0000000000
       106        36  TIP3  OH2          -1.4607979508        1.2987298749        2.3602703535  CLST          36          1.0000000000
       107        36  TIP3  H1           -2.3294056400        0.9460589611        2.4335416890  CLST          36          1.0000000000
       108        36  TIP3  H2           -1.0781896166        1.1119333408        3.2421048002  CLST          36          1.0000000000
       109        37  TIP3  OH2          -4.4363747867       -8.3285116910      -13.1139677389  CLST          37          1.0000000000
       110        37  TIP3  H1           -5.0802785911       -8.5724219170      -12.3891731250  CLST          37          1.0000000000
       111        37  TIP3  H2           -4.0071282716       -9.2362526234      -13.3666839509  CLST          37          1.0000000000
       112        38  TIP3  OH2          -3.0233184229        2.2982150502       -4.4023537900  CLST          38          1.0000000000
       113        38  TIP3  H1           -2.9470837609        3.2303660501       -4.6741298365  CLST          38          1.0000000000
       114        38  TIP3  H2           -3.6474807357        2.0221101097       -5.1780308432  CLST          38          1.0000000000
       115        39  TIP3  OH2           1.6563191244      -10.9039696643        2.0368724728  CLST          39          1.0000000000
       116        39  TIP3  H1            1.4357181067      -11.4691629799        2.8375079755  CLST          39          1.0000000000
       117        39  TIP3  H2            0.7279623674      -10.5746075955        1.7964855108  CLST          39          1.0000000000
       118        40  TIP3  OH2          -6.7705785666       12.6250602325        8.2095269320  CLST          40          1.0000000000
       119        40  TIP3  H1           -7.5812346426       12.9807519836        7.8172599090  CLST          40          1.0000000000
       120        40  TIP3  H2           -6.1180671420       12.8101210616        7.4283549714  CLST          40          1.0000000000
       121        41  TIP3  OH2           9.8339056957       -2.3870085966      -11.0084332525  CLST          41          1.0000000000
       122        41  TIP3  H1            9.1193912768       -2.8944012935      -10.5760014433  CLST          41          1.0000000000
       123        41  TIP3  H2            9.4495223311       -1.4911555028      -10.9705461089  CLST          41          1.0000000000
       124        42  TIP3  OH2           9.5522765806       10.2023410753      -10.5716339440  CLST          42          1.0000000000
       125        42  TIP3  H1           10.2605794881       10.3184147841       -9.9061209034  CLST          42          1.0000000000
       126        42  TIP3  H2           10.0620245278       10.3232119880      -11.4223245957  CLST          42          1.0000000000
       127        43  TIP3  OH2          11.7784449684       12.7743531846        7.7721017513  CLST          43          1.0000000000
       128        43  TIP3  H1           12.3238326569       13.5354287919        7.8856746512  CLST          43          1.0000000000
       129        43  TIP3  H2           12.2199267774       12.0505953949        8.2735762348  CLST          43          1.0000000000
       130        44  TIP3  OH2           7.7656284824        1.0148618024        6.0629810602  CLST          44          1.0000000000
       131        44  TIP3  H1            7.9576553361        1.6618511955        6.8220264408  CLST          44          1.0000000000
       132        44  TIP3  H2            7.4131025234        1.7533507541        5.4530377508  CLST          44          1.0000000000
       133        45  TIP3  OH2           7.9763396572        9.3823582310        7.3028684229  CLST          45          1.0000000000
       134        45  TIP3  H1            7.7811915430        8.4844842375        7.6326136328  CLST          45          1.0000000000
       135        45  TIP3  H2            8.7689432893        9.6805856973        7.7953765468  CLST          45          1.0000000000
       136        46  TIP3  OH2          -5.5928848339       -3.1461327322      -12.9382526748  CLST          46          1.0000000000
       137        46  TIP3  H1           -5.3044116198       -4.0087678821      -13.1412420727  CLST          46          1.0000000000
       138        46  TIP3  H2           -5.0016682558       -2.8546085562      -12.2116597817  CLST          46          1.0000000000
       139        47  TIP3  OH2           1.3211886047       -6.6272021523      -11.0934585478  CLST          47          1.0000000000
       140        47  TIP3  H1            1.6232551667       -5.6721817888      -11.1031654091  CLST          47          1.0000000000
       141        47  TIP3  H2            1.2727439829       -6.7431478542      -12.0723497590  CLST          47          1.0000000000
       142        48  TIP3  OH2           4.9075744782        5.6090974239        1.0580870206  CLST          48          1.0000000000
       143        48  TIP3  H1            5.8483034465        5.3637573300        0.8262677832  CLST          48          1.0000000000
       144        48  TIP3  H2            5.0869987368        6.5954970693        1.0130268804  CLST          48          1.0000000000
       145        49  TIP3  OH2          -3.3747853800      -10.6568738238      -13.5511497017  CLST          49          1.0000000000
       146        49  TIP3  H1           -2.5782513478      -11.0586411522      -13.8484459391  CLST          49          1.0000000000
       147        49  TIP3  H2           -3.8211211981      -11.1656444352      -12.8441624505  CLST          49          1.0000000000
       148        50  TIP3  OH2           2.8333138489        3.8959969568        6.0308553099  CLST          50          1.0000000000
       149        50  TIP3  H1            1.9566036321        4.1412805996        6.4098632480  CLST          50          1.0000000000
       150        50  TIP3  H2            2.5245443512        3.6134315292        5.1192488734  CLST          50          1.0000000000
       151        51  TIP3  OH2          -6.3202886501      -10.0865054122       -4.7819348612  CLST          51          1.0000000000
       152        51  TIP3  H1           -6.4461315527       -9.9134546197       -3.8320811323  CLST          51          1.0000000000
       153        51  TIP3  H2           -6.1813482582      -11.0483166635       -4.7696483083  CLST          51          1.0000000000
       154        52  TIP3  OH2           9.1608825516       -5.6923984576       -0.1550820578  CLST          52          1.0000000000
       155        52  TIP3  H1            9.5408138138       -5.6908084833       -1.0692928308  CLST          52          1.0000000000
       156        52  TIP3  H2            9.1429231176       -4.7293041635       -0.0603419234  CLST          52          1.0000000000
       157        53  TIP3  OH2          -9.6748018387        9.8881949390      -12.1173935294  CLST          53          1.0000000000
       158        53  TIP3  H1           -9.9689205100       10.1806039315      -12.7884134306  CLST          53          1.0000000000
       159        53  TIP3  H2           -8.9146161288        9.2763543224      -12.6091474448  CLST          53          1.0000000000
       160        54  TIP3  OH2           0.7175439520       -2.9427366894       -9.4701802371  CLST          54          1.0000000000
       161        54  TIP3  H1            1.3980949812       -3.3257492042      -10.0511655145  CLST          54          1.0000000000
       162        54  TIP3  H2            0.2272727937       -2.4664700793      -10.1932073451  CLST          54          1.0000000000
       163        55  TIP3  OH2           2.7977647322       -4.0312688507      -14.9355439870  CLST          55          1.0000000000
       164        55  TIP3  H1            2.8609807073       -4.8609810601      -14.4156256572  CLST          55          1.0000000000
       165        55  TIP3  H2            3.0486400701       -4.3079916752      -15.8274543515  CLST          55          1.0000000000
       166        56  TIP3  OH2          -9.8404063692       11.1171293171        5.6991909213  CLST          56          1.0000000000
       167        56  TIP3  H1          -10.0039041789       10.2933188625        6.1935377011  CLST          56          1.0000000000
       168        56  TIP3  H2          -10.2481301462       10.8999695695        4.8161719418  CLST          56          1.0000000000
       169        57  TIP3  OH2           1.5303286951      -13.1635424808        0.3040195730  CLST          57          1.0000000000
       170        57  TIP3  H1            1.7024308197      -12.3350703997        0.8793373558  CLST          57          1.0000000000
       171        57  TIP3  H2            2.1765326430      -12.8275147766       -0.4221920240  CLST          57          1.0000000000
       172        58  TIP3  OH2         -13.1101879988       10.5678898294        7.0955245578  CLST          58          1.0000000000
       173        58  TIP3  H1          -12.3078217281       11.1316856934        6.9347867944  CLST          58          1.0000000000
       174        58  TIP3  H2          -12.9777136872       10.4093551424        8.0477623566  CLST          58          1.0000000000
       175        59  TIP3  OH2         -11.6737135656       -2.7324270632        5.4826127573  CLST          59          1.0000000000
       176        59  TIP3  H1          -11.7102947494       -2.1768864306        6.2679826682  CLST          59          1.0000000000
       177        59  TIP3  H2          -11.8584617537       -2.0342489606        4.8184384164  CLST          59          1.0000000000
       178        60  TIP3  OH2           1.2972603393        9.5176062701        8.4483028071  CLST          60          1.0000000000
       179        60  TIP3  H1            0.5826689078        8.9480868432        8.0640804862  CLST          60          1.0000000000
       180        60  TIP3  H2            1.7860427960        8.8009248429        8.9504592161  CLST          60          1.0000000000
       181        61  TIP3  OH2           2.8531672706       -0.5893737470       -5.5463016359  CLST          61          1.0000000000
       182        61  TIP3  H1            3.3924401291       -1.4579652647       -5.4770891529  CLST          61          1.0000000000
       183        61  TIP3  H2            2.1744365431       -0.8590259001       -6.2144773270  CLST          61          1.0000000000
       184        62  TIP3  OH2           7.8545241642        8.6140974798       12.5963006440  CLST          62          1.0000000000
       185        62  TIP3  H1            8.0962704917        8.0614446850       11.8209444227  CLST          62          1.0000000000
       186        62  TIP3  H2            8.0317403908        9.4504459281       12.1528185584  CLST          62          1.0000000000
       187        63  TIP3  OH2           4.6033699030       -6.8641801487      -10.3154939623  CLST          63          1.0000000000
       188        63  TIP3  H1            3.7073127420       -6.9118858853      -10.7122030718  CLST          63          1.0000000000
       189        63  TIP3  H2            5.1378295477       -7.3751128847      -11.0058326448  CLST          63          1.0000000000
       190        64  TIP3  OH2          -2.2520935513       11.7615173101        5.3701506334  CLST          64          1.0000000000
       191        64  TIP3  H1           -2.1963885803       10.7924685327        5.2338006049  CLST          64          1.0000000000
       192        64  TIP3  H2           -1.6752676145       11.7921399815        6.1792445452  CLST          64          1.0000000000
       193        65  TIP3  OH2          11.0281008415       -4.2324205685       -5.4790121784  CLST          65          1.0000000000
       194        65  TIP3  H1           11.4411709463       -3.8531421639       -6.3533112633  CLST          65          1.0000000000
       195        65  TIP3  H2           11.2636598848       -3.2849577022       -5.0585809684  CLST          65          1.0000000000
       196        66  TIP3  OH2           6.3604224651      -10.0286586832        9.4051252341  CLST          66          1.0000000000
       197        66  TIP3  H1            5.6043478057      -10.0578514257        8.7825179013  CLST          66          1.0000000000
       198        66  TIP3  H2            6.9066694594       -9.3067045519        8.9921229993  CLST          66          1.0000000000
       199        67  TIP3  OH2         -11.5491021417       -7.8072160256       -3.8004212891  CLST          67          1.0000000000
       200        67  TIP3  H1          -10.7438621894       -7.4080228191       -4.1025405199  CLST          67          1.0000000000
       201        67  TIP3  H2          -11.7015267556       -8.5340622726       -4.3726732872  CLST          67          1.0000000000
       202        68  TIP3  OH2          -0.6534803473       -5.4509584869        5.3265897128  CLST          68          1.0000000000
       203        68  TIP3  H1            0.3596951631       -5.3477738396        5.4403982434  CLST          68          1.0000000000
       204        68  TIP3  H2           -0.8346451729       -5.4088947928        6.3263514240  CLST          68          1.0000000000
       205        69  TIP3  OH2           7.9854748783       11.7692001751       -8.5633985211  CLST          69          1.0000000000
       206        69  TIP3  H1            8.2026716222       11.4524798146       -9.4608728913  CLST          69          1.0000000000
       207        69  TIP3  H2            8.8436841434       11.8961993311       -8.1474482006  CLST          69          1.0000000000
       208        70  TIP3  OH2          -0.9831596264      -12.4672327733       -0.6328975714  CLST          70          1.0000000000
       209        70  TIP3  H1            0.0324153100      -12.4478324245       -0.6575399658  CLST          70          1.0000000000
       210        70  TIP3  H2           -1.0086152794      -12.6285534614        0.3491140290  CLST          70          1.0000000000
       211        71  TIP3  OH2         -10.2836432833       -7.3691847927        1.9569908490  CLST          71          1.0000000000
       212        71  TIP3  H1          -11.0347160912       -6.8365299303        2.2872876171  CLST          71          1.0000000000
       213        71  TIP3  H2          -10.6535192192       -7.8844682464        1.1981251759  CLST          71          1.0000000000
       214        72  TIP3  OH2           0.2053890939        2.0417783583       -1.3653232011  CLST          72          1.0000000000
       215        72  TIP3  H1           -0.0568358666        1.0581873940       -1.4183495488  CLST          72          1.0000000000
       216        72  TIP3  H2            1.1082332271        1.9138168331       -1.6815356986  CLST          72          1.0000000000
       217        73  TIP3  OH2          -9.6131263168       13.2738591385        7.5487300474  CLST          73          1.0000000000
       218        73  TIP3  H1           -9.7734198342       12.5215499272        6.8937651059  CLST          73          1.0000000000
       219        73  TIP3  H2          -10.1580602191       13.9415850945        6.8964186978  CLST          73          1.0000000000
       220        74  TIP3  OH2           6.4962248454       -2.8367821519       -3.4868914648  CLST          74          1.0000000000
       221        74  TIP3  H1            6.5387749287       -3.7131286216       -3.9189486584  CLST          74          1.0000000000
       222        74  TIP3  H2            7.4423969678       -2.5521634210       -3.4273586431  CLST          74          1.0000000000
       223        75  TIP3  OH2           2.7847146768      -13.2772044675       -6.4743076073  CLST          75          1.0000000000
       224        75  TIP3  H1            2.9726223780      -12.3294960153       -6.3113062973  CLST          75          1.0000000000
       225        75  TIP3  H2            2.8651879820      -13.6437894773       -5.5361137087  CLST          75          1.0000000000
       226        76  TIP3  OH2           3.9651652222       -9.8399667677        1.2489371757  CLST          76          1.0000000000
       227        76  TIP3  H1            3.8032913464       -8.9125453203        1.4084731545  CLST          76          1.0000000000
       228        76  TIP3  H2            3.0568689721      -10.2652020837        1.6309305433  CLST          76          1.0000000000
       229        77  TIP3  OH2          10.1549297526       -8.2869375404       -2.6056854919  CLST          77          1.0000000000
       230        77  TIP3  H1            9.7180477418       -9.2165386121       -2.6052537537  CLST          77          1.0000000000
       231        77  TIP3  H2           10.4030790837       -8.2568295014       -3.4762518888  CLST          77          1.0000000000
       232        78  TIP3  OH2          10.4959962136       11.6892882438       -7.8819702480  CLST          78          1.0000000000
       233        78  TIP3  H1           11.0411307079       11.0527327229       -7.9212894709  CLST          78          1.0000000000
       234        78  TIP3  H2           11.0211537039       12.3538528512       -7.6547927376  CLST          78          1.0000000000
       235        79  TIP3  OH2          12.6117690606        0.7618099208        0.9886259249  CLST          79          1.0000000000
       236        79  TIP3  H1           13.1668339470        1.1810104147        1.6757243105  CLST          79          1.0000000000
       237        79  TIP3  H2           11.8635196810        1.4253561001        1.0728149908  CLST          79          1.0000000000
       238        80  TIP3  OH2          -7.5725472926        0.0518804994        6.6855454211  CLST          80          1.0000000000
       239        80  TIP3  H1           -7.5778378507        0.1506193855        5.6969607253  CLST          80          1.0000000000
       240        80  TIP3  H2           -6.6002569051       -0.1089568181        6.7886103566  CLST          80          1.0000000000
       241        81  TIP3  OH2          -7.6532410479      -11.0676556959        2.3011185894  CLST          81          1.0000000000
       242        81  TIP3  H1           -6.8532951746      -11.1522014023        1.7419426269  CLST          81          1.0000000000
       243        81  TIP3  H2           -7.1256427784      -11.2091518362        3.1149066045  CLST          81          1.0000000000
       244        82  TIP3  OH2          -1.7046831120       -9.8574028926       -6.4610903133  CLST          82          1.0000000000
       245        82  TIP3  H1           -2.7016038011      -10.0073154209       -6.4385029960  CLST          82          1.0000000000
       246        82  TIP3  H2           -1.4903435789      -10.4848773922       -5.7539164738  CLST          82          1.0000000000
       247        83  TIP3  OH2          12.3001122693       -8.7852607274        1.4893029204  CLST          83          1.0000000000
       248        83  TIP3  H1           12.7087668080       -8.0584133765        1.9868911392  CLST          83          1.0000000000
       249        83  TIP3  H2           11.3919892024       -8.3825896928        1.3360169927  CLST          83          1.0000000000
       250        84  TIP3  OH2          -3.8037127803       10.8911111963       -2.1566325114  CLST          84          1.0000000000
       251        84  TIP3  H1           -4.7855328831       10.7609695253       -2.5317585949  CLST          84          1.0000000000
       252        84  TIP3  H2           -3.7504037805       11.7270557615       -1.9954253197  CLST          84          1.0000000000
       253        85  TIP3  OH2           6.0203155414       -2.1084934024       -0.0709353411  CLST          85          1.0000000000
       254        85  TIP3  H1            6.0219416435       -1.6601663749        0.7891768421  CLST          85          1.0000000000
       255        85  TIP3  H2            6.8304052667       -2.6755256336        0.0055919443  CLST          85          1.0000000000
       256        86  TIP3  OH2           6.7339293943       -8.2873024686        5.8427145916  CLST          86          1.0000000000
       257        86  TIP3  H1            5.9251983440       -8.3447366648        6.4283056295  CLST          86          1.0000000000
       258        86  TIP3  H2            6.6666373869       -7.3280983740        5.5510435358  CLST          86          1.0000000000
       259        87  TIP3  OH2          -1.6782431181       -3.6588792670       10.6098730959  CLST          87          1.0000000000
       260        87  TIP3  H1           -0.9624398838       -3.9914726238       11.1911376485  CLST          87          1.0000000000
       261        87  TIP3  H2           -2.4570724900       -4.2838776451       10.7034192710  CLST          87          1.0000000000
       262        88  TIP3  OH2          -0.8225164833        4.5758380000       -8.0829827415  CLST          88          1.0000000000
       263        88  TIP3  H1           -0.8401932877        3.5512710716       -8.0544141057  CLST          88          1.0000000000
       264        88  TIP3  H2           -1.8155415951        4.6713264372       -8.1718840837  CLST          88          1.0000000000
       265        89  TIP3  OH2           3.5470554003        0.7272486093      -11.7778677492  CLST          89          1.0000000000
       266        89  TIP3  H1            3.1982330182        0.9191578104      -12.5966638802  CLST          89          1.0000000000
       267        89  TIP3  H2            3.3505123854       -0.1689806194      -11.8306555311  CLST          89          1.0000000000
       268        90  TIP3  OH2           5.6242234240       11.0907574755       -5.4720208247  CLST          90          1.0000000000
       269        90  TIP3  H1            5.2828781969       11.9258007906       -4.8002377167  CLST          90          1.0000000000
       270        90  TIP3  H2            5.5511134375       11.6005163446       -6.3109623808  CLST          90          1.0000000000
       271        91  TIP3  OH2           5.8805972126       -8.0259630289      -12.2772806053  CLST          91          1.0000000000
       272        91  TIP3  H1            6.1606329657       -8.9828793211      -12.3447788013  CLST          91          1.0000000000
       273        91  TIP3  H2            6.8472170488       -7.6946128094      -12.1061376655  CLST          91          1.0000000000
       274        92  TIP3  OH2           9.7718630971       11.6027501351        2.4681679586  CLST          92          1.0000000000
       275        92  TIP3  H1           10.1364400248       11.6395906976        3.4098747683  CLST          92          1.0000000000
       276        92  TIP3  H2            9.6313170635       12.5776425290        2.3640321646  CLST          92          1.0000000000
       277        93  TIP3  OH2          -8.8539141331        7.2585047502        2.8405109620  CLST          93          1.0000000000
       278        93  TIP3  H1           -8.4881085069        8.0388766483        2.4272067235  CLST          93          1.0000000000
       279        93  TIP3  H2           -8.0738665274        6.7457388461        3.0069102313  CLST          93          1.0000000000
       280        94  TIP3  OH2         -14.2855949500        6.5543551919        6.4652561272  CLST          94          1.0000000000
       281        94  TIP3  H1          -13.5590277072        7.1684585265        6.2045248373  CLST          94          1.0000000000
       282        94  TIP3  H2          -14.6650888923        6.4520410170        5.5669142331  CLST          94          1.0000000000
       283        95  TIP3  OH2           9.7558121549        5.8082380592       -1.8784389954  CLST          95          1.0000000000
       284        95  TIP3  H1            9.8610822470        6.1254936568       -0.9408181118  CLST          95          1.0000000000
       285        95  TIP3  H2           10.2060572132        4.9212983037       -1.7088278554  CLST          95          1.0000000000
       286        96  TIP3  OH2           9.5380166621      -10.7884942050       11.2263810426  CLST          96          1.0000000000
       287        96  TIP3  H1           10.3142367570      -11.2144235742       10.7696296695  CLST          96          1.0000000000
       288        96  TIP3  H2            8.9335483911      -11.5463785356       11.2806318626  CLST          96          1.0000000000
       289        97  TIP3  OH2          -7.7692692108        6.8140129053        8.4154906892  CLST          97          1.0000000000
       290        97  TIP3  H1           -7.4301114770        5.9934130195        8.9327821358  CLST          97          1.0000000000
       291        97  TIP3  H2           -8.7445688326        6.5131099772        8.3974309201  CLST          97          1.0000000000
       292        98  TIP3  OH2           5.9622477418        0.6717483232       -3.4211284105  CLST          98          1.0000000000
       293        98  TIP3  H1            6.7259156142        0.5394776271       -2.7762543418  CLST          98          1.0000000000
       294        98  TIP3  H2            5.3827663575       -0.0548244972       -3.1076970575  CLST          98          1.0000000000
       295        99  TIP3  OH2          -6.7031209649      -11.5810224971        4.8382591745  CLST          99          1.0000000000
       296        99  TIP3  H1           -6.8973907446      -11.0010622878        5.5821998207  CLST          99          1.0000000000
       297        99  TIP3  H2           -5.9906892677      -12.0831488464        5.2825200299  CLST          99          1.0000000000
       298       100  TIP3  OH2           2.4390068570        0.6544221683       -9.0973621690  CLST         100          1.0000000000
       299       100  TIP3  H1            2.7537404577        0.8390425126       -9.9854133194  CLST         100          1.0000000000
       300       100  TIP3  H2            2.8369614869        1.3654648975       -8.5966099464  CLST         100          1.0000000000
       301       101  TIP3  OH2          12.5484316807       -6.7653044209        3.8272746357  CLST         101          1.0000000000
       302       101  TIP3  H1           12.6730306796       -7.3952661092        4.5973902982  CLST         101          1.0000000000
       303       101  TIP3  H2           12.7872764820       -6.0208116436        4.3280502057  CLST         101          1.0000000000
       304       102  TIP3  OH2         -12.3003896179       10.3522928893        1.2673040371  CLST         102          1.0000000000
       305       102  TIP3  H1          -12.8030197497       10.1622680933        2.1045411866  CLST         102          1.0000000000
       306       102  TIP3  H2          -12.8536774758        9.7443328188        0.7041766829  CLST         102          1.0000000000
       307       103  TIP3  OH2          -0.7090469871       -9.2599821425        7.8536332438  CLST         103          1.0000000000
       308       103  TIP3  H1           -0.0005031932       -9.4142629224        8.5068737196  CLST         103          1.0000000000
       309       103  TIP3  H2           -1.1655998453      -10.1450466302        8.0304800422  CLST         103          1.0000000000
       310       104  TIP3  OH2          -4.3933637715      -12.1306702947       10.0460390172  CLST         104          1.0000000000
       311       104  TIP3  H1           -4.9241350778      -11.5344170057       10.5695096176  CLST         104          1.0000000000
       312       104  TIP3  H2           -5.0069669389      -12.6003793148        9.4458055787  CLST         104          1.0000000000
       313       105  TIP3  OH2          -5.2550717468       10.6718774265      -11.5465364282  CLST         105          1.0000000000
       314       105  TIP3  H1           -4.7749301976       11.0755977164      -12.4473330288  CLST         105          1.0000000000
       315       105  TIP3  H2           -5.7973892523       10.0035703145      -11.9553840416  CLST         105          1.0000000000
       316       106  TIP3  OH2           7.3427093452       -7.9656686954       -1.2789371098  CLST         106          1.0000000000
       317       106  TIP3  H1            8.0973883016       -7.4918202068       -1.6110679234  CLST         106          1.0000000000
       318       106  TIP3  H2            7.5977370479       -8.9050344355       -1.3582082869  CLST         106          1.0000000000
       319       107  TIP3  OH2          -8.3754236231       -4.8663307390        5.0489869874  CLST         107          1.0000000000
       320       107  TIP3  H1           -9.1677542577       -4.5438993763        4.4883138556  CLST         107          1.0000000000
       321       107  TIP3  H2           -7.5726457462       -4.3763268277        4.7770336230  CLST         107          1.0000000000
       322       108  TIP3  OH2         -10.5221353226        1.8837562145        9.3792542183  CLST         108          1.0000000000
       323       108  TIP3  H1           -9.3036704771        1.5003596513        9.3497869195  CLST         108          1.0000000000
       324       108  TIP3  H2          -10.5509742296        0.9276261548       10.0509229540  CLST         108          1.0000000000
       325       109  TIP3  OH2           2.5875292562        7.1748480529        8.8652655630  CLST         109          1.0000000000
       326       109  TIP3  H1            1.9164955970        6.6072852087        9.3034189490  CLST         109          1.0000000000
       327       109  TIP3  H2            3.3271307128        6.5160805083        8.7617038830  CLST         109          1.0000000000
       328       110  TIP3  OH2           1.7387687265       12.2236821858      -11.2734059770  CLST         110          1.0000000000
       329       110  TIP3  H1            2.2552653437       12.9926857387      -11.2067193204  CLST         110          1.0000000000
       330       110  TIP3  H2            1.3552831375       12.0860884354      -10.3814676553  CLST         110          1.0000000000
       331       111  TIP3  OH2          11.6367476246      -11.7020051097        9.4853224535  CLST         111          1.0000000000
       332       111  TIP3  H1           12.5595885168      -11.9284328149        9.4709925930  CLST         111          1.0000000000
       333       111  TIP3  H2           11.2939571390      -12.3770294309        8.8680185193  CLST         111          1.0000000000
       334       112  TIP3  OH2           6.2717507796        0.0333810014        1.8352170671  CLST         112          1.0000000000
       335       112  TIP3  H1            6.8908865658        0.8015229422        1.8598539736  CLST         112          1.0000000000
       336       112  TIP3  H2            6.2182195954       -0.1871593211        2.7996428945  CLST         112          1.0000000000
       337       113  TIP3  OH2         -12.8112387967        0.9795097756        0.1005925027  CLST         113          1.0000000000
       338       113  TIP3  H1          -13.4149614588        0.1478152696       -0.1407966434  CLST         113          1.0000000000
       339       113  TIP3  H2          -12.2238360186        0.8509928089       -0.7073166211  CLST         113          1.0000000000
       340       114  TIP3  OH2         -13.8442583087        3.4385711108       -0.2579261550  CLST         114          1.0000000000
       341       114  TIP3  H1          -13.6480945667        2.4729354113       -0.2209146206  CLST         114          1.0000000000
       342       114  TIP3  H2          -13.5963384466        3.4657937748       -1.2258002010  CLST         114          1.0000000000
       343       115  TIP3  OH2          -9.1632607909        0.1064372671      -10.6592273003  CLST         115          1.0000000000
       344       115  TIP3  H1           -8.6203762195        0.7329188143      -11.2206757057  CLST         115          1.0000000000
       345       115  TIP3  H2           -9.7692158192        0.8090356800      -10.3855381008  CLST         115          1.0000000000
       346       116  TIP3  OH2           6.8555047781       -5.7068703497        2.0937539474  CLST         116          1.0000000000
       347       116  TIP3  H1            7.4706860722       -5.9094205183        1.3488603312  CLST         116          1.0000000000
       348       116  TIP3  H2            6.9525865556       -4.7146629452        2.1421161052  CLST         116          1.0000000000
       349       117  TIP3  OH2          -0.6621016598        0.2283789422       12.7479914885  CLST         117          1.0000000000
       350       117  TIP3  H1            0.2188148573       -0.3515242784       12.7651261711  CLST         117          1.0000000000
       351       117  TIP3  H2           -0.7270531186        0.4778500120       13.6998864902  CLST         117          1.0000000000
       352       118  TIP3  OH2           0.1309252469       -9.7438484747        4.9980876642  CLST         118          1.0000000000
       353       118  TIP3  H1           -0.1162239415       -9.2743031713        5.8346711183  CLST         118          1.0000000000
       354       118  TIP3  H2           -0.0658471616       -9.0397550517        4.3509889991  CLST         118          1.0000000000
       355       119  TIP3  OH2          -9.1218191768      -10.5456847620       -8.8194203026  CLST         119          1.0000000000
       356       119  TIP3  H1           -9.3272992528      -11.1674145804      -10.3977564935  CLST         119          1.0000000000
       357       119  TIP3  H2           -9.1151648190       -9.6793808891       -9.1992375883  CLST         119          1.0000000000
       358       120  TIP3  OH2           9.6641493825       -7.8483716892        1.1813029487  CLST         120          1.0000000000
       359       120  TIP3  H1            8.8949720936       -8.4311530609        1.0253565657  CLST         120          1.0000000000
       360       120  TIP3  H2            9.4844599776       -7.0949323789        0.5385484862  CLST         120          1.0000000000
       361       121  TIP3  OH2          -5.6060922866       -0.4396270688       -8.1601937979  CLST         121          1.0000000000
       362       121  TIP3  H1           -5.5741899010       -0.1514002492       -9.0949864228  CLST         121          1.0000000000
       363       121  TIP3  H2           -4.7808916940       -1.0206481181       -8.1068529778  CLST         121          1.0000000000
       364       122  TIP3  OH2          10.3344382794       11.9046979624        5.1180677358  CLST         122          1.0000000000
       365       122  TIP3  H1            9.4529118485       12.3598960031        5.2659881723  CLST         122          1.0000000000
       366       122  TIP3  H2           10.8677304234       12.3918067636        5.7786248573  CLST         122          1.0000000000
       367       123  TIP3  OH2          -7.2157314875       -5.4147472480      -11.3129577124  CLST         123          1.0000000000
       368       123  TIP3  H1           -6.5244608396       -5.9696168876      -11.7218434988  CLST         123          1.0000000000
       369       123  TIP3  H2           -6.7948636287       -5.2388000794      -10.4461646043  CLST         123          1.0000000000
       370       124  TIP3  OH2          -6.0183552244       -8.6332939062      -10.6322430891  CLST         124          1.0000000000
       371       124  TIP3  H1           -5.2451401150       -8.9735580206      -10.0694646155  CLST         124          1.0000000000
       372       124  TIP3  H2           -6.5772808331       -8.2699911646       -9.9299476597  CLST         124          1.0000000000
       373       125  TIP3  OH2         -13.5922210881        4.2272715025        8.1458167736  CLST         125          1.0000000000
       374       125  TIP3  H1          -12.9804149161        3.7481150677        7.6081479098  CLST         125          1.0000000000
       375       125  TIP3  H2          -13.8073184153        5.0674658558        7.6392393372  CLST         125          1.0000000000
       376       126  TIP3  OH2          -6.9985944060      -10.6914743434      -12.2851775232  CLST         126          1.0000000000
       377       126  TIP3  H1           -6.1295016952      -11.2357441271      -11.9585809366  CLST         126          1.0000000000
       378       126  TIP3  H2           -6.8630848547       -9.9138131090      -11.6602415341  CLST         126          1.0000000000
       379       127  TIP3  OH2          -7.4132737205      -11.7165968473       -7.1164357254  CLST         127          1.0000000000
       380       127  TIP3  H1           -8.0395178513      -12.4913306600       -7.0369588082  CLST         127          1.0000000000
       381       127  TIP3  H2           -7.9120137785      -11.2327378771       -7.8259405083  CLST         127          1.0000000000
       382       128  TIP3  OH2           9.8594723993        0.8751916205       -2.3835487039  CLST         128          1.0000000000
       383       128  TIP3  H1            8.9764657734        0.5712823299       -2.0875200170  CLST         128          1.0000000000
       384       128  TIP3  H2            9.5831916918        1.6150165380       -3.0207335553  CLST         128          1.0000000000
       385       129  TIP3  OH2          -7.8304434350        9.4127039716        1.0010520554  CLST         129          1.0000000000
       386       129  TIP3  H1           -7.0127463539        9.8710085124        1.3859707554  CLST         129          1.0000000000
       387       129  TIP3  H2           -7.2389389245        8.7948387147        0.4665168892  CLST         129          1.0000000000
       388       130  TIP3  OH2          -4.1318667119        3.9603334073        9.9548420700  CLST         130          1.0000000000
       389       130  TIP3  H1           -3.6357285557        4.8305043603       10.1084534584  CLST         130          1.0000000000
       390       130  TIP3  H2           -3.7252555722        3.4815434157       10.7496533270  CLST         130          1.0000000000
       391       131  TIP3  OH2           7.8283736725       -3.8513002913       -9.9543522288  CLST         131          1.0000000000
       392       131  TIP3  H1            7.7690713754       -2.9997342948       -9.4066286761  CLST         131          1.0000000000
       393       131  TIP3  H2            6.8483787225       -4.1148978225       -9.8537082811  CLST         131          1.0000000000
       394       132  TIP3  OH2         -11.4978920199       11.3744789992       12.2333857964  CLST         132          1.0000000000
       395       132  TIP3  H1          -10.9373764641       11.9963884299       11.6224507386  CLST         132          1.0000000000
       396       132  TIP3  H2          -11.9729762875       11.7571733654       12.7906443349  CLST         132          1.0000000000
       397       133  TIP3  OH2          10.4425220357        9.3632312776        8.5403675006  CLST         133          1.0000000000
       398       133  TIP3  H1           10.5960898447        8.9959085316        9.4449342698  CLST         133          1.0000000000
       399       133  TIP3  H2           11.3664221914        9.7787995078        8.4815716236  CLST         133          1.0000000000
       400       134  TIP3  OH2          -7.7537702359        5.8688409532       -6.0988709885  CLST         134          1.0000000000
       401       134  TIP3  H1           -8.6479692180        6.2405714297       -6.0639908345  CLST         134          1.0000000000
       402       134  TIP3  H2           -7.4535166904        5.9405263655       -5.1948920432  CLST         134          1.0000000000
       403       135  TIP3  OH2          10.8074750643      -11.2002913023      -13.0621509520  CLST         135          1.0000000000
       404       135  TIP3  H1           11.0200678981      -10.3163948956      -12.6271464821  CLST         135          1.0000000000
       405       135  TIP3  H2           11.0658298175      -11.2292202683      -13.9124371801  CLST         135          1.0000000000
       406       136  TIP3  OH2          -4.1933830647        1.8807837295       -7.0464648483  CLST         136          1.0000000000
       407       136  TIP3  H1           -4.6598724538        1.0409422413       -7.2664060428  CLST         136          1.0000000000
       408       136  TIP3  H2           -4.9080115186        2.4916653594       -6.8821304544  CLST         136          1.0000000000
       409       137  TIP3  OH2          12.8779030740       10.3718300590        9.1206386722  CLST         137          1.0000000000
       410       137  TIP3  H1           13.1723147717       10.2101065402       10.0367082670  CLST         137          1.0000000000
       411       137  TIP3  H2           13.6283921928        9.9667056377        8.6232666201  CLST         137          1.0000000000
       412       138  TIP3  OH2          -0.8170620766       -9.9051984549        1.6212545057  CLST         138          1.0000000000
       413       138  TIP3  H1           -1.0471122539       -9.3882505511        0.8485081094  CLST         138          1.0000000000
       414       138  TIP3  H2           -0.8867657025       -9.1744662600        2.2881603328  CLST         138          1.0000000000
       415       139  TIP3  OH2          -9.6730671282      -10.6373606477        4.4684905521  CLST         139          1.0000000000
       416       139  TIP3  H1          -10.3359081911      -10.6578970584        3.7177205831  CLST         139          1.0000000000
       417       139  TIP3  H2           -9.0365789259      -11.2931147126        4.1457145514  CLST         139          1.0000000000
       418       140  TIP3  OH2          -7.0832843830        3.5522586844       -0.2443494286  CLST         140          1.0000000000
       419       140  TIP3  H1           -6.2781457329        4.0152598305        0.1103786089  CLST         140          1.0000000000
       420       140  TIP3  H2           -7.7078507762        4.2825125790       -0.4475144389  CLST         140          1.0000000000
       421       141  TIP3  OH2           2.0707555092       -4.2993451723       -3.7178456167  CLST         141          1.0000000000
       422       141  TIP3  H1            1.7825134425       -3.3774064598       -3.4871320646  CLST         141          1.0000000000
       423       141  TIP3  H2            2.7858837532       -3.9504235884       -4.3036820573  CLST         141          1.0000000000
       424       142  TIP3  OH2         -11.7132524949        0.0019185537        4.8290427856  CLST         142          1.0000000000
       425       142  TIP3  H1          -11.6632721234        0.5684132038        5.6319956763  CLST         142          1.0000000000
       426       142  TIP3  H2          -12.3791201186        0.3863786581        4.2877355258  CLST         142          1.0000000000
       427       143  TIP3  OH2           9.2828943385       -5.7170193957       -8.2666798537  CLST         143          1.0000000000
       428       143  TIP3  H1            9.0492841113       -5.1772350409       -9.0464230967  CLST         143          1.0000000000
       429       143  TIP3  H2           10.1936454984       -6.0059883535       -8.4255212506  CLST         143          1.0000000000
       430       144  TIP3  OH2           3.4340014459       -2.8103531187        9.1750991322  CLST         144          1.0000000000
       431       144  TIP3  H1            2.4999421273       -2.4266289668        9.3085051604  CLST         144          1.0000000000
       432       144  TIP3  H2            3.7848079430       -2.0075886460        8.7092079707  CLST         144          1.0000000000
       433       145  TIP3  OH2         -10.3060162437       13.2546755815        3.1999848062  CLST         145          1.0000000000
       434       145  TIP3  H1          -10.5049322562       13.4177625653        2.2959460693  CLST         145          1.0000000000
       435       145  TIP3  H2           -9.9329689683       12.3466630425        3.0820148445  CLST         145          1.0000000000
       436       146  TIP3  OH2           9.2275171905        2.7843412660       -4.4092662488  CLST         146          1.0000000000
       437       146  TIP3  H1            9.1298423813        3.7677561986       -4.3076437058  CLST         146          1.0000000000
       438       146  TIP3  H2            8.4536399579        2.6458536022       -5.0148498302  CLST         146          1.0000000000
       439       147  TIP3  OH2         -10.9870647713       -0.3314885449       -4.2200771857  CLST         147          1.0000000000
       440       147  TIP3  H1          -10.0959563692       -0.7451186122       -4.3247943537  CLST         147          1.0000000000
       441       147  TIP3  H2          -11.3755785943       -0.7864422464       -5.0295992292  CLST         147          1.0000000000
       442       148  TIP3  OH2          -8.1700240719        1.3060446492        8.9757253797  CLST         148          1.0000000000
       443       148  TIP3  H1           -7.9487062215        0.9301451959        8.0575001482  CLST         148          1.0000000000
       444       148  TIP3  H2           -7.2072185719        1.5809887798        9.2426973145  CLST         148          1.0000000000
       445       149  TIP3  OH2           8.4793703757       -2.9160849599        0.6846447062  CLST         149          1.0000000000
       446       149  TIP3  H1            9.1061907434       -2.1111878749        0.5301078606  CLST         149          1.0000000000
       447       149  TIP3  H2            8.4382400653       -2.9340481347        1.6572249882  CLST         149          1.0000000000
       448       150  TIP3  OH2          -2.0372089592      -11.5132083889        8.5585746267  CLST         150          1.0000000000
       449       150  TIP3  H1           -2.8262441471      -11.6292004104        9.1697328326  CLST         150          1.0000000000
       450       150  TIP3  H2           -1.4121149239      -11.9707831611        9.2072711003  CLST         150          1.0000000000
       451       151  TIP3  OH2          -9.0711636984       -6.5637338946       -4.9994046817  CLST         151          1.0000000000
       452       151  TIP3  H1           -7.8202771369       -6.5251425852       -4.5357635669  CLST         151          1.0000000000
       453       151  TIP3  H2           -9.3212748378       -7.5514980560       -5.7182539323  CLST         151          1.0000000000
       454       152  TIP3  OH2           3.9728274362       -2.0829682282        5.0425298042  CLST         152          1.0000000000
       455       152  TIP3  H1            4.4030986595       -2.9372691559        5.3540057881  CLST         152          1.0000000000
       456       152  TIP3  H2            3.5256720435       -2.4921868381        4.2602223299  CLST         152          1.0000000000
       457       153  TIP3  OH2          -2.7831933736        4.7819717190      -14.0135607183  CLST         153          1.0000000000
       458       153  TIP3  H1           -1.9348433109        5.2491271913      -13.7969638211  CLST         153          1.0000000000
       459       153  TIP3  H2           -2.5277651561        3.9649047143      -13.5814754165  CLST         153          1.0000000000
       460       154  TIP3  OH2           4.5541270584       -6.9255045695        2.1217602496  CLST         154          1.0000000000
       461       154  TIP3  H1            5.5117111261       -6.5970441373        1.9852216413  CLST         154          1.0000000000
       462       154  TIP3  H2            4.0756404901       -6.4021143967        1.4587206663  CLST         154          1.0000000000
       463       155  TIP3  OH2           9.4399390430       -2.8970517603       10.1372861644  CLST         155          1.0000000000
       464       155  TIP3  H1            8.6717508330       -3.2832714281        9.6239917432  CLST         155          1.0000000000
       465       155  TIP3  H2           10.0146998325       -3.5769118468       10.2961359404  CLST         155          1.0000000000
       466       156  TIP3  OH2          -2.1540638125       11.2744700404       11.5408656811  CLST         156          1.0000000000
       467       156  TIP3  H1           -2.7778540209       11.9884297624       11.5145799085  CLST         156          1.0000000000
       468       156  TIP3  H2           -2.7606927560       10.5753925241       11.8205583804  CLST         156          1.0000000000
       469       157  TIP3  OH2           4.0725808198       -0.7459241897        7.4562670374  CLST         157          1.0000000000
       470       157  TIP3  H1            5.0246935876       -0.6508233337        7.7209033851  CLST         157          1.0000000000
       471       157  TIP3  H2            4.0923525996       -1.3738525652        6.7080730884  CLST         157          1.0000000000
       472       158  TIP3  OH2          10.6406916292        9.1638181504       13.3196541156  CLST         158          1.0000000000
       473       158  TIP3  H1           10.2626203912        8.8020791355       14.0917220584  CLST         158          1.0000000000
       474       158  TIP3  H2            9.8612690375        9.6074642748       12.9399582021  CLST         158          1.0000000000
       475       159  TIP3  OH2           0.2817636256      -12.2269561910        4.2774812615  CLST         159          1.0000000000
       476       159  TIP3  H1           -0.4961590397      -12.4606833210        4.8572818825  CLST         159          1.0000000000
       477       159  TIP3  H2            0.2281090477      -11.2510317139        4.5862022539  CLST         159          1.0000000000
       478       160  TIP3  OH2           7.2515020540       -3.4329488255        8.8119677422  CLST         160          1.0000000000
       479       160  TIP3  H1            7.1999514840       -3.7373405219        7.8787670965  CLST         160          1.0000000000
       480       160  TIP3  H2            7.0588232787       -2.3659173389        8.6348889143  CLST         160          1.0000000000
       481       161  TIP3  OH2          -2.4733052402       -2.1985439866        7.7892975444  CLST         161          1.0000000000
       482       161  TIP3  H1           -2.1744947059       -1.5916645443        8.5316025812  CLST         161          1.0000000000
       483       161  TIP3  H2           -3.3066970660       -2.5386529731        8.1884470461  CLST         161          1.0000000000
       484       162  TIP3  OH2          -0.6363876354        3.5611797177      -10.7476114602  CLST         162          1.0000000000
       485       162  TIP3  H1           -0.5080755119        4.1515249624      -11.5337112632  CLST         162          1.0000000000
       486       162  TIP3  H2           -0.4697751381        4.1757302020      -10.0269247282  CLST         162          1.0000000000
       487       163  TIP3  OH2         -10.1519578853        9.0769522535       11.2151238609  CLST         163          1.0000000000
       488       163  TIP3  H1          -10.8689371824        8.3257933030       11.2596336474  CLST         163          1.0000000000
       489       163  TIP3  H2          -10.6468661312        9.7494604035       11.7313050282  CLST         163          1.0000000000
       490       164  TIP3  OH2           3.9520740704      -10.3727770500       12.9700719131  CLST         164          1.0000000000
       491       164  TIP3  H1            4.4930805316       -9.6526063855       12.5644320276  CLST         164          1.0000000000
       492       164  TIP3  H2            4.6235990792      -11.0605750541       13.0115725389  CLST         164          1.0000000000
       493       165  TIP3  OH2         -12.0421967170       -5.5187771260        3.6290387363  CLST         165          1.0000000000
       494       165  TIP3  H1          -11.8618867228       -5.5019155090        4.6275822945  CLST         165          1.0000000000
       495       165  TIP3  H2          -12.8541806502       -5.8853600245        3.5138882770  CLST         165          1.0000000000
       496       166  TIP3  OH2          -1.5223299758       -6.2573789918      -10.4286069400  CLST         166          1.0000000000
       497       166  TIP3  H1           -0.6161079499       -6.5570151242      -10.5082018743  CLST         166          1.0000000000
       498       166  TIP3  H2           -2.1003561518       -6.9197920206      -10.1190057001  CLST         166          1.0000000000
       499       167  TIP3  OH2           8.1584692806       10.5653182869       -0.9212510432  CLST         167          1.0000000000
       500       167  TIP3  H1            8.6776415029       10.2145646113       -0.1301288263  CLST         167          1.0000000000
       501       167  TIP3  H2            8.4642537177        9.9068809557       -1.5948078550  CLST         167          1.0000000000
       502       168  TIP3  OH2          -0.7130056941      -13.2932702838        2.1590425253  CLST         168          1.0000000000
       503       168  TIP3  H1           -0.2975276540      -12.9142284649        2.9706507404  CLST         168          1.0000000000
       504       168  TIP3  H2           -0.0018681739      -13.7976315285        1.7553189326  CLST         168          1.0000000000
       505       169  TIP3  OH2           4.8917563735        4.0563600397        3.3376914912  CLST         169          1.0000000000
       506       169  TIP3  H1            4.0192431737        3.5745681815        3.3480472604  CLST         169          1.0000000000
       507       169  TIP3  H2            4.7013102246        4.5845233652        2.4922750247  CLST         169          1.0000000000
       508       170  TIP3  OH2          -1.2506077324        4.1486065020        1.4985329920  CLST         170          1.0000000000
       509       170  TIP3  H1           -1.9225439374        4.8375152506        1.4563515209  CLST         170          1.0000000000
       510       170  TIP3  H2           -1.6706604767        3.2809512741        1.5039884094  CLST         170          1.0000000000
       511       171  TIP3  OH2          -3.0578384844        1.3136273032        7.4675578139  CLST         171          1.0000000000
       512       171  TIP3  H1           -2.4010707294        1.0540601406        6.7555780483  CLST         171          1.0000000000
       513       171  TIP3  H2           -2.3013430846        1.6463954388        8.0174191627  CLST         171          1.0000000000
       514       172  TIP3  OH2          -6.3427429346      -13.1154475800        8.1778116259  CLST         172          1.0000000000
       515       172  TIP3  H1           -6.6746934746      -13.8431938190        7.6208706357  CLST         172          1.0000000000
       516       172  TIP3  H2           -5.8024171157      -12.7566341786        7.4631938088  CLST         172          1.0000000000
       517       173  TIP3  OH2          10.3367157526      -12.6319747680        1.7140813592  CLST         173          1.0000000000
       518       173  TIP3  H1           10.6535655076      -12.5718606368        0.7404236409  CLST         173          1.0000000000
       519       173  TIP3  H2            9.4376844649      -12.3492413400        1.5903936873  CLST         173          1.0000000000
       520       174  TIP3  OH2           0.0320581650        5.3552131305        9.7625288868  CLST         174          1.0000000000
       521       174  TIP3  H1           -0.3639645884        4.7594692391       10.4190242012  CLST         174          1.0000000000
       522       174  TIP3  H2           -0.6034554509        6.0861000510        9.8245032917  CLST         174          1.0000000000
       523       175  TIP3  OH2          -5.8183678427       10.3361297166       -3.5428727506  CLST         175          1.0000000000
       524       175  TIP3  H1           -5.3447989816       10.1237788211       -4.3711405418  CLST         175          1.0000000000
       525       175  TIP3  H2           -6.7161306956       10.2358805574       -4.0117293573  CLST         175          1.0000000000
       526       176  TIP3  OH2           6.8684618218        9.3561189068       -7.8248166909  CLST         176          1.0000000000
       527       176  TIP3  H1            7.2576735451       10.2538397204       -8.0912268213  CLST         176          1.0000000000
       528       176  TIP3  H2            6.5884331733        9.7560438395       -6.9268293709  CLST         176          1.0000000000
       529       177  TIP3  OH2          -3.7758593287      -11.4416869838       -1.5915012000  CLST         177          1.0000000000
       530       177  TIP3  H1           -2.9481177778      -11.8159367725       -1.2176807692  CLST         177          1.0000000000
       531       177  TIP3  H2           -4.3238370421      -11.3652689405       -0.7574120081  CLST         177          1.0000000000
       532       178  TIP3  OH2          10.7907685713       -8.9520187040      -11.5273005792  CLST         178          1.0000000000
       533       178  TIP3  H1           11.0755876329       -8.8931079408      -10.5823409979  CLST         178          1.0000000000
       534       178  TIP3  H2           10.8664386343       -7.9983814043      -11.7549142458  CLST         178          1.0000000000
       535       179  TIP3  OH2           6.6565039051       -0.8336114939        8.3368825983  CLST         179          1.0000000000
       536       179  TIP3  H1            6.5045040169       -0.2771503527        9.1167716977  CLST         179          1.0000000000
       537       179  TIP3  H2            7.1866639623       -0.2653286067        7.7168296631  CLST         179          1.0000000000
       538       180  TIP3  OH2          -7.5671109078        8.0133932376        5.9699453169  CLST         180          1.0000000000
       539       180  TIP3  H1           -7.6252726354        7.6904781278        6.9166565310  CLST         180          1.0000000000
       540       180  TIP3  H2           -8.5105399859        8.2905625270        5.9014229586  CLST         180          1.0000000000
       541       181  TIP3  OH2           5.9177581814      -12.9240344390       -0.2507780869  CLST         181          1.0000000000
       542       181  TIP3  H1            6.6712427506      -12.8349525448       -0.8149227311  CLST         181          1.0000000000
       543       181  TIP3  H2            6.2841556407      -13.2113004178        0.7437628871  CLST         181          1.0000000000
       544       182  TIP3  OH2          -1.7971439541       10.4941857117      -10.3992395290  CLST         182          1.0000000000
       545       182  TIP3  H1           -1.1093444495       10.9374418178       -9.8468071215  CLST         182          1.0000000000
       546       182  TIP3  H2           -2.4254699224       10.3041946857       -9.6848481718  CLST         182          1.0000000000
       547       183  TIP3  OH2          -5.5344379084        3.7636957975      -12.3651667928  CLST         183          1.0000000000
       548       183  TIP3  H1           -5.2258488607        3.5969659409      -11.4036863348  CLST         183          1.0000000000
       549       183  TIP3  H2           -6.3296661360        3.1178056944      -12.2726765820  CLST         183          1.0000000000
       550       184  TIP3  OH2           3.0481016656        8.3339362840       -2.4373218815  CLST         184          1.0000000000
       551       184  TIP3  H1            3.2583225548        7.7521708446       -1.6647105370  CLST         184          1.0000000000
       552       184  TIP3  H2            2.1007275198        8.0442698324       -2.4258189446  CLST         184          1.0000000000
       553       185  TIP3  OH2           7.4506252807        4.6266939860       12.1187824805  CLST         185          1.0000000000
       554       185  TIP3  H1            7.8108817732        3.6783186321       12.1093092668  CLST         185          1.0000000000
       555       185  TIP3  H2            6.9621551774        4.7029175796       12.9301053512  CLST         185          1.0000000000
       556       186  TIP3  OH2           3.7108639248        5.9582607748       -5.2441420103  CLST         186          1.0000000000
       557       186  TIP3  H1            3.9348423914        6.9143150677       -5.1394566207  CLST         186          1.0000000000
       558       186  TIP3  H2            3.8820974943        5.8859380179       -6.2294766392  CLST         186          1.0000000000
       559       187  TIP3  OH2           4.1363840267        1.7226409607       -5.6260076640  CLST         187          1.0000000000
       560       187  TIP3  H1            4.0978439734        1.7642282214       -4.6360023134  CLST         187          1.0000000000
       561       187  TIP3  H2            3.9309735169        0.7330146059       -5.6814547117  CLST         187          1.0000000000
       562       188  TIP3  OH2          -4.4721395334       -1.6100790229        4.9076664287  CLST         188          1.0000000000
       563       188  TIP3  H1           -4.4504472314       -0.8039861263        4.3663803792  CLST         188          1.0000000000
       564       188  TIP3  H2           -4.7187920517       -1.2378837489        5.7997687152  CLST         188          1.0000000000
       565       189  TIP3  OH2          -5.0025579578        3.4484156700      -15.0708624111  CLST         189          1.0000000000
       566       189  TIP3  H1           -5.1754821629        3.3985842605      -14.0748293610  CLST         189          1.0000000000
       567       189  TIP3  H2           -4.2545209692        4.0717748639      -14.8879313725  CLST         189          1.0000000000
       568       190  TIP3  OH2           7.1748118280       -5.5720028199        5.0366005508  CLST         190          1.0000000000
       569       190  TIP3  H1            6.8776876110       -5.6668100096        4.0787463348  CLST         190          1.0000000000
       570       190  TIP3  H2            8.1312553385       -5.6868215604        4.8930611899  CLST         190          1.0000000000
       571       191  TIP3  OH2         -10.7850051089       -4.7930575498       -6.3761388819  CLST         191          1.0000000000
       572       191  TIP3  H1          -10.1025389280       -4.4980068165       -7.0819114876  CLST         191          1.0000000000
       573       191  TIP3  H2          -10.0747487219       -5.4761345639       -5.9555921805  CLST         191          1.0000000000
       574       192  TIP3  OH2           8.7834170305       14.2177486665        2.0045137896  CLST         192          1.0000000000
       575       192  TIP3  H1            7.9895661758       14.3804269410        2.5383188396  CLST         192          1.0000000000
       576       192  TIP3  H2            9.4885797270       14.8190079968        2.1654710073  CLST         192          1.0000000000
       577       193  TIP3  OH2           5.9853450215      -12.2084282704       11.6499161031  CLST         193          1.0000000000
       578       193  TIP3  H1            6.7299407271      -12.7780847164       11.3484608685  CLST         193          1.0000000000
       579       193  TIP3  H2            5.8820457551      -11.6121170889       10.8858000300  CLST         193          1.0000000000
       580       194  TIP3  OH2          -6.2617952201       -4.3507732441       10.9768133596  CLST         194          1.0000000000
       581       194  TIP3  H1           -6.8218697805       -4.1544623252       11.6826115242  CLST         194          1.0000000000
       582       194  TIP3  H2           -6.9736145095       -4.4453715752       10.2489199798  CLST         194          1.0000000000
       583       195  TIP3  OH2          -7.5382979200        8.9784559999       10.3713654947  CLST         195          1.0000000000
       584       195  TIP3  H1           -8.4333061166        9.0614422897       10.6610067102  CLST         195          1.0000000000
       585       195  TIP3  H2           -7.4256656415        8.0975172957        9.9535778675  CLST         195          1.0000000000
       586       196  TIP3  OH2           5.8795339330      -12.2794370961       -5.8404788117  CLST         196          1.0000000000
       587       196  TIP3  H1            6.3568324763      -11.5009207233       -6.1254549132  CLST         196          1.0000000000
       588       196  TIP3  H2            5.0245446475      -11.8298575307       -5.5492213137  CLST         196          1.0000000000
       589       197  TIP3  OH2           2.0669554229       -9.0991856730       -2.6681538362  CLST         197          1.0000000000
       590       197  TIP3  H1            1.9669665868       -7.9860687237       -2.4681435198  CLST         197          1.0000000000
       591       197  TIP3  H2            2.9925043977       -8.8786655330       -2.5276024003  CLST         197          1.0000000000
       592       198  TIP3  OH2          10.7589247758        1.9045550076        4.6112462219  CLST         198          1.0000000000
       593       198  TIP3  H1            9.8739315059        1.5976548660        4.8516051185  CLST         198          1.0000000000
       594       198  TIP3  H2           10.4466361255        2.7963291070        4.2859299252  CLST         198          1.0000000000
       595       199  TIP3  OH2          -0.0629710948        8.4352966239       -5.8296266698  CLST         199          1.0000000000
       596       199  TIP3  H1           -0.9517082006        8.6877675542       -5.4214107646  CLST         199          1.0000000000
       597       199  TIP3  H2           -0.1532744948        7.4927312587       -5.6685820718  CLST         199          1.0000000000
       598       200  TIP3  OH2          -7.5082557552       11.8469115978       10.8692307750  CLST         200          1.0000000000
       599       200  TIP3  H1           -7.5467884414       10.8730797969       10.6467027113  CLST         200          1.0000000000
       600       200  TIP3  H2           -7.2066061635       12.2426996226       10.0276783539  CLST         200          1.0000000000
       601       201  TIP3  OH2           4.5749304329        0.9629886650       -0.0089937706  CLST         201          1.0000000000
       602       201  TIP3  H1            4.3894886360        1.8485506368        0.3774579390  CLST         201          1.0000000000
       603       201  TIP3  H2            5.2414570011        0.6219099107        0.6943964391  CLST         201          1.0000000000
       604       202  TIP3  OH2          -2.0689467095       -4.3740844700      -12.4938185034  CLST         202          1.0000000000
       605       202  TIP3  H1           -1.9231515264       -5.0076870088      -11.6858892696  CLST         202          1.0000000000
       606       202  TIP3  H2           -2.6657179914       -3.6717030708      -12.1473952828  CLST         202          1.0000000000
       607       203  TIP3  OH2          -0.8118919799       11.4347491906        7.5075247864  CLST         203          1.0000000000
       608       203  TIP3  H1            0.0151140045       11.0637846713        7.8298761400  CLST         203          1.0000000000
       609       203  TIP3  H2           -1.5210184792       10.9558492410        8.0825080073  CLST         203          1.0000000000
       610       204  TIP3  OH2          -5.5134236871        6.3872809199      -13.1301000685  CLST         204          1.0000000000
       611       204  TIP3  H1           -4.7150787366        5.9516034804      -13.5755199481  CLST         204          1.0000000000
       612       204  TIP3  H2           -5.8189542937        5.4093662904      -13.0033159795  CLST         204          1.0000000000
       613       205  TIP3  OH2          -2.3349632366        7.1596939427       -2.5993105115  CLST         205          1.0000000000
       614       205  TIP3  H1           -2.2815301703        7.8542190978       -3.3442259140  CLST         205          1.0000000000
       615       205  TIP3  H2           -1.3897746589        6.8790387369       -2.5485158753  CLST         205          1.0000000000
       616       206  TIP3  OH2           5.0014449949      -11.1618148496       -9.8606560636  CLST         206          1.0000000000
       617       206  TIP3  H1            4.7592569570      -12.0962570562       -9.4623538416  CLST         206          1.0000000000
       618       206  TIP3  H2            5.6787802071      -10.9543766638       -9.2017840681  CLST         206          1.0000000000
       619       207  TIP3  OH2          13.0415838488       10.0855389277       12.1612659448  CLST         207          1.0000000000
       620       207  TIP3  H1           12.2356331028        9.6445620185       12.4135491730  CLST         207          1.0000000000
       621       207  TIP3  H2           13.5606030066       10.3302809518       12.8256698906  CLST         207          1.0000000000
       622       208  TIP3  OH2         -11.5907642000        2.3432974632        6.9713909234  CLST         208          1.0000000000
       623       208  TIP3  H1          -11.3086093131        2.1419420723        7.8795416647  CLST         208          1.0000000000
       624       208  TIP3  H2          -11.0891003413        3.2064124435        6.6877044371  CLST         208          1.0000000000
       625       209  TIP3  OH2           4.5097046832       -9.4028959520        7.3130861472  CLST         209          1.0000000000
       626       209  TIP3  H1            4.2539631682       -9.5786826981        6.3919527615  CLST         209          1.0000000000
       627       209  TIP3  H2            3.6781090228       -8.9488768620        7.4933765872  CLST         209          1.0000000000
       628       210  TIP3  OH2          12.0907032908      -11.2001396942        5.3598796348  CLST         210          1.0000000000
       629       210  TIP3  H1           12.3031448111      -11.1997666865        4.3612740500  CLST         210          1.0000000000
       630       210  TIP3  H2           12.3661506584      -10.3412218964        5.6786169196  CLST         210          1.0000000000
       631       211  TIP3  OH2          -0.3533326580       -9.1191467136       12.1214303749  CLST         211          1.0000000000
       632       211  TIP3  H1            0.0745830149       -9.7668343322       12.7989247136  CLST         211          1.0000000000
       633       211  TIP3  H2           -1.1588423647       -9.7564571625       11.9683642426  CLST         211          1.0000000000
       634       212  TIP3  OH2         -12.4417415099        3.4945413910       -2.4904795632  CLST         212          1.0000000000
       635       212  TIP3  H1          -12.0197038932        4.1843464836       -2.9950351177  CLST         212          1.0000000000
       636       212  TIP3  H2          -11.7850202489        2.7971437854       -2.4096695779  CLST         212          1.0000000000
       637       213  TIP3  OH2          -9.5938240126      -11.4099862719      -11.2515331394  CLST         213          1.0000000000
       638       213  TIP3  H1           -9.5268184378      -11.4498969421      -12.1903351442  CLST         213          1.0000000000
       639       213  TIP3  H2           -8.0402529454      -11.0899475818      -12.8216563951  CLST         213          1.0000000000
       640       214  TIP3  OH2          -6.5139325853        2.2112722366       -5.4469917230  CLST         214          1.0000000000
       641       214  TIP3  H1           -6.2743075359        1.4499322293       -4.7923848863  CLST         214          1.0000000000
       642       214  TIP3  H2           -7.2151441124        2.6262105018       -4.8636122830  CLST         214          1.0000000000
       643       215  TIP3  OH2         -12.0493299856      -12.4861579085        5.6414256734  CLST         215          1.0000000000
       644       215  TIP3  H1          -11.1058059765      -12.2768149995        5.6038493739  CLST         215          1.0000000000
       645       215  TIP3  H2          -12.0133146156      -12.8904949442        4.7117921732  CLST         215          1.0000000000
       646       216  TIP3  OH2         -11.7191747456       -2.2929748080        8.1608422798  CLST         216          1.0000000000
       647       216  TIP3  H1          -10.7994159790       -1.9911998479        8.1867341842  CLST         216          1.0000000000
       648       216  TIP3  H2          -11.5975923100       -3.2629682738        8.3139971995  CLST         216          1.0000000000
       649       217  TIP3  OH2           7.6413267549       -0.1059684514       -1.5706385427  CLST         217          1.0000000000
       650       217  TIP3  H1            7.9387419019       -0.9710672280       -1.9559296322  CLST         217          1.0000000000
       651       217  TIP3  H2            7.0686183514       -0.4496653611       -0.8274136130  CLST         217          1.0000000000
       652       218  TIP3  OH2          -8.1803772817       -4.0366580391        9.1471436489  CLST         218          1.0000000000
       653       218  TIP3  H1           -8.3964005310       -3.0599985459        9.0826801231  CLST         218          1.0000000000
       654       218  TIP3  H2           -7.7117805004       -4.1792462209        8.3090568256  CLST         218          1.0000000000
       655       219  TIP3  OH2         -12.4796870023       -4.5662466567       -2.7064301895  CLST         219          1.0000000000
       656       219  TIP3  H1          -12.7925885090       -3.6514059922       -2.6344581238  CLST         219          1.0000000000
       657       219  TIP3  H2          -12.4560364249       -4.5068995756       -3.7358548992  CLST         219          1.0000000000
       658       220  TIP3  OH2           6.4050936637        6.8786809525        7.7422658232  CLST         220          1.0000000000
       659       220  TIP3  H1            5.7528748417        6.7264859566        6.9803016302  CLST         220          1.0000000000
       660       220  TIP3  H2            5.8127682643        6.3342273534        8.3310441063  CLST         220          1.0000000000
       661       221  TIP3  OH2         -10.5514024787       -7.1692516327       10.2558470365  CLST         221          1.0000000000
       662       221  TIP3  H1           -9.7923292028       -7.2783743507       10.7463793439  CLST         221          1.0000000000
       663       221  TIP3  H2          -10.6424219622       -8.1059807459        9.8467864129  CLST         221          1.0000000000
       664       222  TIP3  OH2          -7.0793022632       -0.7138439265      -13.7774730273  CLST         222          1.0000000000
       665       222  TIP3  H1           -6.4593210276       -1.4090405092      -13.3619001614  CLST         222          1.0000000000
       666       222  TIP3  H2           -7.9275607807       -1.1552773593      -13.7473830618  CLST         222          1.0000000000
       667       223  TIP3  OH2           2.7318837612      -10.7109293650      -11.4402723191  CLST         223          1.0000000000
       668       223  TIP3  H1            2.0504244867      -11.8870206899      -11.4027062537  CLST         223          1.0000000000
       669       223  TIP3  H2            3.5967046371      -10.9238590753      -11.0865462840  CLST         223          1.0000000000
       670       224  TIP3  OH2           7.5782029959        4.6650930316        0.6915452214  CLST         224          1.0000000000
       671       224  TIP3  H1            8.2674872523        5.3457433620        0.5647385670  CLST         224          1.0000000000
       672       224  TIP3  H2            7.4000646497        4.2102646625       -0.1810601065  CLST         224          1.0000000000
       673       225  TIP3  OH2          -0.2080152503        4.7073518869       -1.3675644272  CLST         225          1.0000000000
       674       225  TIP3  H1           -0.4516166059        4.5133808897       -0.4163437197  CLST         225          1.0000000000
       675       225  TIP3  H2           -0.2770444275        3.6644913767       -1.5036679039  CLST         225          1.0000000000
       676       226  TIP3  OH2          -5.5808662306       -4.4953999374        7.4270617735  CLST         226          1.0000000000
       677       226  TIP3  H1           -5.5165326591       -5.4998994595        7.6774055683  CLST         226          1.0000000000
       678       226  TIP3  H2           -5.5482902219       -4.4624334414        6.4267458324  CLST         226          1.0000000000
       679       227  TIP3  OH2          11.8608602672       -3.9918874349       -9.8973134609  CLST         227          1.0000000000
       680       227  TIP3  H1           11.8818654747       -3.4719959814       -9.0177378147  CLST         227          1.0000000000
       681       227  TIP3  H2           11.3265952548       -3.3552302140      -10.3572612475  CLST         227          1.0000000000
       682       228  TIP3  OH2           3.4892068962       12.3809798653        3.3568925726  CLST         228          1.0000000000
       683       228  TIP3  H1            2.6393562038       12.0548937186        3.8390204455  CLST         228          1.0000000000
       684       228  TIP3  H2            3.2067462812       12.0557713797        2.5190188699  CLST         228          1.0000000000
       685       229  TIP3  OH2         -11.6144753973      -12.9832489500        2.8691861874  CLST         229          1.0000000000
       686       229  TIP3  H1          -11.8335836144      -13.5863973920        2.2694902750  CLST         229          1.0000000000
       687       229  TIP3  H2          -11.3330085522      -12.1839432793        2.3310749752  CLST         229          1.0000000000
       688       230  TIP3  OH2          12.3321067181        6.2817179831       -3.3392717482  CLST         230          1.0000000000
       689       230  TIP3  H1           13.0726327285        6.2232505530       -2.7874683392  CLST         230          1.0000000000
       690       230  TIP3  H2           12.2342328838        5.2930703498       -3.5093410738  CLST         230          1.0000000000
       691       231  TIP3  OH2           6.9255718066        3.2009995307        4.7093577359  CLST         231          1.0000000000
       692       231  TIP3  H1            7.2530703269        4.1287001406        4.9029208605  CLST         231          1.0000000000
       693       231  TIP3  H2            6.0672813081        3.5381854469        4.2998001410  CLST         231          1.0000000000
       694       232  TIP3  OH2         -10.3584380181        8.8838300565        7.4507497394  CLST         232          1.0000000000
       695       232  TIP3  H1          -10.7651065193        9.4858251034        8.1845638272  CLST         232          1.0000000000
       696       232  TIP3  H2          -10.2390018775        7.9976140134        7.8901064066  CLST         232          1.0000000000
       697       233  TIP3  OH2           3.5596589230       -5.2982909190        8.0516851223  CLST         233          1.0000000000
       698       233  TIP3  H1            4.1674905522       -5.6304757920        8.7282620193  CLST         233          1.0000000000
       699       233  TIP3  H2            3.4379484942       -4.4312743241        8.5162629721  CLST         233          1.0000000000
       700       234  TIP3  OH2          -3.5182058389        8.3383332740       -0.5813218140  CLST         234          1.0000000000
       701       234  TIP3  H1           -3.0291852814        8.0935935036       -1.4262572287  CLST         234          1.0000000000
       702       234  TIP3  H2           -3.6668627085        9.2749369304       -0.6241251723  CLST         234          1.0000000000
       703       235  TIP3  OH2          -2.0269074461       -3.9889878848       -8.9827229856  CLST         235          1.0000000000
       704       235  TIP3  H1           -1.8681965455       -4.8310729757       -9.4946085233  CLST         235          1.0000000000
       705       235  TIP3  H2           -1.1059398542       -3.7130438826       -8.9917995732  CLST         235          1.0000000000
       706       236  TIP3  OH2          -0.1212226111      -13.6282848655       -3.2192633531  CLST         236          1.0000000000
       707       236  TIP3  H1            0.5745957970      -12.9999855271       -2.7815356754  CLST         236          1.0000000000
       708       236  TIP3  H2           -0.7424665553      -13.5655512714       -2.4446126464  CLST         236          1.0000000000
       709       237  TIP3  OH2          -3.7054685408       -5.2344967152       10.7051098610  CLST         237          1.0000000000
       710       237  TIP3  H1           -4.6580001084       -4.9852603901       10.8999248710  CLST         237          1.0000000000
       711       237  TIP3  H2           -3.8660622444       -5.9324615307       10.0669521574  CLST         237          1.0000000000
       712       238  TIP3  OH2           0.7045484267        4.7259918392        7.2580282462  CLST         238          1.0000000000
       713       238  TIP3  H1            0.0186863993        5.3432277481        6.8590709923  CLST         238          1.0000000000
       714       238  TIP3  H2            0.6961431360        4.9884082393        8.1783435811  CLST         238          1.0000000000
       715       239  TIP3  OH2         -14.0356463955        6.1161237807        3.5053962897  CLST         239          1.0000000000
       716       239  TIP3  H1          -14.1011219809        6.4870848117        2.5838525525  CLST         239          1.0000000000
       717       239  TIP3  H2          -13.4252911920        5.3889326025        3.2786282495  CLST         239          1.0000000000
       718       240  TIP3  OH2         -14.2066062786        8.8978121005       -0.2779348138  CLST         240          1.0000000000
       719       240  TIP3  H1          -15.0066113773        9.1981461790        0.1814260655  CLST         240          1.0000000000
       720       240  TIP3  H2          -14.1573012840        7.9342780024        0.0230155565  CLST         240          1.0000000000
       721       241  TIP3  OH2          -7.8895000525       -7.8733085204       -8.6258423634  CLST         241          1.0000000000
       722       241  TIP3  H1           -8.0759107158       -8.0953404573       -7.6645565488  CLST         241          1.0000000000
       723       241  TIP3  H2           -7.8055986670       -6.8914253722       -8.5799115056  CLST         241          1.0000000000
       724       242  TIP3  OH2           6.1456359985       -5.7727694710        9.8198956522  CLST         242          1.0000000000
       725       242  TIP3  H1            6.4593591471       -4.8558860577        9.5876752278  CLST         242          1.0000000000
       726       242  TIP3  H2            6.9451178868       -6.2681445778        9.5668763595  CLST         242          1.0000000000
       727       243  TIP3  OH2          -6.5950443840       -7.0486421222       -4.3516483507  CLST         243          1.0000000000
       728       243  TIP3  H1           -5.9884033533       -7.5959533365       -4.9627060387  CLST         243          1.0000000000
       729       243  TIP3  H2           -6.3409417485       -7.2666148198       -3.4967836606  CLST         243          1.0000000000
       730       244  TIP3  OH2           4.6567591619        5.6425243370        5.5233022995  CLST         244          1.0000000000
       731       244  TIP3  H1            4.7502157329        5.2997591372        4.6207929100  CLST         244          1.0000000000
       732       244  TIP3  H2            3.9818320784        4.9437220314        5.7302717591  CLST         244          1.0000000000
       733       245  TIP3  OH2          -6.9599069119        3.6577709745       -7.7022351659  CLST         245          1.0000000000
       734       245  TIP3  H1           -6.8709225516        3.0177348580       -6.9513660262  CLST         245          1.0000000000
       735       245  TIP3  H2           -7.3463434679        4.4209604367       -7.1393835781  CLST         245          1.0000000000
       736       246  TIP3  OH2           2.1000558864       -6.5405108680       -2.0808795897  CLST         246          1.0000000000
       737       246  TIP3  H1            1.8272693802       -5.7546768263       -2.6883611053  CLST         246          1.0000000000
       738       246  TIP3  H2            3.0590848376       -6.3727084598       -2.0974144945  CLST         246          1.0000000000
       739       247  TIP3  OH2           6.0264724621        7.9951270783        0.6551660675  CLST         247          1.0000000000
       740       247  TIP3  H1            6.4404701487        7.7980143040       -0.2111214356  CLST         247          1.0000000000
       741       247  TIP3  H2            5.5413611673        8.8352006587        0.4175568757  CLST         247          1.0000000000
       742       248  TIP3  OH2          -2.6010470682        8.2911930504      -11.8734443909  CLST         248          1.0000000000
       743       248  TIP3  H1           -2.1612755742        8.4868518817      -12.7122721261  CLST         248          1.0000000000
       744       248  TIP3  H2           -2.2222163747        8.9987230409      -11.3273078772  CLST         248          1.0000000000
       745       249  TIP3  OH2           8.9835288109        4.7835407622       -7.7720786602  CLST         249          1.0000000000
       746       249  TIP3  H1            8.4601228729        5.5902289165       -7.5281838073  CLST         249          1.0000000000
       747       249  TIP3  H2            8.4585372884        4.0879141507       -7.3199291215  CLST         249          1.0000000000
       748       250  TIP3  OH2          -7.6163991363        9.9233273663       -5.4532344620  CLST         250          1.0000000000
       749       250  TIP3  H1           -8.4966030715        9.5544391307       -5.5213425767  CLST         250          1.0000000000
       750       250  TIP3  H2           -7.5642092184       10.4011549280       -6.3386393526  CLST         250          1.0000000000
       751       251  TIP3  OH2          -3.4859772152       12.4150585459        3.0292968651  CLST         251          1.0000000000
       752       251  TIP3  H1           -3.3649730862       13.3294022730        2.9233065817  CLST         251          1.0000000000
       753       251  TIP3  H2           -2.9191632256       12.2464259281        3.8225814294  CLST         251          1.0000000000
       754       252  TIP3  OH2           5.9414233159        5.3277313533       14.4628206900  CLST         252          1.0000000000
       755       252  TIP3  H1            5.7240544717        6.3157535483       14.3982476864  CLST         252          1.0000000000
       756       252  TIP3  H2            5.3641342748        5.0857772136       15.0904260332  CLST         252          1.0000000000
       757       253  TIP3  OH2           6.1348148187       13.9276551222        3.1241882516  CLST         253          1.0000000000
       758       253  TIP3  H1            5.2558271919       13.5253725577        3.3453584008  CLST         253          1.0000000000
       759       253  TIP3  H2            6.1244648534       13.6400867606        2.1792644540  CLST         253          1.0000000000
       760       254  TIP3  OH2          -4.1674518097        8.1057204169        3.0436397132  CLST         254          1.0000000000
       761       254  TIP3  H1           -4.4648224646        8.8292954968        2.4150333033  CLST         254          1.0000000000
       762       254  TIP3  H2           -5.0243084611        7.6939565707        3.2636657639  CLST         254          1.0000000000
       763       255  TIP3  OH2          -7.0946709703       10.4967091571        4.2271425744  CLST         255          1.0000000000
       764       255  TIP3  H1           -7.9983133657       10.8267817334        4.3164068667  CLST         255          1.0000000000
       765       255  TIP3  H2           -7.1241526640        9.7580351360        4.8734276175  CLST         255          1.0000000000
       766       256  TIP3  OH2          11.3778923519        3.5921254871       -1.2159659374  CLST         256          1.0000000000
       767       256  TIP3  H1           11.8728345093        2.8111467156       -1.5941570746  CLST         256          1.0000000000
       768       256  TIP3  H2           11.1324224384        3.2032713599       -0.3650321135  CLST         256          1.0000000000
       769       257  TIP3  OH2          -8.5183844027       -1.1724780854       -5.2124753436  CLST         257          1.0000000000
       770       257  TIP3  H1           -7.5796640177       -0.8782453890       -4.9284483570  CLST         257          1.0000000000
       771       257  TIP3  H2           -8.4917380070       -0.9853304999       -6.1768513075  CLST         257          1.0000000000
       772       258  TIP3  OH2          -5.2900862200       10.1255151158        7.9133054053  CLST         258          1.0000000000
       773       258  TIP3  H1           -5.2051175817       10.5465780066        7.0036021897  CLST         258          1.0000000000
       774       258  TIP3  H2           -6.0060977322       10.7514670585        8.2433690322  CLST         258          1.0000000000
       775       259  TIP3  OH2          10.1539240047        6.0863695668        0.9023421295  CLST         259          1.0000000000
       776       259  TIP3  H1           11.0100380784        6.5965668362        0.8124772016  CLST         259          1.0000000000
       777       259  TIP3  H2           10.1007551632        6.0828076073        1.8987734012  CLST         259          1.0000000000
       778       260  TIP3  OH2          -4.9472798535        7.6091701824        8.8313138845  CLST         260          1.0000000000
       779       260  TIP3  H1           -5.0649466793        8.4969943000        8.4288476727  CLST         260          1.0000000000
       780       260  TIP3  H2           -5.7316909861        7.1536614685        8.5131319410  CLST         260          1.0000000000
       781       261  TIP3  OH2           0.7919527958       -4.1497617352       12.4007947912  CLST         261          1.0000000000
       782       261  TIP3  H1            0.3128163949       -5.0703811790       12.4162367533  CLST         261          1.0000000000
       783       261  TIP3  H2            1.5451953084       -4.4708338420       12.9883022846  CLST         261          1.0000000000
       784       262  TIP3  OH2         -10.8176348102        4.7618933271        6.0907328520  CLST         262          1.0000000000
       785       262  TIP3  H1          -10.0714964062        4.5890713991        5.4139905214  CLST         262          1.0000000000
       786       262  TIP3  H2          -11.4527248804        4.8826780267        5.3437234759  CLST         262          1.0000000000
       787       263  TIP3  OH2           1.6968640026        0.8376271208        6.7691827583  CLST         263          1.0000000000
       788       263  TIP3  H1            2.3298222655        1.5296569617        7.0012661184  CLST         263          1.0000000000
       789       263  TIP3  H2            2.2866320774        0.0632876466        6.9228377607  CLST         263          1.0000000000
       790       264  TIP3  OH2           5.2492802772       -4.4574793385       -9.7324849997  CLST         264          1.0000000000
       791       264  TIP3  H1            5.2006145859       -5.4354727138       -9.9970677717  CLST         264          1.0000000000
       792       264  TIP3  H2            4.3651537904       -4.2060687779      -10.1247624550  CLST         264          1.0000000000
       793       265  TIP3  OH2           7.4665934752        4.9701878224      -10.2296701449  CLST         265          1.0000000000
       794       265  TIP3  H1            7.7083358780        5.9832496251      -10.4226495410  CLST         265          1.0000000000
       795       265  TIP3  H2            8.2936170957        4.7456354524       -9.6328030015  CLST         265          1.0000000000
       796       266  TIP3  OH2          -8.0465001500       -8.8567700493        0.0239100102  CLST         266          1.0000000000
       797       266  TIP3  H1           -7.9061034720       -9.2280196544        0.8808277087  CLST         266          1.0000000000
       798       266  TIP3  H2           -8.2702432837       -7.9004351801        0.1698626894  CLST         266          1.0000000000
       799       267  TIP3  OH2           1.2446164690        2.6083319277       -5.2415069092  CLST         267          1.0000000000
       800       267  TIP3  H1            1.4802237602        3.4698337540       -4.7794551344  CLST         267          1.0000000000
       801       267  TIP3  H2            2.1029536765        2.1643165019       -5.1520835113  CLST         267          1.0000000000
       802       268  TIP3  OH2           5.1166195529       -4.7412328961       -6.8961341902  CLST         268          1.0000000000
       803       268  TIP3  H1            5.1395040749       -4.4712986582       -7.8064271350  CLST         268          1.0000000000
       804       268  TIP3  H2            4.9293732883       -5.7189373955       -6.9269940209  CLST         268          1.0000000000
       805       269  TIP3  OH2           5.5171682158       10.7306626535       -0.1670545028  CLST         269          1.0000000000
       806       269  TIP3  H1            6.4356575612       10.6244404438       -0.5837097426  CLST         269          1.0000000000
       807       269  TIP3  H2            5.7256885831       11.5615981485        0.3444203827  CLST         269          1.0000000000
       808       270  TIP3  OH2           1.2716381257        9.4337477358       -7.9935103807  CLST         270          1.0000000000
       809       270  TIP3  H1            1.3754240139        8.6281626318       -8.5372284608  CLST         270          1.0000000000
       810       270  TIP3  H2            0.8935028098        9.0729614038       -7.1261491605  CLST         270          1.0000000000
       811       271  TIP3  OH2          -6.5303266840       -9.0251440273       -2.1945772600  CLST         271          1.0000000000
       812       271  TIP3  H1           -5.7569955872       -8.9864233419       -1.5916181589  CLST         271          1.0000000000
       813       271  TIP3  H2           -7.2290300909       -8.9192865949       -1.4436379184  CLST         271          1.0000000000
       814       272  TIP3  OH2           9.4821795365       -8.2428369512        5.8875908793  CLST         272          1.0000000000
       815       272  TIP3  H1            8.4766050827       -8.3385558573        5.8487908089  CLST         272          1.0000000000
       816       272  TIP3  H2            9.5338196989       -7.6830333462        5.0539095142  CLST         272          1.0000000000
       817       273  TIP3  OH2         -13.8420035668        9.4178209325        3.3857428738  CLST         273          1.0000000000
       818       273  TIP3  H1          -14.4660276865        9.6817691082        4.1670818797  CLST         273          1.0000000000
       819       273  TIP3  H2          -13.3625671878        8.7981694660        4.0163138160  CLST         273          1.0000000000
       820       274  TIP3  OH2           4.1611694133       13.0488173689       -4.1417714971  CLST         274          1.0000000000
       821       274  TIP3  H1            3.8851721321       12.3917567566       -2.4106802560  CLST         274          1.0000000000
       822       274  TIP3  H2            3.6832089886       13.3963992087       -3.3021966079  CLST         274          1.0000000000
       823       275  TIP3  OH2           8.6774999416      -11.4039147611        5.9952386603  CLST         275          1.0000000000
       824       275  TIP3  H1            9.3638004788      -10.6766059370        6.0215744090  CLST         275          1.0000000000
       825       275  TIP3  H2            9.2501109844      -12.1396703166        5.6128250731  CLST         275          1.0000000000
       826       276  TIP3  OH2          -0.2889625788       -5.6909325745        1.5238003989  CLST         276          1.0000000000
       827       276  TIP3  H1           -0.9252077425       -5.8443599232        0.8133702846  CLST         276          1.0000000000
       828       276  TIP3  H2           -0.8135473082       -5.0589159602        2.1289321584  CLST         276          1.0000000000
       829       277  TIP3  OH2           6.5576236292        6.5778677255       -6.9133273876  CLST         277          1.0000000000
       830       277  TIP3  H1            5.7246164160        6.1368722900       -7.3270151273  CLST         277          1.0000000000
       831       277  TIP3  H2            6.6280225771        7.3990043355       -7.3972039306  CLST         277          1.0000000000
       832       278  TIP3  OH2          -0.4966008818       -7.5648195031        3.4257747023  CLST         278          1.0000000000
       833       278  TIP3  H1           -0.2871283112       -6.8465354366        2.7084868269  CLST         278          1.0000000000
       834       278  TIP3  H2           -0.7783887692       -6.8532742695        4.0622034273  CLST         278          1.0000000000
       835       279  TIP3  OH2         -13.6128158777        6.4977850100        0.5377293444  CLST         279          1.0000000000
       836       279  TIP3  H1          -13.6706622518        5.5743484061        0.1654739140  CLST         279          1.0000000000
       837       279  TIP3  H2          -12.6339850179        6.5234486079        0.7415442894  CLST         279          1.0000000000
       838       280  TIP3  OH2          -3.2346308476       -9.8823542524        5.5190527449  CLST         280          1.0000000000
       839       280  TIP3  H1           -2.7930810966       -9.2540515914        6.1951934221  CLST         280          1.0000000000
       840       280  TIP3  H2           -3.8850623058       -9.1707954965        5.2351398962  CLST         280          1.0000000000
       841       281  TIP3  OH2           8.0698755820        7.8974021012      -10.6584359392  CLST         281          1.0000000000
       842       281  TIP3  H1            8.3451914701        8.8589596039      -10.5723642515  CLST         281          1.0000000000
       843       281  TIP3  H2            7.0558990744        8.0061405126      -10.6021279927  CLST         281          1.0000000000
       844       282  TIP3  OH2          -7.8423036531      -11.8677112739        9.9807237781  CLST         282          1.0000000000
       845       282  TIP3  H1           -8.6499552394      -11.6317612885        9.5222111396  CLST         282          1.0000000000
       846       282  TIP3  H2           -7.3534315613      -12.3219518974        9.2553497952  CLST         282          1.0000000000
       847       283  TIP3  OH2           4.5174118969        8.6421710756       -4.8299371327  CLST         283          1.0000000000
       848       283  TIP3  H1            4.6874146707        9.5905206412       -5.0283011909  CLST         283          1.0000000000
       849       283  TIP3  H2            3.9720128308        8.7531128657       -3.9921950520  CLST         283          1.0000000000
       850       284  TIP3  OH2          11.9449579762        8.3325663335       -1.3255443785  CLST         284          1.0000000000
       851       284  TIP3  H1           11.7173855832        7.6069373093       -1.9565533583  CLST         284          1.0000000000
       852       284  TIP3  H2           11.1849839233        8.9435442318       -1.4832064306  CLST         284          1.0000000000
       853       285  TIP3  OH2          -5.4788620990        1.9528318676        8.9698160393  CLST         285          1.0000000000
       854       285  TIP3  H1           -4.8129579869        1.7418360161        8.2949700669  CLST         285          1.0000000000
       855       285  TIP3  H2           -4.9627056328        2.6759362976        9.4466112607  CLST         285          1.0000000000
       856       286  TIP3  OH2           2.9130132528        5.8530453447       -0.6599212255  CLST         286          1.0000000000
       857       286  TIP3  H1            2.0198048527        5.7465089416       -0.3276566083  CLST         286          1.0000000000
       858       286  TIP3  H2            3.4631890887        5.7962958195        0.1686562973  CLST         286          1.0000000000
       859       287  TIP3  OH2          -4.2470981331        9.4227781598       11.2694511946  CLST         287          1.0000000000
       860       287  TIP3  H1           -4.7825248321       10.1258204892       11.7580419973  CLST         287          1.0000000000
       861       287  TIP3  H2           -5.0046190030        9.0033767813       10.8079561106  CLST         287          1.0000000000
       862       288  TIP3  OH2           5.3866484519        3.5361632776       -9.3726219163  CLST         288          1.0000000000
       863       288  TIP3  H1            6.0850975237        3.4851191459      -10.3538600843  CLST         288          1.0000000000
       864       288  TIP3  H2            6.7002539754        4.6443899519      -10.2173136864  CLST         288          1.0000000000
       865       289  TIP3  OH2          -6.9497270125       -5.1353450395       -8.3645914103  CLST         289          1.0000000000
       866       289  TIP3  H1           -7.7996773497       -4.4563907629       -8.2126205605  CLST         289          1.0000000000
       867       289  TIP3  H2           -6.3320416442       -4.9458944094       -7.7056919464  CLST         289          1.0000000000
       868       290  TIP3  OH2           2.0967586793      -12.0990601645       11.2487444395  CLST         290          1.0000000000
       869       290  TIP3  H1            2.5342385696      -12.9160027675       11.0805146157  CLST         290          1.0000000000
       870       290  TIP3  H2            2.4714868931      -11.6747189015       12.0077870239  CLST         290          1.0000000000
       871       291  TIP3  OH2         -10.4184879234       -3.5366398995        2.8645571433  CLST         291          1.0000000000
       872       291  TIP3  H1          -11.1281034488       -4.1485772624        3.2533209656  CLST         291          1.0000000000
       873       291  TIP3  H2          -10.3232709256       -3.9705096090        1.9866102291  CLST         291          1.0000000000
       874       292  TIP3  OH2          12.2582893802        3.6683417663       -4.6764323951  CLST         292          1.0000000000
       875       292  TIP3  H1           11.4904282880        3.0388886006       -4.7388739268  CLST         292          1.0000000000
       876       292  TIP3  H2           12.1188598760        4.2062694200       -5.4682493094  CLST         292          1.0000000000
       877       293  TIP3  OH2           8.9486539068       10.7623867285       11.2281791168  CLST         293          1.0000000000
       878       293  TIP3  H1            8.9645809686       11.6941795971       11.5101199951  CLST         293          1.0000000000
       879       293  TIP3  H2            9.1320847129       10.9529129773       10.2470107274  CLST         293          1.0000000000
       880       294  TIP3  OH2           4.1991933646        4.5681744654       -2.3830839152  CLST         294          1.0000000000
       881       294  TIP3  H1            3.6732334015        5.1429647939       -1.7833888426  CLST         294          1.0000000000
       882       294  TIP3  H2            4.3289331279        5.0717761085       -3.1725280815  CLST         294          1.0000000000
       883       295  TIP3  OH2          -2.4397549936      -13.2091005754       -8.6219555222  CLST         295          1.0000000000
       884       295  TIP3  H1           -3.1186100274      -13.2258837474       -7.9232654636  CLST         295          1.0000000000
       885       295  TIP3  H2           -1.6401933046      -13.4955044524       -8.1217382543  CLST         295          1.0000000000
       886       296  TIP3  OH2          -1.6615123028       11.4769984442      -12.8369828252  CLST         296          1.0000000000
       887       296  TIP3  H1           -0.6953485800       11.2624945308      -12.9121915773  CLST         296          1.0000000000
       888       296  TIP3  H2           -1.8263365400       11.1228885775      -11.9169521371  CLST         296          1.0000000000
       889       297  TIP3  OH2           8.2499927656       -0.5710984407       11.5412433335  CLST         297          1.0000000000
       890       297  TIP3  H1            8.7739065566       -1.3012995294       11.1363444113  CLST         297          1.0000000000
       891       297  TIP3  H2            7.4244747018       -1.1313337692       11.6252442388  CLST         297          1.0000000000
       892       298  TIP3  OH2           0.9977195827       -1.0109398231       -7.6068099275  CLST         298          1.0000000000
       893       298  TIP3  H1            1.4700352687       -0.4331907009       -8.3115673822  CLST         298          1.0000000000
       894       298  TIP3  H2            0.9280093596       -1.7987618324       -8.2516477951  CLST         298          1.0000000000
       895       299  TIP3  OH2           2.9129392167       10.0684215090       12.5724840966  CLST         299          1.0000000000
       896       299  TIP3  H1            1.5016677015       10.9221421980       11.8285962631  CLST         299          1.0000000000
       897       299  TIP3  H2            2.2734751782        9.7237654112       13.2918266786  CLST         299          1.0000000000
       898       300  TIP3  OH2         -10.9562639450        5.2635449303       -3.8726044888  CLST         300          1.0000000000
       899       300  TIP3  H1          -10.8428187237        5.6001740139       -4.8193799745  CLST         300          1.0000000000
       900       300  TIP3  H2          -11.0077926429        6.1678994653       -3.4624626412  CLST         300          1.0000000000
       901       301  TIP3  OH2           9.6367803695       -8.2458326440       11.1974115227  CLST         301          1.0000000000
       902       301  TIP3  H1            9.4330405609       -7.7955693188       12.0244034413  CLST         301          1.0000000000
       903       301  TIP3  H2            9.5948553606       -9.2137122180       11.4709198121  CLST         301          1.0000000000
       904       302  TIP3  OH2           7.7094143759       12.9888657715        5.4084822267  CLST         302          1.0000000000
       905       302  TIP3  H1            7.0923855985       13.5633147055        4.8445377920  CLST         302          1.0000000000
       906       302  TIP3  H2            6.9923036704       12.3411229140        5.6921574929  CLST         302          1.0000000000
       907       303  TIP3  OH2         -10.9463467067        1.2753583545       -2.0056583652  CLST         303          1.0000000000
       908       303  TIP3  H1          -10.0156016944        0.9748380824       -1.7971828786  CLST         303          1.0000000000
       909       303  TIP3  H2          -10.9923149210        0.7321747774       -2.8383138494  CLST         303          1.0000000000
       910       304  TIP3  OH2          -7.8567580928        1.2644009511      -14.9787370345  CLST         304          1.0000000000
       911       304  TIP3  H1           -7.5221391215        0.4100529710      -14.5887162284  CLST         304          1.0000000000
       912       304  TIP3  H2           -7.1061962183        1.6716217358      -15.4561553121  CLST         304          1.0000000000
       913       305  TIP3  OH2           3.4269730452       -4.0012125573       13.9584807074  CLST         305          1.0000000000
       914       305  TIP3  H1            4.3221423502       -4.2363432593       13.7020740669  CLST         305          1.0000000000
       915       305  TIP3  H2            3.3664642778       -3.1046658407       13.6812296672  CLST         305          1.0000000000
       916       306  TIP3  OH2           8.8269389622      -11.9519489542      -11.2524828356  CLST         306          1.0000000000
       917       306  TIP3  H1            9.5391413173      -11.9746917818      -12.0127083660  CLST         306          1.0000000000
       918       306  TIP3  H2            9.1037045220      -12.5201437317      -10.6096492289  CLST         306          1.0000000000
       919       307  TIP3  OH2           9.2449903122        7.7277963273       -7.4785507253  CLST         307          1.0000000000
       920       307  TIP3  H1            8.4303241276        8.2633187628       -7.6342333251  CLST         307          1.0000000000
       921       307  TIP3  H2            9.6014197845        8.0084796713       -6.6115822763  CLST         307          1.0000000000
       922       308  TIP3  OH2         -10.9154149677       -4.8621328763        8.6887520272  CLST         308          1.0000000000
       923       308  TIP3  H1          -11.0414346861       -5.7429084112        9.2536220608  CLST         308          1.0000000000
       924       308  TIP3  H2           -9.9806718461       -4.7146111903        9.0300370228  CLST         308          1.0000000000
       925       309  TIP3  OH2          -1.7293189503       -0.6376605627        5.5766696473  CLST         309          1.0000000000
       926       309  TIP3  H1           -2.5284273422       -0.9219407835        5.0930758687  CLST         309          1.0000000000
       927       309  TIP3  H2           -1.9946637412       -1.1447876597        6.3882163897  CLST         309          1.0000000000
       928       310  TIP3  OH2          -5.0546741275       -0.6228976015        7.3110598138  CLST         310          1.0000000000
       929       310  TIP3  H1           -4.2358102574       -0.1800966328        7.6951233803  CLST         310          1.0000000000
       930       310  TIP3  H2           -5.0497617750       -1.3931825827        7.9626473370  CLST         310          1.0000000000
       931       311  TIP3  OH2          -7.0450142477        8.5087970177      -12.3420324315  CLST         311          1.0000000000
       932       311  TIP3  H1           -6.5263279007        7.7684309503      -12.7820613713  CLST         311          1.0000000000
       933       311  TIP3  H2           -7.0906087190        8.0981380612      -11.4710669577  CLST         311          1.0000000000
       934       312  TIP3  OH2           6.3930267365       -0.9587979293       -6.3228888105  CLST         312          1.0000000000
       935       312  TIP3  H1            6.3937982577       -0.1266748558       -5.8269595887  CLST         312          1.0000000000
       936       312  TIP3  H2            5.8795487512       -1.5548601886       -5.7586374323  CLST         312          1.0000000000
       937       313  TIP3  OH2          -8.9446952437      -10.4840243398        7.0496871229  CLST         313          1.0000000000
       938       313  TIP3  H1           -8.4253010434       -9.6429163942        6.9704343949  CLST         313          1.0000000000
       939       313  TIP3  H2           -9.3136421636      -10.5573144936        6.1542200824  CLST         313          1.0000000000
       940       314  TIP3  OH2          -1.3029704133      -12.1372425396      -10.8282837842  CLST         314          1.0000000000
       941       314  TIP3  H1           -1.2380087520      -11.2763925704      -10.2980054850  CLST         314          1.0000000000
       942       314  TIP3  H2           -1.9448978348      -12.5676845192      -10.1540798813  CLST         314          1.0000000000
       943       315  TIP3  OH2          -1.3680894931       -0.6061027543       -6.6133920086  CLST         315          1.0000000000
       944       315  TIP3  H1           -0.4940432060       -0.8773379980       -6.9514082644  CLST         315          1.0000000000
       945       315  TIP3  H2           -1.2389840527       -0.1712298596       -5.7053748099  CLST         315          1.0000000000
       946       316  TIP3  OH2         -13.1242456090       -3.9305818410       -5.4122110669  CLST         316          1.0000000000
       947       316  TIP3  H1          -12.3852034449       -4.3716587278       -5.8740989080  CLST         316          1.0000000000
       948       316  TIP3  H2          -12.9973637302       -3.0474607737       -5.8472367784  CLST         316          1.0000000000
       949       317  TIP3  OH2          -6.1497812204        0.0221862472       -3.7693399366  CLST         317          1.0000000000
       950       317  TIP3  H1           -5.2605512517        0.0405482495       -3.2065236311  CLST         317          1.0000000000
       951       317  TIP3  H2           -6.7253682156        0.1550136456       -2.9663598649  CLST         317          1.0000000000
       952       318  TIP3  OH2          -4.0400355894       -9.6886358967       -9.2402780544  CLST         318          1.0000000000
       953       318  TIP3  H1           -4.2530390010       -9.9529153086       -8.2737922295  CLST         318          1.0000000000
       954       318  TIP3  H2           -3.0474806710       -9.7890612243       -9.0968752364  CLST         318          1.0000000000
       955       319  TIP3  OH2           5.6039703447       10.7739592357        8.6318116168  CLST         319          1.0000000000
       956       319  TIP3  H1            6.3616603209       10.2109439328        8.3127403938  CLST         319          1.0000000000
       957       319  TIP3  H2            5.9626733236       10.9977531293        9.5296831514  CLST         319          1.0000000000
       958       320  TIP3  OH2         -10.6338400740        1.1354357439      -14.5165271516  CLST         320          1.0000000000
       959       320  TIP3  H1           -9.7707418390        1.3519745332      -14.8999954935  CLST         320          1.0000000000
       960       320  TIP3  H2          -10.3731166489        0.2732527210      -14.1896151578  CLST         320          1.0000000000
       961       321  TIP3  OH2          -9.4986293575       10.4811489930       -9.9272779719  CLST         321          1.0000000000
       962       321  TIP3  H1          -10.3915592028       10.1680744151       -9.8761160413  CLST         321          1.0000000000
       963       321  TIP3  H2           -9.3527159573       10.3541372452      -10.9056589697  CLST         321          1.0000000000
       964       322  TIP3  OH2         -12.6150001979       -1.7546223048       -2.3298324268  CLST         322          1.0000000000
       965       322  TIP3  H1          -12.3136488301       -1.2232178827       -3.0601971675  CLST         322          1.0000000000
       966       322  TIP3  H2          -11.6636940153       -1.9846099962       -1.9498953753  CLST         322          1.0000000000
       967       323  TIP3  OH2          -0.8036171033        3.9664165510        4.2521893799  CLST         323          1.0000000000
       968       323  TIP3  H1           -0.5496432320        3.0654171068        4.5189112939  CLST         323          1.0000000000
       969       323  TIP3  H2           -0.8851977909        3.8460463808        3.3000260640  CLST         323          1.0000000000
       970       324  TIP3  OH2         -10.9456820160        6.2250664368        1.5338063350  CLST         324          1.0000000000
       971       324  TIP3  H1          -11.1139012274        5.3742050091        2.0227463540  CLST         324          1.0000000000
       972       324  TIP3  H2          -10.3778765852        6.6923605993        2.1913472624  CLST         324          1.0000000000
       973       325  TIP3  OH2          -4.5966791467        0.9544702166        3.5369996440  CLST         325          1.0000000000
       974       325  TIP3  H1           -5.5821772538        0.8942717517        3.5030116306  CLST         325          1.0000000000
       975       325  TIP3  H2           -4.6053233755        1.9218726150        3.6748658801  CLST         325          1.0000000000
       976       326  TIP3  OH2           8.9848595746        8.6585206736       -2.8312354599  CLST         326          1.0000000000
       977       326  TIP3  H1            8.6450143989        7.8305857779       -2.4250579732  CLST         326          1.0000000000
       978       326  TIP3  H2            8.2899520215        8.7722309004       -3.4771913820  CLST         326          1.0000000000
       979       327  TIP3  OH2          10.4618461978       -3.6620636375      -13.1707313205  CLST         327          1.0000000000
       980       327  TIP3  H1           10.4845723042       -3.1588156243      -13.8389295407  CLST         327          1.0000000000
       981       327  TIP3  H2           10.1884778269       -3.1271956123      -12.3864983905  CLST         327          1.0000000000
       982       328  TIP3  OH2           2.1868057776        7.1627919670       -9.8645076741  CLST         328          1.0000000000
       983       328  TIP3  H1            2.1900331569        6.2942343511       -9.4031966808  CLST         328          1.0000000000
       984       328  TIP3  H2            3.1294062549        7.0586906533      -10.1020318306  CLST         328          1.0000000000
       985       329  TIP3  OH2           0.8051232741      -11.6434060721       -2.5291291289  CLST         329          1.0000000000
       986       329  TIP3  H1            0.9195197315      -10.8286928872       -3.0184129965  CLST         329          1.0000000000
       987       329  TIP3  H2            1.6932363857      -11.7215174138       -2.0780288430  CLST         329          1.0000000000
       988       330  TIP3  OH2          -9.2529644167       -1.0681697724        3.5506995716  CLST         330          1.0000000000
       989       330  TIP3  H1           -9.6479584813       -1.9272517822        3.2709509438  CLST         330          1.0000000000
       990       330  TIP3  H2          -10.0439468687       -0.7570735020        4.0405347755  CLST         330          1.0000000000
       991       331  TIP3  OH2          12.3021912309        9.6922001991       -8.8869088801  CLST         331          1.0000000000
       992       331  TIP3  H1           13.0068687801        9.9037461835       -9.3489795605  CLST         331          1.0000000000
       993       331  TIP3  H2           12.2429205683        8.6343605603       -8.7935476590  CLST         331          1.0000000000
       994       332  TIP3  OH2          11.3475030380       -1.5503176487       -4.4479623197  CLST         332          1.0000000000
       995       332  TIP3  H1           12.7116385071       -1.5671695678       -4.6202260864  CLST         332          1.0000000000
       996       332  TIP3  H2           13.0646592726        0.0903905311       -4.1158716264  CLST         332          1.0000000000
       997       333  TIP3  OH2          10.3121527106      -14.1274869271        7.9537195273  CLST         333          1.0000000000
       998       333  TIP3  H1            9.4777163948      -13.6249122862        8.1527320455  CLST         333          1.0000000000
       999       333  TIP3  H2           10.3874004296      -14.1427867689        6.9950889030  CLST         333          1.0000000000
      1000       334  TIP3  OH2         -10.8785355158       -9.7015917128        9.1283987610  CLST         334          1.0000000000
      1001       334  TIP3  H1          -11.7495943448       -9.8687628909        8.6612752499  CLST         334          1.0000000000
      1002       334  TIP3  H2          -10.3375712304      -10.0512520157        8.3794236125  CLST         334          1.0000000000
      1003       335  TIP3  OH2           6.7823952795      -10.2672879246        1.4663258473  CLST         335          1.0000000000
      1004       335  TIP3  H1            6.8242469773      -10.2314358960        2.4359836760  CLST         335          1.0000000000
      1005       335  TIP3  H2            5.8276599762      -10.1239715336        1.3310068661  CLST         335          1.0000000000
      1006       336  TIP3  OH2          -9.1414199439       -3.8267052086       -3.5957654273  CLST         336          1.0000000000
      1007       336  TIP3  H1           -9.0673451267       -4.5308135000       -4.2763513898  CLST         336          1.0000000000
      1008       336  TIP3  H2           -8.6054357596       -3.1708834552       -4.0834386080  CLST         336          1.0000000000
      1009       337  TIP3  OH2          -1.6595831034       -4.8449070154        7.9593272698  CLST         337          1.0000000000
      1010       337  TIP3  H1           -1.4832650571       -4.6379873711        8.8962956375  CLST         337          1.0000000000
      1011       337  TIP3  H2           -1.7911554518       -3.9001235796        7.6586321215  CLST         337          1.0000000000
      1012       338  TIP3  OH2          -0.5358751113        2.5919952406       10.9466315530  CLST         338          1.0000000000
      1013       338  TIP3  H1           -0.5498618209        2.5302698889        9.9847425412  CLST         338          1.0000000000
      1014       338  TIP3  H2           -0.2121836627        1.7047896756       11.2369972957  CLST         338          1.0000000000
      1015       339  TIP3  OH2           7.9995342841        7.9228747147        2.5727185675  CLST         339          1.0000000000
      1016       339  TIP3  H1            7.6729692867        8.7153693553        3.1068705011  CLST         339          1.0000000000
      1017       339  TIP3  H2            7.3710492173        8.0095903420        1.8153360661  CLST         339          1.0000000000
      1018       340  TIP3  OH2          -4.6436735215      -11.6722869426      -11.2609440680  CLST         340          1.0000000000
      1019       340  TIP3  H1           -4.4654458520      -10.9749583797      -10.5678411825  CLST         340          1.0000000000
      1020       340  TIP3  H2           -4.4674768198      -12.4373657526      -10.6613071358  CLST         340          1.0000000000
      1021       341  TIP3  OH2          -6.8386783742        4.7498089281        9.4457603678  CLST         341          1.0000000000
      1022       341  TIP3  H1           -5.8902949765        4.5795819318        9.7258514156  CLST         341          1.0000000000
      1023       341  TIP3  H2           -7.1180723864        3.8391374252        9.3334336962  CLST         341          1.0000000000
      1024       342  TIP3  OH2          -4.6307701901      -11.0755678727       13.9022844386  CLST         342          1.0000000000
      1025       342  TIP3  H1           -5.2235768499      -11.0917536912       13.0794230229  CLST         342          1.0000000000
      1026       342  TIP3  H2           -5.0174278996      -11.1105944859       14.6377419123  CLST         342          1.0000000000
      1027       343  TIP3  OH2           1.2435296826       -9.1201920012       -9.9236068727  CLST         343          1.0000000000
      1028       343  TIP3  H1            1.1857449152       -8.1923448901      -10.3118736250  CLST         343          1.0000000000
      1029       343  TIP3  H2            1.8583156475       -9.5587037198      -10.5793218802  CLST         343          1.0000000000
      1030       344  TIP3  OH2           5.3399001463       -3.9390609734        6.3625688427  CLST         344          1.0000000000
      1031       344  TIP3  H1            4.8304023715       -4.6093583635        6.8818753121  CLST         344          1.0000000000
      1032       344  TIP3  H2            5.9858823760       -4.5434603732        5.9117158279  CLST         344          1.0000000000
      1033       345  TIP3  OH2          13.1697037137        7.1006554138        8.8280700017  CLST         345          1.0000000000
      1034       345  TIP3  H1           12.6096593691        6.7359463481        8.0794760701  CLST         345          1.0000000000
      1035       345  TIP3  H2           12.4179275747        7.4083568049        9.5036484083  CLST         345          1.0000000000
      1036       346  TIP3  OH2           9.5584404563        9.4067313690        0.9610732142  CLST         346          1.0000000000
      1037       346  TIP3  H1            9.7560997463       10.1263792010        1.5587352600  CLST         346          1.0000000000
      1038       346  TIP3  H2            9.2484155970        8.6678820148        1.5450457777  CLST         346          1.0000000000
      1039       347  TIP3  OH2          -5.1551418405        2.8639744193       -9.5805820585  CLST         347          1.0000000000
      1040       347  TIP3  H1           -5.9390300769        3.2508870678       -9.1015161414  CLST         347          1.0000000000
      1041       347  TIP3  H2           -4.4840826016        2.8823653144       -8.8618981106  CLST         347          1.0000000000
      1042       348  TIP3  OH2          -1.1717961506        6.1239695473        5.8149355812  CLST         348          1.0000000000
      1043       348  TIP3  H1           -1.3274567213        5.2743220222        5.2867290839  CLST         348          1.0000000000
      1044       348  TIP3  H2           -0.4623855533        6.5053258788        5.0841156651  CLST         348          1.0000000000
      1045       349  TIP3  OH2          -4.0802015695        5.1331253785       -2.6143775809  CLST         349          1.0000000000
      1046       349  TIP3  H1           -3.6616118666        4.8730212180       -3.4317210867  CLST         349          1.0000000000
      1047       349  TIP3  H2           -3.4370083614        5.9172155710       -2.4653380179  CLST         349          1.0000000000
      1048       350  TIP3  OH2          -2.7833266622        8.9282556942        5.1592236035  CLST         350          1.0000000000
      1049       350  TIP3  H1           -3.3095215163        8.5634699413        4.3782400900  CLST         350          1.0000000000
      1050       350  TIP3  H2           -2.3755343400        8.2623555914        5.6930115958  CLST         350          1.0000000000
      1051       351  TIP3  OH2           4.7454803938       -7.5878124168       -7.7246145965  CLST         351          1.0000000000
      1052       351  TIP3  H1            4.0000599415       -8.2380365537       -7.7227091880  CLST         351          1.0000000000
      1053       351  TIP3  H2            4.7762888143       -7.3828476498       -8.6977740200  CLST         351          1.0000000000
      1054       352  TIP3  OH2         -10.5187365354      -11.0383998589        1.8074937663  CLST         352          1.0000000000
      1055       352  TIP3  H1           -9.5561205450      -11.1897651589        1.7135957620  CLST         352          1.0000000000
      1056       352  TIP3  H2          -10.6513370902      -10.3063026042        1.1893914531  CLST         352          1.0000000000
      1057       353  TIP3  OH2          10.8211377011       -8.2371249812       -8.4558700959  CLST         353          1.0000000000
      1058       353  TIP3  H1            9.8389907103       -8.4177952177       -8.6934336683  CLST         353          1.0000000000
      1059       353  TIP3  H2           10.7220401696       -8.1610565986       -7.5064617338  CLST         353          1.0000000000
      1060       354  TIP3  OH2           6.9850748492      -10.6035898845        4.2900436288  CLST         354          1.0000000000
      1061       354  TIP3  H1            7.4278451293      -11.0077096165        5.1067254351  CLST         354          1.0000000000
      1062       354  TIP3  H2            6.8368362699       -9.6954236808        4.6928138058  CLST         354          1.0000000000
      1063       355  TIP3  OH2          -7.2490420701        9.0403826004       -8.9959617642  CLST         355          1.0000000000
      1064       355  TIP3  H1           -6.6784367439        9.7453258815       -8.6444643093  CLST         355          1.0000000000
      1065       355  TIP3  H2           -7.9595397306        9.5897129901       -9.3880876887  CLST         355          1.0000000000
      1066       356  TIP3  OH2          12.4730386986        0.9745434797       -2.1734882605  CLST         356          1.0000000000
      1067       356  TIP3  H1           11.4716504613        0.7807989916       -2.3856005017  CLST         356          1.0000000000
      1068       356  TIP3  H2           12.5673007744        0.4103097320       -1.3675560825  CLST         356          1.0000000000
      1069       357  TIP3  OH2          -0.5165536148       -0.4231695025       -1.8888889548  CLST         357          1.0000000000
      1070       357  TIP3  H1            0.2948523185       -0.8937305920       -2.2831722495  CLST         357          1.0000000000
      1071       357  TIP3  H2           -0.7533070589       -0.0193364783       -2.7675582694  CLST         357          1.0000000000
      1072       358  TIP3  OH2          -5.5203889183        6.9412882795       -7.4558693841  CLST         358          1.0000000000
      1073       358  TIP3  H1           -6.1675569717        7.2639033539       -8.1131555249  CLST         358          1.0000000000
      1074       358  TIP3  H2           -6.1058762919        6.5118935850       -6.8077523916  CLST         358          1.0000000000
      1075       359  TIP3  OH2          -4.9771737548       12.1682512082        6.0814461510  CLST         359          1.0000000000
      1076       359  TIP3  H1           -5.3129848278       12.0644355083        5.1344583206  CLST         359          1.0000000000
      1077       359  TIP3  H2           -4.0377160447       12.2060276474        5.8522369600  CLST         359          1.0000000000
      1078       360  TIP3  OH2          -6.8298841546        5.6351537597       -3.3287305844  CLST         360          1.0000000000
      1079       360  TIP3  H1           -7.1314317663        6.1536103658       -2.5636594194  CLST         360          1.0000000000
      1080       360  TIP3  H2           -5.8663144494        5.4980106887       -3.0993497100  CLST         360          1.0000000000
      1081       361  TIP3  OH2          -1.4941111008       -1.0386665330       10.2220638998  CLST         361          1.0000000000
      1082       361  TIP3  H1           -1.3984619202       -0.6766141019       11.1493142282  CLST         361          1.0000000000
      1083       361  TIP3  H2           -1.7252950903       -1.9538804361       10.5117136007  CLST         361          1.0000000000
      1084       362  TIP3  OH2         -10.5317488114        2.9950020172        0.7565329304  CLST         362          1.0000000000
      1085       362  TIP3  H1          -10.4370635453        3.5919252356       -0.0101446346  CLST         362          1.0000000000
      1086       362  TIP3  H2          -11.2272517841        2.3543256109        0.4448138269  CLST         362          1.0000000000
      1087       363  TIP3  OH2          10.6793175421        2.3791260716       10.2270834668  CLST         363          1.0000000000
      1088       363  TIP3  H1           11.1741324230        1.1759524549       10.1089102441  CLST         363          1.0000000000
      1089       363  TIP3  H2           11.5497629654        2.2288701901       10.1951093485  CLST         363          1.0000000000
      1090       364  TIP3  OH2           7.6554502015       -5.5661302020       -6.3101936223  CLST         364          1.0000000000
      1091       364  TIP3  H1            6.8173707688       -5.1984064817       -6.7344880750  CLST         364          1.0000000000
      1092       364  TIP3  H2            8.2541475259       -5.5702735725       -7.1062786643  CLST         364          1.0000000000
      1093       365  TIP3  OH2          -6.0996600119       -6.7715206238        2.6456883062  CLST         365          1.0000000000
      1094       365  TIP3  H1           -6.5976357106       -5.9201246836        2.6365028483  CLST         365          1.0000000000
      1095       365  TIP3  H2           -6.9060157479       -7.3269827785        2.8819849361  CLST         365          1.0000000000
      1096       366  TIP3  OH2           1.7968276559       -1.3394277819       -3.1495693903  CLST         366          1.0000000000
      1097       366  TIP3  H1            2.7208471080       -1.1742730945       -2.7894105868  CLST         366          1.0000000000
      1098       366  TIP3  H2            1.9629372572       -0.8725656399       -4.0310037196  CLST         366          1.0000000000
      1099       367  TIP3  OH2          -5.3596103659       11.7724362470       12.4286798366  CLST         367          1.0000000000
      1100       367  TIP3  H1           -6.2650526195       11.7374399931       12.0110518472  CLST         367          1.0000000000
      1101       367  TIP3  H2           -5.5952008755       12.3535268315       13.1145056220  CLST         367          1.0000000000
      1102       368  TIP3  OH2          -2.7309764938        6.4100215173        1.0668714828  CLST         368          1.0000000000
      1103       368  TIP3  H1           -2.7686630087        7.1806708449        0.4314214755  CLST         368          1.0000000000
      1104       368  TIP3  H2           -2.9830108375        6.9579431561        1.8395604109  CLST         368          1.0000000000
      1105       369  TIP3  OH2         -11.6339965497       -1.9688381741       -6.2953445611  CLST         369          1.0000000000
      1106       369  TIP3  H1          -10.8961962837       -2.6255121610       -6.1404279996  CLST         369          1.0000000000
      1107       369  TIP3  H2          -11.6938131720       -2.1420399077       -7.2650168860  CLST         369          1.0000000000
      1108       370  TIP3  OH2         -12.0218194681        5.5800616173      -11.6967619441  CLST         370          1.0000000000
      1109       370  TIP3  H1          -12.6360501341        4.6306927414      -12.8373916142  CLST         370          1.0000000000
      1110       370  TIP3  H2          -12.7271333526        6.1380299022      -11.1385547338  CLST         370          1.0000000000
      1111       371  TIP3  OH2           2.2856534633        7.8531071733        5.6640358964  CLST         371          1.0000000000
      1112       371  TIP3  H1            2.1422546864        7.5039744385        6.5658362567  CLST         371          1.0000000000
      1113       371  TIP3  H2            3.2744727068        8.0434899162        5.7191129384  CLST         371          1.0000000000
      1114       372  TIP3  OH2           8.2478707820       -7.7108763405        9.1677839642  CLST         372          1.0000000000
      1115       372  TIP3  H1            8.8008607048       -7.8179656242        8.4314288455  CLST         372          1.0000000000
      1116       372  TIP3  H2            8.8523438682       -7.8679758554        9.9559464168  CLST         372          1.0000000000
      1117       373  TIP3  OH2          11.0019315310       -0.4285419712        6.4968722905  CLST         373          1.0000000000
      1118       373  TIP3  H1           11.4349648218        0.1758558095        5.9150842178  CLST         373          1.0000000000
      1119       373  TIP3  H2           10.1362318131       -0.4416186497        6.1148021653  CLST         373          1.0000000000
      1120       374  TIP3  OH2          -9.2999449793        4.5295552581      -12.1244199015  CLST         374          1.0000000000
      1121       374  TIP3  H1           -9.4680733367        5.1443011250      -12.8375290615  CLST         374          1.0000000000
      1122       374  TIP3  H2          -10.1830834633        4.7061223237      -11.7141697372  CLST         374          1.0000000000
      1123       375  TIP3  OH2           9.9634730729       -5.4114056622       -2.7404058610  CLST         375          1.0000000000
      1124       375  TIP3  H1           10.4857402478       -4.9630409117       -3.4678587446  CLST         375          1.0000000000
      1125       375  TIP3  H2           10.0614163022       -6.3096401943       -3.1238628512  CLST         375          1.0000000000
      1126       376  TIP3  OH2          -2.1966076503      -11.1396352586       12.0716547653  CLST         376          1.0000000000
      1127       376  TIP3  H1           -2.8084570088      -11.1447324251       12.8525327715  CLST         376          1.0000000000
      1128       376  TIP3  H2           -2.8055218335      -11.6841021473       11.5236485958  CLST         376          1.0000000000
      1129       377  TIP3  OH2         -10.1337368274       12.7590670565       10.3408314808  CLST         377          1.0000000000
      1130       377  TIP3  H1           -9.1792545977       12.4515906794       10.5724592982  CLST         377          1.0000000000
      1131       377  TIP3  H2          -10.0346554168       13.2938520259        9.5097658681  CLST         377          1.0000000000
      1132       378  TIP3  OH2           2.1677117704       -8.0037259150        7.4072161537  CLST         378          1.0000000000
      1133       378  TIP3  H1            2.4052599016       -7.1307027121        7.7734674891  CLST         378          1.0000000000
      1134       378  TIP3  H2            1.4848447148       -8.3848541576        7.9393487297  CLST         378          1.0000000000
      1135       379  TIP3  OH2          -9.3738392522        9.4697046424       -1.2380783082  CLST         379          1.0000000000
      1136       379  TIP3  H1           -9.0227099810        9.5833319319       -0.3845468486  CLST         379          1.0000000000
      1137       379  TIP3  H2           -9.7452456126       10.3398570483       -1.4843173981  CLST         379          1.0000000000
      1138       380  TIP3  OH2           3.0105135463       -4.1532687207      -11.3134460153  CLST         380          1.0000000000
      1139       380  TIP3  H1            2.6425995052       -3.3105503645      -11.7799255560  CLST         380          1.0000000000
      1140       380  TIP3  H2            3.3101074015       -4.6578042333      -12.1099777642  CLST         380          1.0000000000
      1141       381  TIP3  OH2          10.1677864266        4.3043838497        3.4779185254  CLST         381          1.0000000000
      1142       381  TIP3  H1            9.4917905021        4.9698631387        3.8894959202  CLST         381          1.0000000000
      1143       381  TIP3  H2           10.9055727699        4.9916481411        3.6148915285  CLST         381          1.0000000000
      1144       382  TIP3  OH2           1.9472202529       -5.2901812953        5.5556594451  CLST         382          1.0000000000
      1145       382  TIP3  H1            2.5139125411       -5.1561134922        6.3692384556  CLST         382          1.0000000000
      1146       382  TIP3  H2            2.5884168006       -5.9207319376        5.1299633556  CLST         382          1.0000000000
      1147       383  TIP3  OH2          10.2387668748        8.9107153999        4.8030787057  CLST         383          1.0000000000
      1148       383  TIP3  H1            9.3473271853        8.9886410977        4.4087419706  CLST         383          1.0000000000
      1149       383  TIP3  H2           10.3121455033        9.8945059767        5.0303213890  CLST         383          1.0000000000
      1150       384  TIP3  OH2          -3.4150170706       -1.7642744179       -7.9798890678  CLST         384          1.0000000000
      1151       384  TIP3  H1           -2.9570282860       -2.6487975317       -8.0681997402  CLST         384          1.0000000000
      1152       384  TIP3  H2           -2.7010954649       -1.3622845996       -7.3854536639  CLST         384          1.0000000000
      1153       385  TIP3  OH2           3.6464531404      -11.8334651122       -0.7405042552  CLST         385          1.0000000000
      1154       385  TIP3  H1            4.6117869928      -12.1309778937       -0.2831952720  CLST         385          1.0000000000
      1155       385  TIP3  H2            4.2664413119      -10.8077662251        0.3812308210  CLST         385          1.0000000000
      1156       386  TIP3  OH2          -4.2261355856        9.2132662888       -6.0811606267  CLST         386          1.0000000000
      1157       386  TIP3  H1           -4.7765439557        8.3926647949       -6.3017606527  CLST         386          1.0000000000
      1158       386  TIP3  H2           -4.0375555734        9.4969885851       -6.9856219116  CLST         386          1.0000000000
      1159       387  TIP3  OH2          -9.7722814497       10.4390788934        2.6680325162  CLST         387          1.0000000000
      1160       387  TIP3  H1          -10.6311581141       10.2552748474        2.2112194799  CLST         387          1.0000000000
      1161       387  TIP3  H2           -9.1854705852       10.0875381406        1.9406178373  CLST         387          1.0000000000
      1162       388  TIP3  OH2          -1.8281862358      -12.3693140974        5.9708531803  CLST         388          1.0000000000
      1163       388  TIP3  H1           -2.2316373035      -11.5587060439        5.6056649735  CLST         388          1.0000000000
      1164       388  TIP3  H2           -1.7051601057      -12.2045233713        6.9547235897  CLST         388          1.0000000000
      1165       389  TIP3  OH2          -8.0628007793        3.5088509909       -3.7684325538  CLST         389          1.0000000000
      1166       389  TIP3  H1           -7.5555754732        4.3389323030       -3.5337488687  CLST         389          1.0000000000
      1167       389  TIP3  H2           -8.9454352611        3.9330987380       -3.6645271878  CLST         389          1.0000000000
      1168       390  TIP3  OH2          -5.7134511715       -3.9586065718        4.6518604825  CLST         390          1.0000000000
      1169       390  TIP3  H1           -5.2869838284       -2.9921942604        4.6757236938  CLST         390          1.0000000000
      1170       390  TIP3  H2           -4.9085203019       -4.3437731968        4.3651509472  CLST         390          1.0000000000
      1171       391  TIP3  OH2          -8.8027375839       -8.8374127831       -6.1298631037  CLST         391          1.0000000000
      1172       391  TIP3  H1           -9.3893869162       -9.4035597389       -6.8047393919  CLST         391          1.0000000000
      1173       391  TIP3  H2           -8.1993754686       -9.6781111762       -6.0161843943  CLST         391          1.0000000000
      1174       392  TIP3  OH2           1.1060811117       -2.0448728570        9.8675594110  CLST         392          1.0000000000
      1175       392  TIP3  H1            0.6140486687       -2.8842072873        9.9762885553  CLST         392          1.0000000000
      1176       392  TIP3  H2            0.2994298042       -1.4471070928        9.8859433885  CLST         392          1.0000000000
      1177       393  TIP3  OH2          11.0159700950      -12.1367647538       -0.7801270369  CLST         393          1.0000000000
      1178       393  TIP3  H1           11.4867407818      -11.2289393632       -0.7685762468  CLST         393          1.0000000000
      1179       393  TIP3  H2           11.6949233459      -12.6066116805       -1.3364417759  CLST         393          1.0000000000
      1180       394  TIP3  OH2           0.4187119285       11.8430569644       -8.4553048572  CLST         394          1.0000000000
      1181       394  TIP3  H1            0.8679567992       12.1346596019       -7.6467593626  CLST         394          1.0000000000
      1182       394  TIP3  H2            0.7430465551       10.8662335448       -8.3918556327  CLST         394          1.0000000000
      1183       395  TIP3  OH2           6.8826430361        7.6401121005       -4.4563842981  CLST         395          1.0000000000
      1184       395  TIP3  H1            6.0208198775        8.1173351386       -4.5614985965  CLST         395          1.0000000000
      1185       395  TIP3  H2            6.8365118015        7.2139169927       -5.3560879875  CLST         395          1.0000000000
      1186       396  TIP3  OH2          -1.1687003475       -9.8926350446       -9.0991368461  CLST         396          1.0000000000
      1187       396  TIP3  H1           -1.0546767248       -9.8511540492       -8.1470574164  CLST         396          1.0000000000
      1188       396  TIP3  H2           -0.2395235967       -9.5258858089       -9.4146723797  CLST         396          1.0000000000
      1189       397  TIP3  OH2          11.4230484605        7.2452534786       -8.8726159930  CLST         397          1.0000000000
      1190       397  TIP3  H1           11.5806777014        6.4857501694       -8.2481152616  CLST         397          1.0000000000
      1191       397  TIP3  H2           10.5032918144        7.4326179353       -8.5586105589  CLST         397          1.0000000000
      1192       398  TIP3  OH2          10.6014721693        7.6670885688       -4.8907135278  CLST         398          1.0000000000
      1193       398  TIP3  H1           10.2261009145        8.2132436458       -4.1676374146  CLST         398          1.0000000000
      1194       398  TIP3  H2           11.2972000634        7.1597625289       -4.3439927344  CLST         398          1.0000000000
      1195       399  TIP3  OH2           1.8555313203       11.0939368274        4.8883947324  CLST         399          1.0000000000
      1196       399  TIP3  H1            1.1371822785       10.4681275860        4.9427805707  CLST         399          1.0000000000
      1197       399  TIP3  H2            2.3623098231       10.8150170149        5.7184788705  CLST         399          1.0000000000
      1198       400  TIP3  OH2           4.0556324260       -2.9023380463       -5.1937613337  CLST         400          1.0000000000
      1199       400  TIP3  H1            4.8287569952       -2.9798464574       -4.5271757579  CLST         400          1.0000000000
      1200       400  TIP3  H2            4.3018570230       -3.5651948265       -5.8614511707  CLST         400          1.0000000000
      1201       401  TIP3  OH2         -15.1846553813       10.1715070517        5.5127765496  CLST         401          1.0000000000
      1202       401  TIP3  H1          -14.6560314073       10.6778884655        6.1968818194  CLST         401          1.0000000000
      1203       401  TIP3  H2          -15.5243190252        9.4363909837        6.1628111789  CLST         401          1.0000000000
      1204       402  TIP3  OH2           1.6584202602       -1.6626901605       12.7050389716  CLST         402          1.0000000000
      1205       402  TIP3  H1            1.1735853484       -2.5194997553       12.7559498811  CLST         402          1.0000000000
      1206       402  TIP3  H2            1.9728501649       -1.8076820152       11.7891787017  CLST         402          1.0000000000
      1207       403  TIP3  OH2          -2.0835099797       -6.9679023407       -0.7634767066  CLST         403          1.0000000000
      1208       403  TIP3  H1           -1.7070136642       -6.5787233110       -1.5696294523  CLST         403          1.0000000000
      1209       403  TIP3  H2           -2.0359872172       -7.9111515194       -1.1884628546  CLST         403          1.0000000000
      1210       404  TIP3  OH2          -4.8373114647       -2.6517445969        9.1299535521  CLST         404          1.0000000000
      1211       404  TIP3  H1           -5.2484720412       -3.0095863418        9.9788497430  CLST         404          1.0000000000
      1212       404  TIP3  H2           -5.1879415643       -3.4411332906        8.5868409246  CLST         404          1.0000000000
      1213       405  TIP3  OH2         -12.0447719821        7.1319968117       11.2957121604  CLST         405          1.0000000000
      1214       405  TIP3  H1          -11.9249644073        6.2065949945       10.8988518119  CLST         405          1.0000000000
      1215       405  TIP3  H2          -12.7094124834        6.8547356818       11.9102037894  CLST         405          1.0000000000
      1216       406  TIP3  OH2           1.0612670036        7.6066034861      -12.2438169464  CLST         406          1.0000000000
      1217       406  TIP3  H1            1.1345997880        8.6120192584      -12.3986976741  CLST         406          1.0000000000
      1218       406  TIP3  H2            1.3880102454        7.5905877354      -11.2641247810  CLST         406          1.0000000000
      1219       407  TIP3  OH2          10.5092294954      -13.2874885441        5.1624169863  CLST         407          1.0000000000
      1220       407  TIP3  H1           10.5727613470      -13.4829339894        4.2049082995  CLST         407          1.0000000000
      1221       407  TIP3  H2           11.2544582480      -12.6066824392        5.2452388854  CLST         407          1.0000000000
      1222       408  TIP3  OH2          -2.9895348007      -11.5947766687        2.0090410177  CLST         408          1.0000000000
      1223       408  TIP3  H1           -2.2066286193      -11.0440499821        1.9229933731  CLST         408          1.0000000000
      1224       408  TIP3  H2           -2.5709646986      -12.4131719915        2.2470619923  CLST         408          1.0000000000
      1225       409  TIP3  OH2           1.0375623951       -9.6265824601        9.7327401950  CLST         409          1.0000000000
      1226       409  TIP3  H1            0.6038005367       -9.2012852468       10.5065461379  CLST         409          1.0000000000
      1227       409  TIP3  H2            1.5153203247      -10.2854902649       10.2828879110  CLST         409          1.0000000000
      1228       410  TIP3  OH2           9.8645306903       -7.0240462808       -5.2487054739  CLST         410          1.0000000000
      1229       410  TIP3  H1            8.9185667547       -6.8133728936       -5.5911835412  CLST         410          1.0000000000
      1230       410  TIP3  H2           10.2332170317       -6.1264244728       -5.5091527401  CLST         410          1.0000000000
      1231       411  TIP3  OH2         -10.0886000522       -2.3827335443       -1.5854587973  CLST         411          1.0000000000
      1232       411  TIP3  H1           -9.2988148040       -2.2232391546       -1.1625477699  CLST         411          1.0000000000
      1233       411  TIP3  H2           -9.8283409075       -3.0869029938       -2.2598620553  CLST         411          1.0000000000
      1234       412  TIP3  OH2           6.6990040531      -10.5127866461      -12.0132748223  CLST         412          1.0000000000
      1235       412  TIP3  H1            5.9696173385      -11.0133441964      -11.6560301536  CLST         412          1.0000000000
      1236       412  TIP3  H2            7.4636785479      -11.1647256235      -11.7916519164  CLST         412          1.0000000000
      1237       413  TIP3  OH2           6.9982879345       13.1248308474        0.3558413413  CLST         413          1.0000000000
      1238       413  TIP3  H1            7.5691431832       12.4376271820       -0.1435369561  CLST         413          1.0000000000
      1239       413  TIP3  H2            7.8526371714       13.5556702543        0.6885590698  CLST         413          1.0000000000
      1240       414  TIP3  OH2           1.6671228892       -2.3450526025      -12.5306325377  CLST         414          1.0000000000
      1241       414  TIP3  H1            0.7737095949       -2.0746296511      -12.2225138691  CLST         414          1.0000000000
      1242       414  TIP3  H2            1.6022284320       -2.5201261187      -13.4695025552  CLST         414          1.0000000000
      1243       415  TIP3  OH2           4.0208372193        5.1155135017       -8.2984471538  CLST         415          1.0000000000
      1244       415  TIP3  H1            3.3869115815        3.9379061795       -7.9669927957  CLST         415          1.0000000000
      1245       415  TIP3  H2            4.5494235780        4.0458720785       -8.4456367577  CLST         415          1.0000000000
      1246       416  TIP3  OH2           5.6218471169       12.3277361298       -7.7731246706  CLST         416          1.0000000000
      1247       416  TIP3  H1            5.0786707473       13.0846210664       -7.9723747520  CLST         416          1.0000000000
      1248       416  TIP3  H2            6.4786264407       12.3845193112       -8.1480600081  CLST         416          1.0000000000
      1249       417  TIP3  OH2          12.5178719426      -11.3550909082        2.7886552982  CLST         417          1.0000000000
      1250       417  TIP3  H1           11.7018646633      -11.7631759962        2.4364344689  CLST         417          1.0000000000
      1251       417  TIP3  H2           12.5734841670      -10.5477590152        2.2816271518  CLST         417          1.0000000000
      1252       418  TIP3  OH2          -9.1883398314       -1.5556474731        8.4145777031  CLST         418          1.0000000000
      1253       418  TIP3  H1           -8.7060837901       -1.1984055637        7.6118316200  CLST         418          1.0000000000
      1254       418  TIP3  H2           -9.0299334216       -0.7505165887        8.9699399336  CLST         418          1.0000000000
      1255       419  TIP3  OH2          14.5224297243        0.1279471611       -5.9342829681  CLST         419          1.0000000000
      1256       419  TIP3  H1           13.8222219118        0.8105864194       -5.1399828386  CLST         419          1.0000000000
      1257       419  TIP3  H2           14.9166167734        1.1495860815       -5.1528127981  CLST         419          1.0000000000
      1258       420  TIP3  OH2          -8.2888171172       -8.2223878036        3.4165581845  CLST         420          1.0000000000
      1259       420  TIP3  H1           -9.0145286087       -7.7626706680        2.9142912046  CLST         420          1.0000000000
      1260       420  TIP3  H2           -8.6675172736       -9.0999271859        3.4355866953  CLST         420          1.0000000000
      1261       421  TIP3  OH2           3.5277830808       -6.1900714789      -13.0763595210  CLST         421          1.0000000000
      1262       421  TIP3  H1            4.4496660638       -6.4999646069      -13.1033624329  CLST         421          1.0000000000
      1263       421  TIP3  H2            3.1223943893       -7.0970407689      -13.1731076453  CLST         421          1.0000000000
      1264       422  TIP3  OH2          -2.0999127368       -9.3878201439       -1.8446039353  CLST         422          1.0000000000
      1265       422  TIP3  H1           -1.3980261987       -9.9519542098       -2.2117543005  CLST         422          1.0000000000
      1266       422  TIP3  H2           -2.8539639318      -10.0267704106       -1.8820101809  CLST         422          1.0000000000
      1267       423  TIP3  OH2           1.7620865543        4.8128764893       -4.0709202258  CLST         423          1.0000000000
      1268       423  TIP3  H1            2.5790070702        5.2831980261       -4.4369088029  CLST         423          1.0000000000
      1269       423  TIP3  H2            2.0591233639        4.5065437573       -3.1965172629  CLST         423          1.0000000000
      1270       424  TIP3  OH2          -8.9589686832        4.1439881795        4.3601223766  CLST         424          1.0000000000
      1271       424  TIP3  H1           -8.8900606849        3.4607381740        3.6550081884  CLST         424          1.0000000000
      1272       424  TIP3  H2           -8.1193647492        4.6112288374        4.3736110635  CLST         424          1.0000000000
      1273       425  TIP3  OH2           8.3660891525      -12.5710993620        8.3805795268  CLST         425          1.0000000000
      1274       425  TIP3  H1            8.2688922857      -12.2405691400        7.4301989936  CLST         425          1.0000000000
      1275       425  TIP3  H2            8.3187811360      -11.6668553796        8.7746906181  CLST         425          1.0000000000
      1276       426  TIP3  OH2           8.2267926263        2.5237618921        8.2594777880  CLST         426          1.0000000000
      1277       426  TIP3  H1            9.0646112767        2.2325710757        8.6101872111  CLST         426          1.0000000000
      1278       426  TIP3  H2            8.4297280808        3.4924428360        8.1090883151  CLST         426          1.0000000000
      1279       427  TIP3  OH2          11.2256733172        7.5136432580       10.7095291807  CLST         427          1.0000000000
      1280       427  TIP3  H1           11.3584031384        7.7033022508       11.6720069635  CLST         427          1.0000000000
      1281       427  TIP3  H2           10.4339392507        6.9051823521       10.7170377519  CLST         427          1.0000000000
      1282       428  TIP3  OH2          12.5019316634        7.6110786532        1.1144506864  CLST         428          1.0000000000
      1283       428  TIP3  H1           12.2739666038        8.2859639761        0.3683677026  CLST         428          1.0000000000
      1284       428  TIP3  H2           13.2668595173        7.2468814681        0.6185097090  CLST         428          1.0000000000
      1285       429  TIP3  OH2          12.0271913946       -9.7726082132       -0.8619700400  CLST         429          1.0000000000
      1286       429  TIP3  H1           12.2153670354       -9.4261688094        0.0132615878  CLST         429          1.0000000000
      1287       429  TIP3  H2           11.6208294409       -9.1210995932       -1.3943345196  CLST         429          1.0000000000
      1288       430  TIP3  OH2           9.8716510736       -6.7439102615        3.6601867667  CLST         430          1.0000000000
      1289       430  TIP3  H1            9.7834476606       -7.2117541591        2.7554049460  CLST         430          1.0000000000
      1290       430  TIP3  H2           10.8843733920       -6.5869777627        3.6312905796  CLST         430          1.0000000000
      1291       431  TIP3  OH2         -12.7725962527        9.3732044434       -2.4764804557  CLST         431          1.0000000000
      1292       431  TIP3  H1          -13.4121928407        9.3496705868       -3.0532500829  CLST         431          1.0000000000
      1293       431  TIP3  H2          -13.3254289573        9.2033326007       -1.6050396656  CLST         431          1.0000000000
      1294       432  TIP3  OH2           5.4587633910        8.5358110707      -10.1142818217  CLST         432          1.0000000000
      1295       432  TIP3  H1            5.8141721534        8.8591725699       -9.2325947778  CLST         432          1.0000000000
      1296       432  TIP3  H2            4.6650054751        9.0999016386      -10.0465466966  CLST         432          1.0000000000
      1297       433  TIP3  OH2          -0.7570421607        8.1425799974        7.7346717339  CLST         433          1.0000000000
      1298       433  TIP3  H1           -1.6375400349        8.4924835802        8.0443981827  CLST         433          1.0000000000
      1299       433  TIP3  H2           -1.0719559533        7.3361907363        7.2871776696  CLST         433          1.0000000000
      1300       434  TIP3  OH2          -7.2342402641        0.7246959186        3.6907582828  CLST         434          1.0000000000
      1301       434  TIP3  H1           -7.6794491702        1.3806176076        3.0664816717  CLST         434          1.0000000000
      1302       434  TIP3  H2           -7.8140880569       -0.0631915580        3.5386167641  CLST         434          1.0000000000
      1303       435  TIP3  OH2           9.9641180740       -0.5060479154       -7.3513838211  CLST         435          1.0000000000
      1304       435  TIP3  H1            9.8140322247       -0.7698423175       -6.4154014314  CLST         435          1.0000000000
      1305       435  TIP3  H2           10.7946401577       -0.0890736943       -7.1149812518  CLST         435          1.0000000000
      1306       436  TIP3  OH2           3.8487836837       10.4751278695       -9.0723725829  CLST         436          1.0000000000
      1307       436  TIP3  H1            4.1791023205       11.1675659330       -8.5021382283  CLST         436          1.0000000000
      1308       436  TIP3  H2            2.9648451955       10.2776554613       -8.7791915315  CLST         436          1.0000000000
      1309       437  TIP3  OH2          -8.2431808752       -0.9446646610       -7.8971998617  CLST         437          1.0000000000
      1310       437  TIP3  H1           -8.5301124880       -0.6542901689       -8.8007095177  CLST         437          1.0000000000
      1311       437  TIP3  H2           -7.3123937944       -0.6501203953       -7.8860432458  CLST         437          1.0000000000
      1312       438  TIP3  OH2          -3.3712936433        5.3746886954       -8.1626015137  CLST         438          1.0000000000
      1313       438  TIP3  H1           -4.1699315337        5.8825130022       -7.8842213352  CLST         438          1.0000000000
      1314       438  TIP3  H2           -3.3780908075        5.7696726536       -9.0944643953  CLST         438          1.0000000000
      1315       439  TIP3  OH2          14.2117464856        1.6142630609       -4.3621474785  CLST         439          1.0000000000
      1316       439  TIP3  H1           13.9297052493        2.5596746029       -4.1737780370  CLST         439          1.0000000000
      1317       439  TIP3  H2           14.2238565184        1.4191528303       -3.3878640882  CLST         439          1.0000000000
      1318       440  TIP3  OH2           1.1821817944      -12.8417500904      -11.2991622167  CLST         440          1.0000000000
      1319       440  TIP3  H1           -0.7015480033      -12.6116079287      -11.1337911900  CLST         440          1.0000000000
      1320       440  TIP3  H2            0.9024155451      -13.6590744980      -11.8468976924  CLST         440          1.0000000000
      1321       441  TIP3  OH2          -1.5821010077       -4.3096925945        3.2512417136  CLST         441          1.0000000000
      1322       441  TIP3  H1           -1.8441031324       -3.5165312333        3.4418886452  CLST         441          1.0000000000
      1323       441  TIP3  H2           -1.2343913216       -4.6850552933        4.1761985461  CLST         441          1.0000000000
      1324       442  TIP3  OH2           3.1019675104       -9.7889565428       -8.1109001897  CLST         442          1.0000000000
      1325       442  TIP3  H1            3.7384184876      -10.2577372420       -8.6661713193  CLST         442          1.0000000000
      1326       442  TIP3  H2            2.3337315966       -9.5300440460       -8.6718675561  CLST         442          1.0000000000
      1327       443  TIP3  OH2           1.0587339033       10.3800025548      -12.8848305153  CLST         443          1.0000000000
      1328       443  TIP3  H1            1.4809954060       11.0576613195      -12.2111417557  CLST         443          1.0000000000
      1329       443  TIP3  H2            1.3949785959       10.4019180011      -13.6326662800  CLST         443          1.0000000000
      1330       444  TIP3  OH2          -8.0001451147        1.2703415529       -1.8106611997  CLST         444          1.0000000000
      1331       444  TIP3  H1           -8.1070306898        2.0440834796       -2.4127660860  CLST         444          1.0000000000
      1332       444  TIP3  H2           -7.6609458188        1.7553913456       -1.0049756609  CLST         444          1.0000000000
      1333       445  TIP3  OH2         -11.6121649624       -5.1969420663        6.1276039380  CLST         445          1.0000000000
      1334       445  TIP3  H1          -11.6200322530       -4.2158998768        5.8984924921  CLST         445          1.0000000000
      1335       445  TIP3  H2          -11.5707551879       -5.1642936929        7.1285766237  CLST         445          1.0000000000
      1336       446  TIP3  OH2          -2.8920813986        4.6687494437       -5.3076780795  CLST         446          1.0000000000
      1337       446  TIP3  H1           -3.0826203132        4.9870352303       -6.2535310566  CLST         446          1.0000000000
      1338       446  TIP3  H2           -2.0048123668        5.0561691070       -5.1411345623  CLST         446          1.0000000000
      1339       447  TIP3  OH2          -4.9745427145      -12.6759841681       -3.8104578741  CLST         447          1.0000000000
      1340       447  TIP3  H1           -5.3188650179      -13.4443267988       -3.4465316048  CLST         447          1.0000000000
      1341       447  TIP3  H2           -4.5689365715      -12.2000957810       -3.0419256333  CLST         447          1.0000000000
      1342       448  TIP3  OH2           7.4154475762        9.6303663629        4.6754683729  CLST         448          1.0000000000
      1343       448  TIP3  H1            7.5874608302        9.5139478762        5.6615993941  CLST         448          1.0000000000
      1344       448  TIP3  H2            6.6231363458       10.2092490935        4.7915738581  CLST         448          1.0000000000
      1345       449  TIP3  OH2           4.3899703126        5.1956685498        8.5750786685  CLST         449          1.0000000000
      1346       449  TIP3  H1            5.0103194534        4.6285499333        9.0916738124  CLST         449          1.0000000000
      1347       449  TIP3  H2            4.2695946824        4.7822488606        7.6979955503  CLST         449          1.0000000000
      1348       450  TIP3  OH2          -4.0644940237        0.2781926836       -2.1315866989  CLST         450          1.0000000000
      1349       450  TIP3  H1           -3.4674132886        0.9516285799       -2.5041461532  CLST         450          1.0000000000
      1350       450  TIP3  H2           -3.4621599576       -0.1831911930       -1.5560392459  CLST         450          1.0000000000
      1351       451  TIP3  OH2          13.3410782552       -1.7576689812       -5.7916901844  CLST         451          1.0000000000
      1352       451  TIP3  H1           14.2995189415       -0.1558274432       -6.7401308964  CLST         451          1.0000000000
      1353       451  TIP3  H2           14.4058268553       -1.0163020047       -5.8845282141  CLST         451          1.0000000000
      1354       452  TIP3  OH2           8.5153430931        5.1063157266        8.0389553698  CLST         452          1.0000000000
      1355       452  TIP3  H1            7.7753298131        5.7553115897        7.9223544804  CLST         452          1.0000000000
      1356       452  TIP3  H2            9.1668642546        5.7140933918        7.5490124903  CLST         452          1.0000000000
      1357       453  TIP3  OH2           7.0571141769        2.7425580735       -6.0267558858  CLST         453          1.0000000000
      1358       453  TIP3  H1            6.2437812588        2.5573064040       -5.4944269318  CLST         453          1.0000000000
      1359       453  TIP3  H2            6.6043361418        2.7179594178       -6.8865071606  CLST         453          1.0000000000
      1360       454  TIP3  OH2           1.1026698081        5.5087845211        1.9012280472  CLST         454          1.0000000000
      1361       454  TIP3  H1            0.2259497603        5.0028486576        1.9208479770  CLST         454          1.0000000000
      1362       454  TIP3  H2            0.9547030058        6.1202032223        2.6350845457  CLST         454          1.0000000000
      1363       455  TIP3  OH2          -1.1195052633        0.8481768529      -10.3745337581  CLST         455          1.0000000000
      1364       455  TIP3  H1           -1.5426011055        1.1965002483       -9.5417332189  CLST         455          1.0000000000
      1365       455  TIP3  H2           -0.8110970586        1.8109074399      -10.5812896738  CLST         455          1.0000000000
      1366       456  TIP3  OH2           5.2863856547       11.1806294001        5.1958226158  CLST         456          1.0000000000
      1367       456  TIP3  H1            4.5765571960       11.4701941374        4.5756788774  CLST         456          1.0000000000
      1368       456  TIP3  H2            4.6967678411       11.0699595704        5.9917779251  CLST         456          1.0000000000
      1369       457  TIP3  OH2          -4.8829001761       -7.7619888677        4.9358873632  CLST         457          1.0000000000
      1370       457  TIP3  H1           -5.6010177496       -7.8427727540        5.5743249937  CLST         457          1.0000000000
      1371       457  TIP3  H2           -5.3337131570       -7.3976015334        4.1222418834  CLST         457          1.0000000000
      1372       458  TIP3  OH2           7.9638837058       -6.5637241439      -11.3501778242  CLST         458          1.0000000000
      1373       458  TIP3  H1            8.9483778854       -6.4099899569      -11.5977032605  CLST         458          1.0000000000
      1374       458  TIP3  H2            7.8948276798       -5.6065899412      -11.0775744183  CLST         458          1.0000000000
      1375       459  TIP3  OH2           6.6288326853       -9.8729896461       -7.7349446552  CLST         459          1.0000000000
      1376       459  TIP3  H1            6.1340372041       -9.0430140464       -7.4788581553  CLST         459          1.0000000000
      1377       459  TIP3  H2            7.3818253711       -9.3940425984       -8.2363865946  CLST         459          1.0000000000
      1378       460  TIP3  OH2           9.2005104715       -2.1519675051       -2.6780508333  CLST         460          1.0000000000
      1379       460  TIP3  H1            9.7137427110       -2.6976983903       -2.1283005483  CLST         460          1.0000000000
      1380       460  TIP3  H2            9.9099576506       -1.8012094290       -3.2684118511  CLST         460          1.0000000000
      1381       461  TIP3  OH2          -1.3783213696      -12.6859011960       -5.2976332319  CLST         461          1.0000000000
      1382       461  TIP3  H1           -0.7650951823      -12.6874359470       -6.0605516270  CLST         461          1.0000000000
      1383       461  TIP3  H2           -0.8786702295      -13.0675341972       -4.5918980833  CLST         461          1.0000000000
      1384       462  TIP3  OH2          -0.0448331599        5.3392580642      -12.8528695702  CLST         462          1.0000000000
      1385       462  TIP3  H1            0.3697003188        6.2280375404      -12.5498365708  CLST         462          1.0000000000
      1386       462  TIP3  H2            0.6424025242        4.9732590090      -13.3096596310  CLST         462          1.0000000000
      1387       463  TIP3  OH2          -1.6041471166        1.7866480732       -7.8563172826  CLST         463          1.0000000000
      1388       463  TIP3  H1           -1.3978541047        0.9350708089       -7.3953777738  CLST         463          1.0000000000
      1389       463  TIP3  H2           -2.5091952566        1.9192564027       -7.5144298978  CLST         463          1.0000000000
      1390       464  TIP3  OH2          -6.7128416480        6.2704293626        4.2752783480  CLST         464          1.0000000000
      1391       464  TIP3  H1           -6.0230118355        5.9162378671        4.6926963062  CLST         464          1.0000000000
      1392       464  TIP3  H2           -7.0562588085        6.9617764980        4.9276621895  CLST         464          1.0000000000
      1393       465  TIP3  OH2          -4.6579859345      -12.4574433997        6.1870596379  CLST         465          1.0000000000
      1394       465  TIP3  H1           -3.7612578878      -12.8535286830        5.9586456075  CLST         465          1.0000000000
      1395       465  TIP3  H2           -4.2822117549      -11.5315724946        6.2886970463  CLST         465          1.0000000000
      1396       466  TIP3  OH2          -2.3126302623        9.0737634371       -4.3443670711  CLST         466          1.0000000000
      1397       466  TIP3  H1           -2.9936202104        9.0955255477       -5.0630556293  CLST         466          1.0000000000
      1398       466  TIP3  H2           -2.5315723589        9.9349916943       -3.8956473597  CLST         466          1.0000000000
      1399       467  TIP3  OH2           8.2598118581        6.0446301360        4.5521188602  CLST         467          1.0000000000
      1400       467  TIP3  H1            8.6362957844        6.6451069532        5.2805980498  CLST         467          1.0000000000
      1401       467  TIP3  H2            8.1469853303        6.7421651078        3.8294912215  CLST         467          1.0000000000
      1402       468  TIP3  OH2          -0.4875800825      -12.5046242909       10.4536878954  CLST         468          1.0000000000
      1403       468  TIP3  H1           -0.7481491943      -12.0116344896       11.2637453031  CLST         468          1.0000000000
      1404       468  TIP3  H2            0.4744694597      -12.4140440986       10.5526676703  CLST         468          1.0000000000
      1405       469  TIP3  OH2           5.5654301176        8.1328280017       14.2678655656  CLST         469          1.0000000000
      1406       469  TIP3  H1            6.3528288125        8.5214040893       13.7825853505  CLST         469          1.0000000000
      1407       469  TIP3  H2            4.9413573259        8.7986391049       13.8784163800  CLST         469          1.0000000000
      1408       470  TIP3  OH2         -11.0755625601       12.6943061771        0.6947201083  CLST         470          1.0000000000
      1409       470  TIP3  H1          -10.8406028318       12.7643836761       -0.2231701015  CLST         470          1.0000000000
      1410       470  TIP3  H2          -11.5484081661       11.8151074096        0.7823362336  CLST         470          1.0000000000
      1411       471  TIP3  OH2          -4.1307204665        9.4969115907       -8.8004921814  CLST         471          1.0000000000
      1412       471  TIP3  H1           -4.4350802186        8.5743781757       -8.9908538319  CLST         471          1.0000000000
      1413       471  TIP3  H2           -4.5113789062        9.9299256063       -9.6086269587  CLST         471          1.0000000000
      1414       472  TIP3  OH2         -12.0818584756        3.9357329976        2.8403104182  CLST         472          1.0000000000
      1415       472  TIP3  H1          -12.4471455564        3.0422449942        3.1170053669  CLST         472          1.0000000000
      1416       472  TIP3  H2          -11.7384728593        3.6015699406        2.0039879301  CLST         472          1.0000000000
      1417       473  TIP3  OH2           5.4494920114        0.8271668228       10.2826988734  CLST         473          1.0000000000
      1418       473  TIP3  H1            6.0817327206        1.2328606730       10.8777707500  CLST         473          1.0000000000
      1419       473  TIP3  H2            5.0425263176        1.6421060010        9.8443303188  CLST         473          1.0000000000
      1420       474  TIP3  OH2           1.3556218036        1.5962944612        1.6273385150  CLST         474          1.0000000000
      1421       474  TIP3  H1            0.3973735017        1.3645079385        1.7446249919  CLST         474          1.0000000000
      1422       474  TIP3  H2            1.5246699952        1.1891227071        0.8115382617  CLST         474          1.0000000000
      1423       475  TIP3  OH2           6.0666135918       -8.7385653326       11.9353597328  CLST         475          1.0000000000
      1424       475  TIP3  H1            6.9658565080       -8.8970049970       12.2718204737  CLST         475          1.0000000000
      1425       475  TIP3  H2            6.1282036554       -9.1028179516       11.0283812655  CLST         475          1.0000000000
      1426       476  TIP3  OH2         -11.3536634153       -9.0712517669       -0.0867309147  CLST         476          1.0000000000
      1427       476  TIP3  H1          -11.4403597952       -8.2323736351       -0.6898943343  CLST         476          1.0000000000
      1428       476  TIP3  H2          -11.2437858199       -9.6505508558       -0.8258936368  CLST         476          1.0000000000
      1429       477  TIP3  OH2         -12.4315500050        3.6674566515      -13.3878390285  CLST         477          1.0000000000
      1430       477  TIP3  H1          -12.0227694050        2.8187055078      -13.0268342985  CLST         477          1.0000000000
      1431       477  TIP3  H2          -12.1535118503        3.5202369968      -14.3112266904  CLST         477          1.0000000000
      1432       478  TIP3  OH2          -4.0029381970        6.5775342504      -10.6286017423  CLST         478          1.0000000000
      1433       478  TIP3  H1           -4.6491970516        6.5837017309      -11.3649941958  CLST         478          1.0000000000
      1434       478  TIP3  H2           -3.3496040963        7.2252666023      -11.0335295521  CLST         478          1.0000000000
      1435       479  TIP3  OH2           7.7734411868       -1.6345105708       -8.7372492381  CLST         479          1.0000000000
      1436       479  TIP3  H1            8.5400808431       -1.3134402918       -8.2127561341  CLST         479          1.0000000000
      1437       479  TIP3  H2            7.1119392237       -1.2879606391       -8.0561957434  CLST         479          1.0000000000
      1438       480  TIP3  OH2          -6.1151340823        7.7098285569        0.0025226689  CLST         480          1.0000000000
      1439       480  TIP3  H1           -5.2045670360        7.9580049137       -0.2705109065  CLST         480          1.0000000000
      1440       480  TIP3  H2           -5.9957549105        6.7511387596        0.1066390433  CLST         480          1.0000000000
      1441       481  TIP3  OH2          -2.9572941967        2.4538877357       11.9469308063  CLST         481          1.0000000000
      1442       481  TIP3  H1           -2.0173056983        2.5051487621       11.7747575400  CLST         481          1.0000000000
      1443       481  TIP3  H2           -3.0073824929        1.4775937526       11.9577475471  CLST         481          1.0000000000
      1444       482  TIP3  OH2          -8.0776200973       11.5315915783       -7.6657747071  CLST         482          1.0000000000
      1445       482  TIP3  H1           -8.7925173131       11.1924184825       -8.1966194958  CLST         482          1.0000000000
      1446       482  TIP3  H2           -7.4391512171       11.9003828833       -8.3328789571  CLST         482          1.0000000000
      1447       483  TIP3  OH2           6.3558531666       -5.8956587889       12.6129072006  CLST         483          1.0000000000
      1448       483  TIP3  H1            6.0629172397       -6.8551520881       12.5214405162  CLST         483          1.0000000000
      1449       483  TIP3  H2            6.2089132768       -5.7401395271       11.6319960912  CLST         483          1.0000000000
      1450       484  TIP3  OH2           6.7016842020       -3.0597813880        2.9031311643  CLST         484          1.0000000000
      1451       484  TIP3  H1            5.6973783180       -3.1099315469        2.9888115089  CLST         484          1.0000000000
      1452       484  TIP3  H2            6.8011126623       -2.3101946507        3.5010148084  CLST         484          1.0000000000
      1453       485  TIP3  OH2         -11.7668266447        4.5315540064       10.0535018771  CLST         485          1.0000000000
      1454       485  TIP3  H1          -11.3915144222        3.5951648302        9.8122961970  CLST         485          1.0000000000
      1455       485  TIP3  H2          -12.5840294522        4.3622919348        9.4468639556  CLST         485          1.0000000000
      1456       486  TIP3  OH2           8.4772524169       -7.0811613589       13.5594633958  CLST         486          1.0000000000
      1457       486  TIP3  H1            8.5991654560       -6.9131639988       14.3997591054  CLST         486          1.0000000000
      1458       486  TIP3  H2            7.7461761368       -6.3826806287       13.3192498817  CLST         486          1.0000000000
      1459       487  TIP3  OH2          12.2424083514       -8.5709248358        6.2473889798  CLST         487          1.0000000000
      1460       487  TIP3  H1           11.2572195168       -8.4537502235        6.0534049929  CLST         487          1.0000000000
      1461       487  TIP3  H2           12.1165878170       -8.7761587405        7.2353579456  CLST         487          1.0000000000
      1462       488  TIP3  OH2          15.3638161551        8.3391409923        7.7255837004  CLST         488          1.0000000000
      1463       488  TIP3  H1           15.2248966286        7.4829384261        7.7717298714  CLST         488          1.0000000000
      1464       488  TIP3  H2           13.8926509321        7.3191357765        8.6505290003  CLST         488          1.0000000000
      1465       489  TIP3  OH2          -6.2638409271      -10.6768560698       11.7231625638  CLST         489          1.0000000000
      1466       489  TIP3  H1           -6.6977556929       -9.9388590285       11.8629024951  CLST         489          1.0000000000
      1467       489  TIP3  H2           -6.9696147685      -11.1647695855       11.0896771544  CLST         489          1.0000000000
      1468       490  TIP3  OH2           6.6764124909      -13.1100842063        2.4749533191  CLST         490          1.0000000000
      1469       490  TIP3  H1            6.5220136185      -12.2144549948        2.8497056857  CLST         490          1.0000000000
      1470       490  TIP3  H2            7.1383153961      -13.5512187231        3.2191022899  CLST         490          1.0000000000
      1471       491  TIP3  OH2           3.2682504470       -9.4184071984        4.9968864764  CLST         491          1.0000000000
      1472       491  TIP3  H1            2.3284467746       -9.4080602025        5.2772131816  CLST         491          1.0000000000
      1473       491  TIP3  H2            3.2008947741       -9.7005252213        4.0981827876  CLST         491          1.0000000000
      1474       492  TIP3  OH2          -0.5866054069       -6.2996253259       12.2544810127  CLST         492          1.0000000000
      1475       492  TIP3  H1           -0.3789333588       -7.3162887541       12.3214383253  CLST         492          1.0000000000
      1476       492  TIP3  H2           -1.4670617197       -6.3409870746       12.5889012977  CLST         492          1.0000000000
      1477       493  TIP3  OH2           3.3828389219       10.6119578595        7.2037241963  CLST         493          1.0000000000
      1478       493  TIP3  H1            4.1631090058       10.4558584210        7.7783543327  CLST         493          1.0000000000
      1479       493  TIP3  H2            2.6152394069       10.3822487013        7.7831635605  CLST         493          1.0000000000
      1480       494  TIP3  OH2          -9.2337447701        5.4796427234       -0.5470422452  CLST         494          1.0000000000
      1481       494  TIP3  H1           -9.8271744970        5.8114061131       -1.2365732946  CLST         494          1.0000000000
      1482       494  TIP3  H2           -9.6715446488        5.9437303681        0.1961508414  CLST         494          1.0000000000
      1483       495  TIP3  OH2           5.0127484937       -6.8525249968       -1.9987589064  CLST         495          1.0000000000
      1484       495  TIP3  H1            5.7152183914       -6.3394299760       -2.4359629304  CLST         495          1.0000000000
      1485       495  TIP3  H2            5.7316477604       -7.3601052723       -1.5168267608  CLST         495          1.0000000000
      1486       496  TIP3  OH2         -12.8834414964      -10.6659935279        7.5393086962  CLST         496          1.0000000000
      1487       496  TIP3  H1          -13.6687208284      -11.2411296496        7.4228398407  CLST         496          1.0000000000
      1488       496  TIP3  H2          -12.4986119634      -11.1979110459        6.6703979665  CLST         496          1.0000000000
      1489       497  TIP3  OH2          -9.6780966890      -13.2941463332       -7.2287899918  CLST         497          1.0000000000
      1490       497  TIP3  H1           -9.9473105689      -14.1897760718       -7.2000382419  CLST         497          1.0000000000
      1491       497  TIP3  H2           -9.9886901054      -12.7244312520       -7.8963881654  CLST         497          1.0000000000
      1492       498  TIP3  OH2          -5.4675880098        0.3684962375      -11.1022389899  CLST         498          1.0000000000
      1493       498  TIP3  H1           -6.0691075651        0.5487356494      -11.8319987113  CLST         498          1.0000000000
      1494       498  TIP3  H2           -5.3462344861        1.2590292302      -10.7214698022  CLST         498          1.0000000000
      1495       499  TIP3  OH2          11.4286105763        6.6700994602        3.5113828846  CLST         499          1.0000000000
      1496       499  TIP3  H1           11.9353430927        7.0430937722        2.7750899847  CLST         499          1.0000000000
      1497       499  TIP3  H2           11.2049449122        7.4444033352        4.0004651426  CLST         499          1.0000000000
      1498       500  TIP3  OH2           2.3377850202       -8.6685155842      -13.2840443238  CLST         500          1.0000000000
      1499       500  TIP3  H1            2.3303798839       -8.9600117495      -14.1069980672  CLST         500          1.0000000000
      1500       500  TIP3  H2            2.5439043698       -9.5175920144      -12.7367572716  CLST         500          1.0000000000
      1501       501  TIP3  OH2           1.3110738675      -10.9103676854       13.8517171466  CLST         501          1.0000000000
      1502       501  TIP3  H1            1.4639986969      -11.7815085924       14.1330625905  CLST         501          1.0000000000
      1503       501  TIP3  H2            2.2405002282      -10.5406217347       13.7307487908  CLST         501          1.0000000000
      1504       502  TIP3  OH2           6.2239134198        3.9091237057        9.6739270645  CLST         502          1.0000000000
      1505       502  TIP3  H1            6.6586643201        4.2089726991       10.5253793020  CLST         502          1.0000000000
      1506       502  TIP3  H2            6.9174695277        3.2595546434        9.3855266900  CLST         502          1.0000000000
      1507       503  TIP3  OH2          10.2233745978       -0.6849255165        0.2322036276  CLST         503          1.0000000000
      1508       503  TIP3  H1           10.9713584240       -0.3488893326        0.7460342042  CLST         503          1.0000000000
      1509       503  TIP3  H2           10.1680406514        0.0158320195       -0.4493837016  CLST         503          1.0000000000
      1510       504  TIP3  OH2           8.0761451041      -13.8387073228       10.6081688306  CLST         504          1.0000000000
      1511       504  TIP3  H1            8.4043790259      -13.7501435973        9.6934736826  CLST         504          1.0000000000
      1512       504  TIP3  H2            8.2754326067      -14.6403623541       10.9172796726  CLST         504          1.0000000000
      1513       505  TIP3  OH2           3.4911911719      -10.7774056934       -5.6655157977  CLST         505          1.0000000000
      1514       505  TIP3  H1            3.3931598106      -10.2638554245       -6.5037465552  CLST         505          1.0000000000
      1515       505  TIP3  H2            2.9549596682      -10.2305088716       -4.9941563347  CLST         505          1.0000000000
      1516       506  TIP3  OH2          -9.0681750712       -3.5500223522       -8.0272478228  CLST         506          1.0000000000
      1517       506  TIP3  H1           -8.7423207378       -2.5897125322       -7.8945196468  CLST         506          1.0000000000
      1518       506  TIP3  H2           -9.8946474539       -3.2957408180       -8.5176844773  CLST         506          1.0000000000
      1519       507  TIP3  OH2          11.1000486313        9.8383613595      -12.6717317069  CLST         507          1.0000000000
      1520       507  TIP3  H1           11.2507224391        9.7405260267      -13.5476554080  CLST         507          1.0000000000
      1521       507  TIP3  H2           10.9134461821        8.8816065614      -12.2979807059  CLST         507          1.0000000000
      1522       508  TIP3  OH2           9.2822560729       12.1776641126        8.7896559670  CLST         508          1.0000000000
      1523       508  TIP3  H1            8.7538795395       12.3897222135        8.0192821692  CLST         508          1.0000000000
      1524       508  TIP3  H2           10.2207187184       12.4400919047        8.4448882074  CLST         508          1.0000000000
      1525       509  TIP3  OH2          -0.5949648196       -1.5526852905      -11.3489506305  CLST         509          1.0000000000
      1526       509  TIP3  H1           -1.5044224741       -1.6830039067      -11.5707142967  CLST         509          1.0000000000
      1527       509  TIP3  H2           -0.7102085686       -0.5911859864      -10.9753936101  CLST         509          1.0000000000
      1528       510  TIP3  OH2           8.2684643836        2.1554973027       11.6327117677  CLST         510          1.0000000000
      1529       510  TIP3  H1            8.2203953506        1.1277001530       11.7082875558  CLST         510          1.0000000000
      1530       510  TIP3  H2            9.1934994222        2.1934611016       11.2132493841  CLST         510          1.0000000000
      1531       511  TIP3  OH2          -8.8640176091       -5.9788402684       -0.6359748736  CLST         511          1.0000000000
      1532       511  TIP3  H1           -9.7661485407       -6.3215880130       -0.8620957640  CLST         511          1.0000000000
      1533       511  TIP3  H2           -8.8772491468       -5.2729209809       -1.3206765510  CLST         511          1.0000000000
      1534       512  TIP3  OH2          10.0745223529        6.9910828093        6.9604900724  CLST         512          1.0000000000
      1535       512  TIP3  H1           10.1431269257        7.6112194071        7.7282221847  CLST         512          1.0000000000
      1536       512  TIP3  H2           10.4368643450        7.6150443828        6.2621893723  CLST         512          1.0000000000
      1537       513  TIP3  OH2         -11.6762045365       10.4080567999        9.2046039529  CLST         513          1.0000000000
      1538       513  TIP3  H1          -11.2952584369       11.3007842991        9.3949011520  CLST         513          1.0000000000
      1539       513  TIP3  H2          -11.4705874834       10.0024352270       10.0860413198  CLST         513          1.0000000000
      1540       514  TIP3  OH2          -4.7993956927        5.0027298840        0.0374875149  CLST         514          1.0000000000
      1541       514  TIP3  H1           -3.9854896237        5.4128724869        0.4032062786  CLST         514          1.0000000000
      1542       514  TIP3  H2           -4.5909893281        4.8713174257       -0.9184095029  CLST         514          1.0000000000
      1543       515  TIP3  OH2          -0.7247429304        0.9876449671       -4.3542700828  CLST         515          1.0000000000
      1544       515  TIP3  H1           -1.5129521432        1.6464930744       -4.4461982662  CLST         515          1.0000000000
      1545       515  TIP3  H2            0.0097554528        1.5775993023       -4.6506156864  CLST         515          1.0000000000
      1546       516  TIP3  OH2          -7.3277527756       -8.4711374197        6.4026599648  CLST         516          1.0000000000
      1547       516  TIP3  H1           -7.6240200984       -8.7019816124        5.4760366280  CLST         516          1.0000000000
      1548       516  TIP3  H2           -7.8337258466       -7.5832195788        6.5687445880  CLST         516          1.0000000000
      1549       517  TIP3  OH2           0.8361087746       11.2644442583       11.5180819680  CLST         517          1.0000000000
      1550       517  TIP3  H1            0.3758653925       10.9695899902       10.6644120422  CLST         517          1.0000000000
      1551       517  TIP3  H2           -0.1064105497       11.4818073228       11.9445443814  CLST         517          1.0000000000
      1552       518  TIP3  OH2         -11.6029130908       -3.5040529687      -11.2867435982  CLST         518          1.0000000000
      1553       518  TIP3  H1          -11.8613018446       -3.4665869940      -12.2330442259  CLST         518          1.0000000000
      1554       518  TIP3  H2          -10.7118087903       -3.7554823522      -11.5574065838  CLST         518          1.0000000000
      1555       519  TIP3  OH2           2.4162611624        3.4376639380        3.3494856815  CLST         519          1.0000000000
      1556       519  TIP3  H1            2.0099633180        4.1875836177        2.8133989938  CLST         519          1.0000000000
      1557       519  TIP3  H2            1.9214778343        2.7013295846        2.8672850671  CLST         519          1.0000000000
      1558       520  TIP3  OH2         -10.2667812375        6.3141596628        8.1449816606  CLST         520          1.0000000000
      1559       520  TIP3  H1          -10.3150727132        5.6634816229        7.3846042662  CLST         520          1.0000000000
      1560       520  TIP3  H2          -10.8104662614        5.7763829676        8.7769551811  CLST         520          1.0000000000
      1561       521  TIP3  OH2           8.4822536640       -8.8018181422       -9.3658996326  CLST         521          1.0000000000
      1562       521  TIP3  H1            8.6640181160       -9.5545778275      -10.0223724242  CLST         521          1.0000000000
      1563       521  TIP3  H2            8.2953958319       -8.0310744162       -9.9155505006  CLST         521          1.0000000000
      1564       522  TIP3  OH2          -5.5280494075       -7.0060024934        8.3096808994  CLST         522          1.0000000000
      1565       522  TIP3  H1           -6.2038153643       -7.5909275187        7.9862539032  CLST         522          1.0000000000
      1566       522  TIP3  H2           -4.6798261056       -7.4802840080        8.2385566732  CLST         522          1.0000000000
      1567       523  TIP3  OH2          -4.1170211352       11.8645477581      -13.9081655444  CLST         523          1.0000000000
      1568       523  TIP3  H1           -2.2563089864       11.9329810406      -13.4495002534  CLST         523          1.0000000000
      1569       523  TIP3  H2           -3.8822520329       12.4374362106      -14.7155102680  CLST         523          1.0000000000
      1570       524  TIP3  OH2           6.8753171158        3.9349548795       -1.5928235060  CLST         524          1.0000000000
      1571       524  TIP3  H1            7.2532654855        3.6365338663       -2.4210443260  CLST         524          1.0000000000
      1572       524  TIP3  H2            5.9260746574        4.0346754503       -1.9280799779  CLST         524          1.0000000000
      1573       525  TIP3  OH2           0.4760692832        6.8224029174       -2.5557288739  CLST         525          1.0000000000
      1574       525  TIP3  H1            0.6878749712        6.4834599971       -3.4507609546  CLST         525          1.0000000000
      1575       525  TIP3  H2            0.2402190108        5.9237494489       -2.1476602374  CLST         525          1.0000000000
      1576       526  TIP3  OH2           6.9440669598       -5.4814341428       -3.7312351866  CLST         526          1.0000000000
      1577       526  TIP3  H1            7.1178694243       -5.6356550246       -4.7168397585  CLST         526          1.0000000000
      1578       526  TIP3  H2            7.8862488918       -5.3103805516       -3.3762119193  CLST         526          1.0000000000
      1579       527  TIP3  OH2           0.4060773659        7.1426059132        4.1759711936  CLST         527          1.0000000000
      1580       527  TIP3  H1            1.3397497285        7.4734851446        4.7319571700  CLST         527          1.0000000000
      1581       527  TIP3  H2            0.1581399249        8.0151752999        3.8026362414  CLST         527          1.0000000000
      1582       528  TIP3  OH2          -2.7044505273        9.8655848988        8.6117317443  CLST         528          1.0000000000
      1583       528  TIP3  H1           -2.9447860141        9.8246084361        9.5588599050  CLST         528          1.0000000000
      1584       528  TIP3  H2           -3.5265499786       10.2861756799        8.2887246138  CLST         528          1.0000000000
      1585       529  TIP3  OH2          -6.0009237123       12.2093371612       -9.4733474860  CLST         529          1.0000000000
      1586       529  TIP3  H1           -5.1700450725       12.5399090274       -9.1300923187  CLST         529          1.0000000000
      1587       529  TIP3  H2           -5.7904831247       12.0108111820      -10.4105650944  CLST         529          1.0000000000
      1588       530  TIP3  OH2          -4.2910416438       -5.4987259982      -13.0642279758  CLST         530          1.0000000000
      1589       530  TIP3  H1           -4.0628207405       -6.7033950129      -13.3350061540  CLST         530          1.0000000000
      1590       530  TIP3  H2           -2.7617210905       -4.8933754377      -13.0472334747  CLST         530          1.0000000000
      1591       531  TIP3  OH2         -11.3998341870       -0.0731386037       10.5642584641  CLST         531          1.0000000000
      1592       531  TIP3  H1          -12.2276793032        0.0914524789       11.0494009545  CLST         531          1.0000000000
      1593       531  TIP3  H2          -11.6119476836       -0.6666533589        9.8626906749  CLST         531          1.0000000000
      1594       532  TIP3  OH2         -12.0484094431       -3.1195580177       -8.8993825163  CLST         532          1.0000000000
      1595       532  TIP3  H1          -12.3860848546       -3.9263037371       -8.5709887761  CLST         532          1.0000000000
      1596       532  TIP3  H2          -12.0147132300       -3.2892050638       -9.9241634449  CLST         532          1.0000000000
      1597       533  TIP3  OH2          -2.8868206327       -7.1630799350        8.6242172031  CLST         533          1.0000000000
      1598       533  TIP3  H1           -2.1802889426       -7.8120287774        8.7271274791  CLST         533          1.0000000000
      1599       533  TIP3  H2           -2.4851228610       -6.3777259278        8.2594777100  CLST         533          1.0000000000
      1600       534  TIP3  OH2           0.4203394841      -13.1797748879       -7.6293516915  CLST         534          1.0000000000
      1601       534  TIP3  H1            0.8825067360      -13.1466754960       -8.4869557925  CLST         534          1.0000000000
      1602       534  TIP3  H2            1.2360195010      -13.3584677798       -7.0364509176  CLST         534          1.0000000000
      1603       535  TIP3  OH2           2.9357301342        3.0962742037       -7.4776493804  CLST         535          1.0000000000
      1604       535  TIP3  H1            3.5412958354        2.6800200079       -6.8312168777  CLST         535          1.0000000000
      1605       535  TIP3  H2            2.0202910075        2.7430643088       -7.1591844958  CLST         535          1.0000000000
      1606       536  TIP3  OH2           7.8869612617      -12.5393774349       -3.4954004069  CLST         536          1.0000000000
      1607       536  TIP3  H1            7.0766269229      -12.5980621328       -4.1130033242  CLST         536          1.0000000000
      1608       536  TIP3  H2            8.5760873673      -12.9314257079       -4.0351711334  CLST         536          1.0000000000
      1609       537  TIP3  OH2          11.8949136062       -2.6772273998       -7.4682008340  CLST         537          1.0000000000
      1610       537  TIP3  H1           11.5288933842       -1.9234602158       -7.0008186848  CLST         537          1.0000000000
      1611       537  TIP3  H2           12.8098276852       -2.4206955602       -7.3026258635  CLST         537          1.0000000000
      1612       538  TIP3  OH2          -5.0946726698      -10.8808890786        0.7469608049  CLST         538          1.0000000000
      1613       538  TIP3  H1           -4.2778629139      -11.1151507139        1.2715909564  CLST         538          1.0000000000
      1614       538  TIP3  H2           -4.9395959643       -9.9145231038        0.6412961415  CLST         538          1.0000000000
      1615       539  TIP3  OH2           2.4661576339       -5.2261852790        0.8733864029  CLST         539          1.0000000000
      1616       539  TIP3  H1            1.5366873310       -5.2932699446        1.1513693120  CLST         539          1.0000000000
      1617       539  TIP3  H2            2.4163519564       -5.4303968121       -0.0508917203  CLST         539          1.0000000000
      1618       540  TIP3  OH2           4.1481343242       -6.8143736432        4.7680779658  CLST         540          1.0000000000
      1619       540  TIP3  H1            3.8268415700       -7.7029017166        5.1011590233  CLST         540          1.0000000000
      1620       540  TIP3  H2            4.2024061265       -7.0674126900        3.8067999931  CLST         540          1.0000000000
      1621       541  TIP3  OH2          -5.4443241045       10.5522131368        2.1267425864  CLST         541          1.0000000000
      1622       541  TIP3  H1           -6.0229369068       10.6156698507        2.9505474182  CLST         541          1.0000000000
      1623       541  TIP3  H2           -4.7329203155       11.2411886698        2.3963881744  CLST         541          1.0000000000
      1624       542  TIP3  OH2         -10.9228208125       14.3985535912        5.5631867976  CLST         542          1.0000000000
      1625       542  TIP3  H1          -11.5499836218       15.0112241179        5.4668923818  CLST         542          1.0000000000
      1626       542  TIP3  H2          -10.6585217375       14.0313082141        4.5282974823  CLST         542          1.0000000000
      1627       543  TIP3  OH2         -10.6180729320       11.4865937358       -2.4043324146  CLST         543          1.0000000000
      1628       543  TIP3  H1          -11.5185324403       11.1491286098       -2.5165655912  CLST         543          1.0000000000
      1629       543  TIP3  H2          -10.3274986646       11.7556875394       -3.2938485726  CLST         543          1.0000000000
      1630       544  TIP3  OH2          -0.3406309742        5.4713371248       -5.6235765772  CLST         544          1.0000000000
      1631       544  TIP3  H1           -0.4488856692        5.2098308734       -6.5794192330  CLST         544          1.0000000000
      1632       544  TIP3  H2            0.5024253638        5.0770524290       -5.3551841738  CLST         544          1.0000000000
      1633       545  TIP3  OH2          -7.8579136440        2.3962793461      -12.3969095701  CLST         545          1.0000000000
      1634       545  TIP3  H1           -7.9472173803        2.1330523913      -13.3310891078  CLST         545          1.0000000000
      1635       545  TIP3  H2           -8.4758309108        3.1971217151      -12.3801569384  CLST         545          1.0000000000
      1636       546  TIP3  OH2           3.8517300017       11.0672990023       -2.2489823954  CLST         546          1.0000000000
      1637       546  TIP3  H1            3.4165338021       10.1801394108       -2.4173686244  CLST         546          1.0000000000
      1638       546  TIP3  H2            4.4114048306       10.7007299537       -1.3955976134  CLST         546          1.0000000000
      1639       547  TIP3  OH2          -3.5692066536       -2.0295747751      -11.2406196613  CLST         547          1.0000000000
      1640       547  TIP3  H1           -3.5420992724       -2.0970557826      -10.2271731796  CLST         547          1.0000000000
      1641       547  TIP3  H2           -4.2169189045       -1.2692048928      -11.3030194222  CLST         547          1.0000000000
      1642       548  TIP3  OH2          10.6084710073        2.3064176167        1.2751594557  CLST         548          1.0000000000
      1643       548  TIP3  H1            9.6462441628        2.3070690129        1.4824052515  CLST         548          1.0000000000
      1644       548  TIP3  H2           10.7135301642        3.1169738405        1.8505528167  CLST         548          1.0000000000
