* Geometry rescue: EQUI after early-abort recovery (step 0)
*
        1644  EXT
         1         1  TIP3  OH2           4.3946240512       -1.3468591796       -2.3762248125  CLST           1          1.0000000000
         2         1  TIP3  H1            4.7584090366       -1.2816787495       -1.4584879253  CLST           1          1.0000000000
         3         1  TIP3  H2            5.1132947151       -1.9708030294       -2.7362408492  CLST           1          1.0000000000
         4         2  TIP3  OH2          10.5306725156        7.6206383228      -11.5152841880  CLST           2          1.0000000000
         5         2  TIP3  H1           10.8623909523        7.0576333719      -10.7467736750  CLST           2          1.0000000000
         6         2  TIP3  H2            9.5121548719        7.2914059675      -11.3586884973  CLST           2          1.0000000000
         7         3  TIP3  OH2           8.7249576326        5.2170614370       -4.0294506756  CLST           3          1.0000000000
         8         3  TIP3  H1            9.0523500178        5.5561806670       -3.0943306237  CLST           3          1.0000000000
         9         3  TIP3  H2            8.8851187741        6.0535795193       -4.5586421612  CLST           3          1.0000000000
        10         4  TIP3  OH2          -2.9307046009        6.5892991029       10.1901481657  CLST           4          1.0000000000
        11         4  TIP3  H1           -3.7437414778        6.8982131793        9.6401780413  CLST           4          1.0000000000
        12         4  TIP3  H2           -3.1646765580        7.2234253771       10.9045801604  CLST           4          1.0000000000
        13         5  TIP3  OH2           8.8861344026        6.2685551038       10.6019550442  CLST           5          1.0000000000
        14         5  TIP3  H1            8.3495848210        5.6477471502       11.1866327270  CLST           5          1.0000000000
        15         5  TIP3  H2            8.8177082761        5.6896938201        9.8002201050  CLST           5          1.0000000000
        16         6  TIP3  OH2          10.1466737463       -5.6865537224      -11.4632168371  CLST           6          1.0000000000
        17         6  TIP3  H1           10.5156003460       -4.5311952098      -10.9928561494  CLST           6          1.0000000000
        18         6  TIP3  H2           10.1854198068       -4.5362156828      -12.0335337841  CLST           6          1.0000000000
        19         7  TIP3  OH2         -12.4372709411        8.4393512525        5.8566462522  CLST           7          1.0000000000
        20         7  TIP3  H1          -12.8355808948        9.5465065674        6.5008712899  CLST           7          1.0000000000
        21         7  TIP3  H2          -10.9633519169        8.4337776887        6.5679260921  CLST           7          1.0000000000
        22         8  TIP3  OH2          -4.3237504196       -8.2069799959        0.4285726995  CLST           8          1.0000000000
        23         8  TIP3  H1           -4.4778596259       -7.6048463993        0.9827576559  CLST           8          1.0000000000
        24         8  TIP3  H2           -3.3280751879       -7.8288641350       -0.0991405723  CLST           8          1.0000000000
        25         9  TIP3  OH2           2.6095204921      -13.5408239205       -4.1326048469  CLST           9          1.0000000000
        26         9  TIP3  H1           -1.7353976735      -13.6094537164       -3.4273934413  CLST           9          1.0000000000
        27         9  TIP3  H2            2.5700143155      -13.7271604283       -4.1602386400  CLST           9          1.0000000000
        28        10  TIP3  OH2         -13.9377115121       -0.8719877437       -0.4362344905  CLST          10          1.0000000000
        29        10  TIP3  H1          -13.0360313233       -2.4512350741       -2.3169716125  CLST          10          1.0000000000
        30        10  TIP3  H2          -13.4907818508       -1.3383811001       -1.2820917418  CLST          10          1.0000000000
        31        11  TIP3  OH2           6.8875034057        6.7778955301       -1.7898329143  CLST          11          1.0000000000
        32        11  TIP3  H1            7.1785783594        5.8735962083       -2.0015816127  CLST          11          1.0000000000
        33        11  TIP3  H2            6.5482925303        7.0244435690       -2.7224230561  CLST          11          1.0000000000
        34        12  TIP3  OH2          -8.0452657043        2.5043186562        2.0035390859  CLST          12          1.0000000000
        35        12  TIP3  H1           -7.5664804763        2.8269278796        1.1906591639  CLST          12          1.0000000000
        36        12  TIP3  H2           -8.9760806559        2.6362465367        1.6475236196  CLST          12          1.0000000000
        37        13  TIP3  OH2           7.6006232772        2.3056692357        2.1299684297  CLST          13          1.0000000000
        38        13  TIP3  H1            7.4573418514        3.1842725476        1.7193974584  CLST          13          1.0000000000
        39        13  TIP3  H2            7.4080697604        2.5336043047        3.0909749727  CLST          13          1.0000000000
        40        14  TIP3  OH2          -0.3749509323        2.3084519374        7.9779787314  CLST          14          1.0000000000
        41        14  TIP3  H1           -0.1304947043        3.2157425113        7.6162160757  CLST          14          1.0000000000
        42        14  TIP3  H2            0.2394098971        1.7705011861        7.4263814704  CLST          14          1.0000000000
        43        15  TIP3  OH2          -8.6499809685       -3.7117384943      -12.7197951974  CLST          15          1.0000000000
        44        15  TIP3  H1           -7.3350177235       -3.7514086473      -12.8734320889  CLST          15          1.0000000000
        45        15  TIP3  H2           -7.9210175518       -4.8479579555      -11.2876884299  CLST          15          1.0000000000
        46        16  TIP3  OH2          -3.6153409210      -12.8301427379       -6.2001228951  CLST          16          1.0000000000
        47        16  TIP3  H1           -4.2444798568      -12.6717651292       -4.4128855074  CLST          16          1.0000000000
        48        16  TIP3  H2           -3.0090450194      -13.0417379468       -5.4520161930  CLST          16          1.0000000000
        49        17  TIP3  OH2           4.6073541890      -12.8852057031       -8.1191383794  CLST          17          1.0000000000
        50        17  TIP3  H1            5.0747159561      -12.5829965058       -7.0310062287  CLST          17          1.0000000000
        51        17  TIP3  H2            3.7838258325      -12.4758193093       -7.0654854602  CLST          17          1.0000000000
        52        18  TIP3  OH2         -11.2715284583       -6.9938322418       -1.5815013325  CLST          18          1.0000000000
        53        18  TIP3  H1          -10.8920189907       -1.5661319391        0.6497732218  CLST          18          1.0000000000
        54        18  TIP3  H2          -11.2903237427       -6.4482112930       -2.9901978194  CLST          18          1.0000000000
        55        19  TIP3  OH2          10.8768625863       -0.0798555210        9.4385553803  CLST          19          1.0000000000
        56        19  TIP3  H1           10.9802059413       -1.1389887039        8.7816142028  CLST          19          1.0000000000
        57        19  TIP3  H2           10.9948309109       -0.6473386426        7.2523909674  CLST          19          1.0000000000
        58        20  TIP3  OH2         -13.1878354516        1.2174475987        2.6185639155  CLST          20          1.0000000000
        59        20  TIP3  H1          -12.8178921813        1.2894930676        1.0410654108  CLST          20          1.0000000000
        60        20  TIP3  H2          -13.9123156491        0.8282585666        2.3015271275  CLST          20          1.0000000000
        61        21  TIP3  OH2          -9.9037351512       12.4515736467       -5.3965201839  CLST          21          1.0000000000
        62        21  TIP3  H1          -10.3445892852       12.9797747861       -5.7742052757  CLST          21          1.0000000000
        63        21  TIP3  H2           -9.2174772651       11.9874913872       -6.0883499884  CLST          21          1.0000000000
        64        22  TIP3  OH2           2.7846613392       12.0964818568       -6.5200091688  CLST          22          1.0000000000
        65        22  TIP3  H1            3.2717020845       11.3406202670       -6.2439103330  CLST          22          1.0000000000
        66        22  TIP3  H2            3.4349323212       12.9999117718       -5.2301061181  CLST          22          1.0000000000
        67        23  TIP3  OH2           5.6056380561       -1.5184883249       11.1352968600  CLST          23          1.0000000000
        68        23  TIP3  H1            5.0874470134       -1.8335983067       10.3692448146  CLST          23          1.0000000000
        69        23  TIP3  H2            5.3630561172       -0.5633253654       11.0474091101  CLST          23          1.0000000000
        70        24  TIP3  OH2          -0.0872523770        1.1165607894        4.5454705924  CLST          24          1.0000000000
        71        24  TIP3  H1            0.7488943168        0.9481583406        5.0398527769  CLST          24          1.0000000000
        72        24  TIP3  H2           -0.6046351828        0.3238284805        4.9089040509  CLST          24          1.0000000000
        73        25  TIP3  OH2           3.2493390637        1.9688185147       -2.6065332152  CLST          25          1.0000000000
        74        25  TIP3  H1            3.8787303764        1.2746558014       -1.3160954284  CLST          25          1.0000000000
        75        25  TIP3  H2            3.4439531911        2.5152812224       -2.4204099656  CLST          25          1.0000000000
        76        26  TIP3  OH2          11.1970554235        5.3799577574       -6.6091186220  CLST          26          1.0000000000
        77        26  TIP3  H1           10.2996610538        5.0045059700       -6.8941546347  CLST          26          1.0000000000
        78        26  TIP3  H2           10.8144019198        6.0461347878       -5.9808879211  CLST          26          1.0000000000
        79        27  TIP3  OH2         -10.1190845296        7.2078799223       -5.4497111500  CLST          27          1.0000000000
        80        27  TIP3  H1          -10.2795743284        7.7459215856       -4.6117981355  CLST          27          1.0000000000
        81        27  TIP3  H2          -10.5607474660        7.6539567405       -6.1290840490  CLST          27          1.0000000000
        82        28  TIP3  OH2          -4.1857009418      -10.3119657827       -6.7507696980  CLST          28          1.0000000000
        83        28  TIP3  H1           -4.0776485619      -11.6579940141       -6.4884855198  CLST          28          1.0000000000
        84        28  TIP3  H2           -5.2367548169      -10.3962728108       -6.0217161587  CLST          28          1.0000000000
        85        29  TIP3  OH2         -10.7846247712        7.7217837280       -2.6654713966  CLST          29          1.0000000000
        86        29  TIP3  H1          -10.1256151495        8.3575328975       -2.2181624368  CLST          29          1.0000000000
        87        29  TIP3  H2          -11.5618074751        8.3867214181       -2.5780298811  CLST          29          1.0000000000
        88        30  TIP3  OH2           8.8643316481      -10.3372604568       -2.1927933279  CLST          30          1.0000000000
        89        30  TIP3  H1            9.3914599572      -10.9394860548       -1.6915010267  CLST          30          1.0000000000
        90        30  TIP3  H2            8.1542381993      -11.8037318354       -2.8101753004  CLST          30          1.0000000000
        91        31  TIP3  OH2          -9.8403405150       -1.3624195805      -12.8661513245  CLST          31          1.0000000000
        92        31  TIP3  H1           -9.4832787018       -2.4295299243      -12.7293670680  CLST          31          1.0000000000
        93        31  TIP3  H2           -9.5546062839       -0.9987460359      -11.8578865129  CLST          31          1.0000000000
        94        32  TIP3  OH2          -8.7896585766       -6.0753833397        6.9392474894  CLST          32          1.0000000000
        95        32  TIP3  H1           -9.8412267113       -5.8234509380        6.2206969209  CLST          32          1.0000000000
        96        32  TIP3  H2           -8.8692979728       -5.6280164870        5.6683185656  CLST          32          1.0000000000
        97        33  TIP3  OH2          11.7184579486       -9.0188482473        8.8659922226  CLST          33          1.0000000000
        98        33  TIP3  H1           11.7025837728      -10.0032036396        9.0518227321  CLST          33          1.0000000000
        99        33  TIP3  H2           11.2405975970       -8.7178913384        9.6674230657  CLST          33          1.0000000000
       100        34  TIP3  OH2           4.1358362482       -3.8692648144        3.1387695073  CLST          34          1.0000000000
       101        34  TIP3  H1            3.7084826993       -4.1764610650        2.2956058894  CLST          34          1.0000000000
       102        34  TIP3  H2            4.0938374186       -4.7383318281        3.5737942696  CLST          34          1.0000000000
       103        35  TIP3  OH2           6.1369313636       -0.6842219140        4.1986850887  CLST          35          1.0000000000
       104        35  TIP3  H1            5.3004561606       -1.0880713836        4.5906275469  CLST          35          1.0000000000
       105        35  TIP3  H2            6.5072454259       -0.1827090832        4.9494809263  CLST          35          1.0000000000
       106        36  TIP3  OH2          -1.5466205197        1.3065625089        2.3810286667  CLST          36          1.0000000000
       107        36  TIP3  H1           -2.4115757377        0.9082320783        2.5526832692  CLST          36          1.0000000000
       108        36  TIP3  H2           -1.0870801901        1.1626620969        3.2580953624  CLST          36          1.0000000000
       109        37  TIP3  OH2          -4.2458657245       -7.6415060324      -12.8198434988  CLST          37          1.0000000000
       110        37  TIP3  H1           -5.1483999609       -8.2447883164      -11.8380128239  CLST          37          1.0000000000
       111        37  TIP3  H2           -2.7028254276       -9.9724182613      -15.3242131654  CLST          37          1.0000000000
       112        38  TIP3  OH2          -3.0793361773        2.1696570618       -4.3476223822  CLST          38          1.0000000000
       113        38  TIP3  H1           -2.4971892114        3.0714824272       -4.7113026236  CLST          38          1.0000000000
       114        38  TIP3  H2           -3.3918446873        1.8706785675       -5.3469805868  CLST          38          1.0000000000
       115        39  TIP3  OH2           1.6723768347      -10.7336831969        1.9578740160  CLST          39          1.0000000000
       116        39  TIP3  H1            1.4723252386      -11.3794102247        2.6771488194  CLST          39          1.0000000000
       117        39  TIP3  H2            0.6939413511      -10.3293523664        1.8326861395  CLST          39          1.0000000000
       118        40  TIP3  OH2          -6.8978361349       12.4776610586        8.1100220250  CLST          40          1.0000000000
       119        40  TIP3  H1           -8.3552976329       12.8036697552        7.5610002459  CLST          40          1.0000000000
       120        40  TIP3  H2           -6.2261591095       12.5624039595        7.1275464183  CLST          40          1.0000000000
       121        41  TIP3  OH2           9.4999953548       -2.3849791077      -10.4060036978  CLST          41          1.0000000000
       122        41  TIP3  H1           10.1790063265       -2.2112880207      -10.8859389932  CLST          41          1.0000000000
       123        41  TIP3  H2            6.9127695635       -6.6538386708      -11.1616908902  CLST          41          1.0000000000
       124        42  TIP3  OH2           9.3554685072       10.2076683592      -10.4584998609  CLST          42          1.0000000000
       125        42  TIP3  H1           10.2596566009       10.1329690286       -9.8404499979  CLST          42          1.0000000000
       126        42  TIP3  H2            9.8645665331       10.2989771022      -11.4079236690  CLST          42          1.0000000000
       127        43  TIP3  OH2          11.6747794515       12.5792335474        7.7635860780  CLST          43          1.0000000000
       128        43  TIP3  H1           12.1692847007       13.3142751647        7.7779519472  CLST          43          1.0000000000
       129        43  TIP3  H2           12.2730640834       11.8369642332        8.1842855652  CLST          43          1.0000000000
       130        44  TIP3  OH2           7.6254164655        0.9461250939        6.1302924811  CLST          44          1.0000000000
       131        44  TIP3  H1            7.7780558011        1.5593742618        6.9281781816  CLST          44          1.0000000000
       132        44  TIP3  H2            7.3589572317        1.7118243374        5.5443739117  CLST          44          1.0000000000
       133        45  TIP3  OH2           7.8699865835        9.1663603597        7.3383694597  CLST          45          1.0000000000
       134        45  TIP3  H1            7.5425643306        8.2546720541        7.5181806775  CLST          45          1.0000000000
       135        45  TIP3  H2            8.6867286879        9.2184592676        7.8846564934  CLST          45          1.0000000000
       136        46  TIP3  OH2          -5.6943967576       -3.1486247008      -12.7233281399  CLST          46          1.0000000000
       137        46  TIP3  H1           -4.9463593832       -4.3796831130      -12.5510485923  CLST          46          1.0000000000
       138        46  TIP3  H2           -4.2417483412       -3.1255930817      -11.8465332972  CLST          46          1.0000000000
       139        47  TIP3  OH2           1.3679585343       -6.9293097039      -11.1271888704  CLST          47          1.0000000000
       140        47  TIP3  H1            1.6664704573       -6.9645867933      -11.2027933000  CLST          47          1.0000000000
       141        47  TIP3  H2            2.0454718294       -7.8718053524      -11.8380419688  CLST          47          1.0000000000
       142        48  TIP3  OH2           4.9232532262        5.6073099766        1.1065277332  CLST          48          1.0000000000
       143        48  TIP3  H1            5.8851374561        5.3633735261        0.9177333999  CLST          48          1.0000000000
       144        48  TIP3  H2            5.0951975313        6.5729302356        1.1148505415  CLST          48          1.0000000000
       145        49  TIP3  OH2          -3.3377063278      -10.5693274754      -13.3467984191  CLST          49          1.0000000000
       146        49  TIP3  H1           -3.0755346029      -11.2619192985      -12.9579173700  CLST          49          1.0000000000
       147        49  TIP3  H2           -4.0284841907      -11.2978870956      -11.8350064752  CLST          49          1.0000000000
       148        50  TIP3  OH2           2.7405394200        3.7659429618        5.9812257774  CLST          50          1.0000000000
       149        50  TIP3  H1            1.8680493722        4.1863421092        6.2905120538  CLST          50          1.0000000000
       150        50  TIP3  H2            2.4499031702        3.5809722897        5.0275716180  CLST          50          1.0000000000
       151        51  TIP3  OH2          -6.4120949044       -9.8675115633       -4.8769225145  CLST          51          1.0000000000
       152        51  TIP3  H1           -6.9508526552       -9.5437254805       -4.0618810457  CLST          51          1.0000000000
       153        51  TIP3  H2           -6.7759295427      -10.7357686249       -4.8765589342  CLST          51          1.0000000000
       154        52  TIP3  OH2           9.0744881642       -5.5801081503       -0.0854853782  CLST          52          1.0000000000
       155        52  TIP3  H1            9.5005242361       -5.6161100200       -1.0869811517  CLST          52          1.0000000000
       156        52  TIP3  H2            9.0500024331       -4.6014477477       -0.0472529784  CLST          52          1.0000000000
       157        53  TIP3  OH2          -9.4095233455        9.9368998577      -12.1730646027  CLST          53          1.0000000000
       158        53  TIP3  H1           -9.4120527422        9.6109054525      -13.0108286986  CLST          53          1.0000000000
       159        53  TIP3  H2           -8.1245519280        8.8707186081      -12.0045465929  CLST          53          1.0000000000
       160        54  TIP3  OH2           0.7710649321       -2.7907437389       -9.2207726272  CLST          54          1.0000000000
       161        54  TIP3  H1            1.6839158248       -3.5929694247      -10.2828287688  CLST          54          1.0000000000
       162        54  TIP3  H2            0.3911242442       -2.4552160412      -10.2693866712  CLST          54          1.0000000000
       163        55  TIP3  OH2           2.6977520004       -4.3017560892      -14.7865540856  CLST          55          1.0000000000
       164        55  TIP3  H1            2.9401736533       -5.2206670131      -13.7481824373  CLST          55          1.0000000000
       165        55  TIP3  H2            2.3382030848       -3.8033496998      -14.4224442299  CLST          55          1.0000000000
       166        56  TIP3  OH2          -9.7516047423       11.2084032127        5.8908521485  CLST          56          1.0000000000
       167        56  TIP3  H1           -9.9258373823       10.0111693653        5.6746921213  CLST          56          1.0000000000
       168        56  TIP3  H2           -9.8753689837       10.3971353669        4.7363674949  CLST          56          1.0000000000
       169        57  TIP3  OH2           1.5089536401      -13.0150027900        0.2241756824  CLST          57          1.0000000000
       170        57  TIP3  H1            1.8793998624      -12.0219935221        0.3720610290  CLST          57          1.0000000000
       171        57  TIP3  H2            2.0300592399      -12.9551665880       -0.6749350097  CLST          57          1.0000000000
       172        58  TIP3  OH2         -13.1304545220       10.5161280367        7.0752487681  CLST          58          1.0000000000
       173        58  TIP3  H1          -12.6513827308       11.3985911135        6.6194049804  CLST          58          1.0000000000
       174        58  TIP3  H2          -12.3650037107       10.5337055480        8.2866847277  CLST          58          1.0000000000
       175        59  TIP3  OH2         -11.5649738470       -2.9199222042        5.6731855202  CLST          59          1.0000000000
       176        59  TIP3  H1          -12.0888117555       -1.3752420115        8.5073452212  CLST          59          1.0000000000
       177        59  TIP3  H2          -11.5194193565       -2.2795488389        5.1158393169  CLST          59          1.0000000000
       178        60  TIP3  OH2           1.2261416486        9.4012706539        8.2514847177  CLST          60          1.0000000000
       179        60  TIP3  H1            0.4675242194        8.7705209071        7.9683382954  CLST          60          1.0000000000
       180        60  TIP3  H2            1.7516766501        8.6068887967        8.6320395021  CLST          60          1.0000000000
       181        61  TIP3  OH2           2.7735429031       -0.7179442204       -5.5416386747  CLST          61          1.0000000000
       182        61  TIP3  H1            3.4300850821       -2.0458012515       -5.6515527462  CLST          61          1.0000000000
       183        61  TIP3  H2            1.9406658648       -1.0904883510       -6.8623374809  CLST          61          1.0000000000
       184        62  TIP3  OH2           7.7835921827        8.6473741959       12.4471328423  CLST          62          1.0000000000
       185        62  TIP3  H1            7.9333597494        7.9536424386       11.7685260610  CLST          62          1.0000000000
       186        62  TIP3  H2            7.9672267779        9.3972088434       11.8096790416  CLST          62          1.0000000000
       187        63  TIP3  OH2           4.3196645231       -6.9106883841      -10.0005302757  CLST          63          1.0000000000
       188        63  TIP3  H1            4.9504383323       -7.5083306460      -10.9146924515  CLST          63          1.0000000000
       189        63  TIP3  H2            3.9464023110       -8.9436754519      -10.4437057311  CLST          63          1.0000000000
       190        64  TIP3  OH2          -2.2981093454       11.5258914430        5.2927936120  CLST          64          1.0000000000
       191        64  TIP3  H1           -2.4021569409       10.5197344726        5.2762025440  CLST          64          1.0000000000
       192        64  TIP3  H2           -1.6434007458       11.5090040150        6.0553888294  CLST          64          1.0000000000
       193        65  TIP3  OH2          10.8045619343       -3.9829068731       -5.4346018762  CLST          65          1.0000000000
       194        65  TIP3  H1           10.7733673831       -3.1087282869       -6.3841268636  CLST          65          1.0000000000
       195        65  TIP3  H2           10.6197763259       -2.7748619999       -5.2420433004  CLST          65          1.0000000000
       196        66  TIP3  OH2           6.4252730083       -9.9739979248        9.4382923155  CLST          66          1.0000000000
       197        66  TIP3  H1            5.6877414384      -10.0399365387        8.7748956287  CLST          66          1.0000000000
       198        66  TIP3  H2            6.9848396527       -9.2386227051        9.0489725037  CLST          66          1.0000000000
       199        67  TIP3  OH2         -11.4209420711       -7.5636125122       -3.6123083425  CLST          67          1.0000000000
       200        67  TIP3  H1           -7.9184100429       -4.3170126439       -5.1428823772  CLST          67          1.0000000000
       201        67  TIP3  H2          -11.2686876884       -8.6885224104       -4.4867042825  CLST          67          1.0000000000
       202        68  TIP3  OH2          -0.5261345029       -5.3213884287        5.2064676532  CLST          68          1.0000000000
       203        68  TIP3  H1            0.8915887910       -5.2862951847        5.5703113199  CLST          68          1.0000000000
       204        68  TIP3  H2           -0.5542030460       -5.2799994360        6.6038528883  CLST          68          1.0000000000
       205        69  TIP3  OH2           7.9719415781       11.6251818156       -8.7233126652  CLST          69          1.0000000000
       206        69  TIP3  H1            8.7415323786       10.9368341162       -9.3558594849  CLST          69          1.0000000000
       207        69  TIP3  H2            9.3131768024       11.3998272817       -8.6323352285  CLST          69          1.0000000000
       208        70  TIP3  OH2          -0.7184480117      -12.5907860659       -0.9577760185  CLST          70          1.0000000000
       209        70  TIP3  H1            0.0473384055      -13.0131899654       -0.3576797313  CLST          70          1.0000000000
       210        70  TIP3  H2           -1.4294503620      -12.5696303451       -0.1599816258  CLST          70          1.0000000000
       211        71  TIP3  OH2         -10.4648405932       -6.9989573053        2.0703533457  CLST          71          1.0000000000
       212        71  TIP3  H1           -8.8897968172       -8.0113943397        0.2934600955  CLST          71          1.0000000000
       213        71  TIP3  H2          -10.1417325890       -8.5728135097        1.2161827355  CLST          71          1.0000000000
       214        72  TIP3  OH2           0.2170007038        2.1706012057       -1.4903949616  CLST          72          1.0000000000
       215        72  TIP3  H1           -0.0439062907        1.0788713235       -1.5089675106  CLST          72          1.0000000000
       216        72  TIP3  H2            0.6999203213        2.0630567117       -2.3774640401  CLST          72          1.0000000000
       217        73  TIP3  OH2          -9.4730657746       12.9246145630        7.5418296193  CLST          73          1.0000000000
       218        73  TIP3  H1           -9.7251907398       12.0513912948        6.6853706994  CLST          73          1.0000000000
       219        73  TIP3  H2          -10.0373576579       13.1011975347        6.3934117217  CLST          73          1.0000000000
       220        74  TIP3  OH2           6.3643517124       -2.8897878397       -3.4211337191  CLST          74          1.0000000000
       221        74  TIP3  H1            6.6176379372       -3.8799921347       -3.6024404403  CLST          74          1.0000000000
       222        74  TIP3  H2            7.2790955049       -2.3865259831       -3.5418333453  CLST          74          1.0000000000
       223        75  TIP3  OH2           2.5629246365      -12.8865474979       -6.6183302163  CLST          75          1.0000000000
       224        75  TIP3  H1            2.4907042751      -11.5838337163       -5.8139987604  CLST          75          1.0000000000
       225        75  TIP3  H2            2.7014879433      -13.1033852826       -5.1699040591  CLST          75          1.0000000000
       226        76  TIP3  OH2           4.0335055621       -9.7261294223        1.1645684811  CLST          76          1.0000000000
       227        76  TIP3  H1            4.3479390168      -10.9809226306        1.0366029080  CLST          76          1.0000000000
       228        76  TIP3  H2            2.5162582443      -10.1970663902        1.7512670600  CLST          76          1.0000000000
       229        77  TIP3  OH2          10.1026785160       -8.1104656877       -2.6723032088  CLST          77          1.0000000000
       230        77  TIP3  H1            9.5694510452       -8.8916217560       -2.6910363304  CLST          77          1.0000000000
       231        77  TIP3  H2           10.1491421309       -7.7160731063       -3.5644022704  CLST          77          1.0000000000
       232        78  TIP3  OH2          10.3652339286       11.6951857175       -7.9239217800  CLST          78          1.0000000000
       233        78  TIP3  H1           10.9315392103       11.1119289903       -8.0701283859  CLST          78          1.0000000000
       234        78  TIP3  H2           10.8548972084       12.2569924008       -7.5355639798  CLST          78          1.0000000000
       235        79  TIP3  OH2          12.2658357421        0.5917845207        0.8638727145  CLST          79          1.0000000000
       236        79  TIP3  H1           12.9066548729        0.5189058555        1.3497416445  CLST          79          1.0000000000
       237        79  TIP3  H2           11.8032994270        1.4497124868        1.0862909453  CLST          79          1.0000000000
       238        80  TIP3  OH2          -7.6005793976        0.2244602026        6.6011788501  CLST          80          1.0000000000
       239        80  TIP3  H1           -7.6603748293        0.4324761961        5.6361510939  CLST          80          1.0000000000
       240        80  TIP3  H2           -6.6614552653        0.0192109799        6.7758253114  CLST          80          1.0000000000
       241        81  TIP3  OH2          -7.4755061127      -11.0567162192        2.1799956170  CLST          81          1.0000000000
       242        81  TIP3  H1           -6.6205499367      -11.0643230559        1.6501966469  CLST          81          1.0000000000
       243        81  TIP3  H2           -6.9864863978      -11.1167378365        3.1722697661  CLST          81          1.0000000000
       244        82  TIP3  OH2          -1.4251560215       -9.6750169006       -6.7747691590  CLST          82          1.0000000000
       245        82  TIP3  H1           -1.6227629062      -10.9051008557       -6.3300610049  CLST          82          1.0000000000
       246        82  TIP3  H2           -1.5509115106      -12.1289485946       -5.6541791970  CLST          82          1.0000000000
       247        83  TIP3  OH2          12.0855407089       -8.6853580013        1.4953229924  CLST          83          1.0000000000
       248        83  TIP3  H1           12.5346601493       -7.9932625498        2.0019350168  CLST          83          1.0000000000
       249        83  TIP3  H2           11.1245056391       -8.3292799281        1.4818762680  CLST          83          1.0000000000
       250        84  TIP3  OH2          -3.4077456541       10.5928298196       -1.9996774044  CLST          84          1.0000000000
       251        84  TIP3  H1           -5.8616144256       10.7155052653       -2.8995212388  CLST          84          1.0000000000
       252        84  TIP3  H2           -4.5187778333       11.0143815222       -2.6162639785  CLST          84          1.0000000000
       253        85  TIP3  OH2           5.9726047262       -1.9303102696       -0.0797949221  CLST          85          1.0000000000
       254        85  TIP3  H1            6.0733983259       -1.3551252579        0.6962905855  CLST          85          1.0000000000
       255        85  TIP3  H2            6.7856344552       -2.4755545812        0.0108477696  CLST          85          1.0000000000
       256        86  TIP3  OH2           6.6904682748       -8.4156508763        5.8355836783  CLST          86          1.0000000000
       257        86  TIP3  H1            5.9542967510       -8.6206382547        6.4647273794  CLST          86          1.0000000000
       258        86  TIP3  H2            6.3662059077       -7.5406383288        5.5061728496  CLST          86          1.0000000000
       259        87  TIP3  OH2          -1.6558551515       -3.6350787699       10.4536618263  CLST          87          1.0000000000
       260        87  TIP3  H1           -1.0502630982       -4.0357285804       11.1112105739  CLST          87          1.0000000000
       261        87  TIP3  H2           -2.5040095466       -4.2303361836       10.6587805093  CLST          87          1.0000000000
       262        88  TIP3  OH2          -0.6720265492        4.5015008908       -8.1013887291  CLST          88          1.0000000000
       263        88  TIP3  H1           -0.9989210926        3.3409396884       -7.3034201954  CLST          88          1.0000000000
       264        88  TIP3  H2           -1.3808083332        4.2283537093       -6.9877516779  CLST          88          1.0000000000
       265        89  TIP3  OH2           3.5213452465        0.6243739521      -11.4309497439  CLST          89          1.0000000000
       266        89  TIP3  H1            3.6801292715        0.9643329837      -12.1075384500  CLST          89          1.0000000000
       267        89  TIP3  H2            4.2914252970       -0.3728697706      -10.9088377519  CLST          89          1.0000000000
       268        90  TIP3  OH2           5.4317530769       10.8482811832       -5.5091743756  CLST          90          1.0000000000
       269        90  TIP3  H1            5.0778288704       12.0237807085       -5.2229445591  CLST          90          1.0000000000
       270        90  TIP3  H2            5.1933932798       11.7278134073       -6.4246812197  CLST          90          1.0000000000
       271        91  TIP3  OH2           5.4437235995       -7.9827022537      -11.9593611200  CLST          91          1.0000000000
       272        91  TIP3  H1            6.0123659301       -9.0574927268      -11.5378217759  CLST          91          1.0000000000
       273        91  TIP3  H2            6.1136060291       -8.1178373082      -10.7424237510  CLST          91          1.0000000000
       274        92  TIP3  OH2           9.6057786218       11.5127622918        2.4622375601  CLST          92          1.0000000000
       275        92  TIP3  H1            9.9162790469       11.5641726095        3.3921036729  CLST          92          1.0000000000
       276        92  TIP3  H2            9.2479111001       12.4291319219        2.3436270071  CLST          92          1.0000000000
       277        93  TIP3  OH2          -8.6411685814        7.1659063205        2.6016856185  CLST          93          1.0000000000
       278        93  TIP3  H1           -8.3225970765        7.8575779785        2.0340346312  CLST          93          1.0000000000
       279        93  TIP3  H2           -7.7726285513        6.8546398997        3.1934523390  CLST          93          1.0000000000
       280        94  TIP3  OH2         -14.1895999501        6.4540985035        6.3486633554  CLST          94          1.0000000000
       281        94  TIP3  H1          -13.4800814383        7.1704470993        6.2547149684  CLST          94          1.0000000000
       282        94  TIP3  H2          -14.3671681162        6.3016456668        5.5031320653  CLST          94          1.0000000000
       283        95  TIP3  OH2           9.6993212661        5.6786749682       -1.7848455136  CLST          95          1.0000000000
       284        95  TIP3  H1            9.8613518651        5.8697394362       -0.8125637292  CLST          95          1.0000000000
       285        95  TIP3  H2           10.2511905937        4.8238634490       -1.8202405167  CLST          95          1.0000000000
       286        96  TIP3  OH2           9.4873164763      -10.7734073876       11.1668063738  CLST          96          1.0000000000
       287        96  TIP3  H1           10.2263717671      -11.1304812053       10.6123491574  CLST          96          1.0000000000
       288        96  TIP3  H2            9.0963290683      -11.6186476671       11.4529791143  CLST          96          1.0000000000
       289        97  TIP3  OH2          -7.7498702146        6.6433967168        8.2268958649  CLST          97          1.0000000000
       290        97  TIP3  H1           -7.9826905337        5.4170955832        8.6920458167  CLST          97          1.0000000000
       291        97  TIP3  H2           -8.9307491638        5.9552942896        8.4392449913  CLST          97          1.0000000000
       292        98  TIP3  OH2           5.8533851016        0.6011559264       -3.3792386404  CLST          98          1.0000000000
       293        98  TIP3  H1            6.6760720182        0.3882357480       -2.9499280977  CLST          98          1.0000000000
       294        98  TIP3  H2            5.1722558225       -0.0265033400       -3.1443395693  CLST          98          1.0000000000
       295        99  TIP3  OH2          -6.5759356745      -11.4856366813        4.7721896999  CLST          99          1.0000000000
       296        99  TIP3  H1           -7.0314899866      -11.0905001102        5.5415123020  CLST          99          1.0000000000
       297        99  TIP3  H2           -5.8439835184      -12.0143545801        5.2037045204  CLST          99          1.0000000000
       298       100  TIP3  OH2           2.4538626851        0.4533037943       -8.8232803607  CLST         100          1.0000000000
       299       100  TIP3  H1            2.3996502317        1.1236089328      -10.1673090083  CLST         100          1.0000000000
       300       100  TIP3  H2            0.6170829835        6.3401576104       -7.0350043006  CLST         100          1.0000000000
       301       101  TIP3  OH2          12.4235468432       -6.5779132482        3.7510211652  CLST         101          1.0000000000
       302       101  TIP3  H1           12.6039786596       -7.1213795909        4.5401730145  CLST         101          1.0000000000
       303       101  TIP3  H2           13.0507266893       -5.9102335035        3.7625057995  CLST         101          1.0000000000
       304       102  TIP3  OH2         -12.1559632174       10.2561172485        1.3781485662  CLST         102          1.0000000000
       305       102  TIP3  H1          -12.7501065283       10.1354399859        2.2170351392  CLST         102          1.0000000000
       306       102  TIP3  H2          -12.7276987090        9.7249771926        0.7437897530  CLST         102          1.0000000000
       307       103  TIP3  OH2          -0.8604656953       -9.3144060492        7.7256032142  CLST         103          1.0000000000
       308       103  TIP3  H1           -0.1838925439       -9.4106663848        8.4460282827  CLST         103          1.0000000000
       309       103  TIP3  H2           -1.3635762751      -10.1584986393        7.9572967492  CLST         103          1.0000000000
       310       104  TIP3  OH2          -4.2228764308      -12.0702049411        9.8848730235  CLST         104          1.0000000000
       311       104  TIP3  H1           -6.0592780882      -11.3154382433       10.7691382669  CLST         104          1.0000000000
       312       104  TIP3  H2           -4.8895870305      -11.7504139462       10.2990769117  CLST         104          1.0000000000
       313       105  TIP3  OH2          -5.4332970046       10.7843472262      -11.4823023382  CLST         105          1.0000000000
       314       105  TIP3  H1           -4.7987436424       11.1878043302      -12.8207586810  CLST         105          1.0000000000
       315       105  TIP3  H2           -5.6710675233       10.5766935840      -11.6019324900  CLST         105          1.0000000000
       316       106  TIP3  OH2           7.1473785793       -7.9214426470       -1.3680983765  CLST         106          1.0000000000
       317       106  TIP3  H1            7.9710472299       -7.4847076356       -1.6138102571  CLST         106          1.0000000000
       318       106  TIP3  H2            7.3949988075       -8.8839935021       -1.3786324179  CLST         106          1.0000000000
       319       107  TIP3  OH2          -8.3546147440       -4.8365168192        5.0928644661  CLST         107          1.0000000000
       320       107  TIP3  H1           -8.6093960657       -3.4386055003        4.2663147368  CLST         107          1.0000000000
       321       107  TIP3  H2           -7.2064793688       -4.2072408352        4.6969944633  CLST         107          1.0000000000
       322       108  TIP3  OH2         -10.6830440664        2.2755509954        8.8847256081  CLST         108          1.0000000000
       323       108  TIP3  H1           -9.4107932130        1.9260906755        9.1573230214  CLST         108          1.0000000000
       324       108  TIP3  H2          -10.7572619597        1.1646386597        9.6297704972  CLST         108          1.0000000000
       325       109  TIP3  OH2           2.3986573192        7.1617972737        8.8128744706  CLST         109          1.0000000000
       326       109  TIP3  H1            1.7310734436        6.5055152489        9.0638667279  CLST         109          1.0000000000
       327       109  TIP3  H2            3.1621023964        6.5425975062        8.6818784978  CLST         109          1.0000000000
       328       110  TIP3  OH2           1.7537903588       12.1974725465      -11.3171175229  CLST         110          1.0000000000
       329       110  TIP3  H1            2.4535661518       12.8269093628      -11.0385774995  CLST         110          1.0000000000
       330       110  TIP3  H2            1.3171131284       12.0627747373      -10.3324535209  CLST         110          1.0000000000
       331       111  TIP3  OH2          11.6030218643      -11.6785928400        9.3977542528  CLST         111          1.0000000000
       332       111  TIP3  H1           12.4756850917      -12.0476912942        9.5017804028  CLST         111          1.0000000000
       333       111  TIP3  H2           11.2624829581      -12.3607982738        8.7571173450  CLST         111          1.0000000000
       334       112  TIP3  OH2           6.1989923024        0.1682958462        1.6702129139  CLST         112          1.0000000000
       335       112  TIP3  H1            6.7874992222        0.9758199160        1.8532494572  CLST         112          1.0000000000
       336       112  TIP3  H2            6.1103360616       -0.1235563301        2.6345590047  CLST         112          1.0000000000
       337       113  TIP3  OH2         -12.5871673711        1.0233025827        0.0355696847  CLST         113          1.0000000000
       338       113  TIP3  H1          -13.2287762397       -0.1802547413        0.2428778830  CLST         113          1.0000000000
       339       113  TIP3  H2          -12.6518985715        0.4277920411       -0.5969534672  CLST         113          1.0000000000
       340       114  TIP3  OH2         -13.6756380871        3.7547806884       -0.3298386162  CLST         114          1.0000000000
       341       114  TIP3  H1          -13.3299720202        2.0803330011       -0.7053293167  CLST         114          1.0000000000
       342       114  TIP3  H2          -13.1923029998        3.3617325986       -1.5799533939  CLST         114          1.0000000000
       343       115  TIP3  OH2          -9.1783212916        0.0489696007      -10.6474256870  CLST         115          1.0000000000
       344       115  TIP3  H1           -8.2629736621        1.1609735668      -11.4479212649  CLST         115          1.0000000000
       345       115  TIP3  H2          -10.0813582420       -0.3046463115      -10.3125379587  CLST         115          1.0000000000
       346       116  TIP3  OH2           6.7503757325       -5.6198197528        2.0965655812  CLST         116          1.0000000000
       347       116  TIP3  H1            7.3222552739       -5.8256790887        1.3290085596  CLST         116          1.0000000000
       348       116  TIP3  H2            6.9097142378       -4.6430303857        2.1614225302  CLST         116          1.0000000000
       349       117  TIP3  OH2          -0.6452772407        0.2485505944       12.6519153605  CLST         117          1.0000000000
       350       117  TIP3  H1            0.0316650992       -0.2286148928       12.8482859765  CLST         117          1.0000000000
       351       117  TIP3  H2           -0.9511834264        0.5027309509       13.4055182366  CLST         117          1.0000000000
       352       118  TIP3  OH2           0.2345884944       -9.5543695016        5.1669557484  CLST         118          1.0000000000
       353       118  TIP3  H1           -0.0725775062       -9.2028849874        6.0271077116  CLST         118          1.0000000000
       354       118  TIP3  H2            0.0421524880       -8.8133164241        4.5286620822  CLST         118          1.0000000000
       355       119  TIP3  OH2          -9.1997273690      -10.6539454432       -8.4028104736  CLST         119          1.0000000000
       356       119  TIP3  H1          -10.0425030404      -11.4048111118      -10.7720062965  CLST         119          1.0000000000
       357       119  TIP3  H2           -9.1483754319      -10.6514168908      -10.1376053209  CLST         119          1.0000000000
       358       120  TIP3  OH2           9.6076144521       -7.8244786635        1.3064112584  CLST         120          1.0000000000
       359       120  TIP3  H1            8.9088299924       -8.4481754689        1.0357162988  CLST         120          1.0000000000
       360       120  TIP3  H2            9.4400928753       -7.0578891235        0.6932370246  CLST         120          1.0000000000
       361       121  TIP3  OH2          -5.6034989534       -0.3776523087       -8.1123918094  CLST         121          1.0000000000
       362       121  TIP3  H1           -5.5766840349       -0.2595420713       -9.1198449032  CLST         121          1.0000000000
       363       121  TIP3  H2           -4.8153365997       -1.1002544871       -8.0529662990  CLST         121          1.0000000000
       364       122  TIP3  OH2          10.2288135419       11.7514634865        5.0345539515  CLST         122          1.0000000000
       365       122  TIP3  H1            9.3271033697       12.1783282651        5.1790039619  CLST         122          1.0000000000
       366       122  TIP3  H2           10.6498497048       12.1747179466        5.8012822267  CLST         122          1.0000000000
       367       123  TIP3  OH2          -7.1178662182       -5.3565878896      -11.1044825856  CLST         123          1.0000000000
       368       123  TIP3  H1           -6.5024627028       -5.1697687186      -11.6595818670  CLST         123          1.0000000000
       369       123  TIP3  H2           -6.7670261388       -4.7899931818       -8.9579442372  CLST         123          1.0000000000
       370       124  TIP3  OH2          -6.0444975628       -8.5108452610      -10.5763061520  CLST         124          1.0000000000
       371       124  TIP3  H1           -5.5011352781       -8.7173385010      -10.3391425847  CLST         124          1.0000000000
       372       124  TIP3  H2           -7.0608221920       -7.8535395550       -9.8654660912  CLST         124          1.0000000000
       373       125  TIP3  OH2         -13.1629823237        4.2358177843        8.2094048197  CLST         125          1.0000000000
       374       125  TIP3  H1          -12.4009463435        2.7940808103        6.5298957714  CLST         125          1.0000000000
       375       125  TIP3  H2          -13.4274770881        4.2374186431        7.3604822013  CLST         125          1.0000000000
       376       126  TIP3  OH2          -7.0171943457      -10.6781715741      -12.0124861837  CLST         126          1.0000000000
       377       126  TIP3  H1           -6.1500977622      -11.0835136005      -11.5057024805  CLST         126          1.0000000000
       378       126  TIP3  H2           -6.8445454956       -9.7262426937      -11.4956415127  CLST         126          1.0000000000
       379       127  TIP3  OH2          -7.3169132272      -11.5921789656       -7.0639889080  CLST         127          1.0000000000
       380       127  TIP3  H1           -8.3256411629      -11.9693459340       -7.4176710209  CLST         127          1.0000000000
       381       127  TIP3  H2           -8.1524520180      -10.8952429097       -7.7946230912  CLST         127          1.0000000000
       382       128  TIP3  OH2           9.8633192242        0.8911512224       -2.3390296222  CLST         128          1.0000000000
       383       128  TIP3  H1            8.6957340281        0.7412339877       -2.3947066483  CLST         128          1.0000000000
       384       128  TIP3  H2            9.0754973898        1.1774762366       -3.3117632167  CLST         128          1.0000000000
       385       129  TIP3  OH2          -7.5780928617        9.4794824709        1.0414095515  CLST         129          1.0000000000
       386       129  TIP3  H1           -6.7687760394        9.9675553438        1.3957218742  CLST         129          1.0000000000
       387       129  TIP3  H2           -6.9834431239        8.7471671207        0.6205798696  CLST         129          1.0000000000
       388       130  TIP3  OH2          -4.1832322764        3.9085901797        9.9569246728  CLST         130          1.0000000000
       389       130  TIP3  H1           -3.7658708847        4.8023601477       10.0364795649  CLST         130          1.0000000000
       390       130  TIP3  H2           -3.7233724371        3.4248250870       10.7617979983  CLST         130          1.0000000000
       391       131  TIP3  OH2           8.0065741538       -4.0408947045       -9.7602329089  CLST         131          1.0000000000
       392       131  TIP3  H1            8.2259027771       -2.7376321915       -9.2486876369  CLST         131          1.0000000000
       393       131  TIP3  H2            6.5385426405       -4.0183365711       -9.6382355831  CLST         131          1.0000000000
       394       132  TIP3  OH2         -11.3704236933       11.2281371590       12.1596697531  CLST         132          1.0000000000
       395       132  TIP3  H1          -10.8174758225       11.8950063124       11.4227323241  CLST         132          1.0000000000
       396       132  TIP3  H2          -11.7049965543       11.5217546602       12.7109102584  CLST         132          1.0000000000
       397       133  TIP3  OH2          10.2979827640        8.9942993019        8.6505296849  CLST         133          1.0000000000
       398       133  TIP3  H1           10.5643903112        8.5615065416        9.5153661741  CLST         133          1.0000000000
       399       133  TIP3  H2           11.0816906698        9.6067198042        8.5820124027  CLST         133          1.0000000000
       400       134  TIP3  OH2          -7.7081744189        6.0029971290       -6.1592137854  CLST         134          1.0000000000
       401       134  TIP3  H1           -8.5715531859        6.4324375743       -6.0129633177  CLST         134          1.0000000000
       402       134  TIP3  H2           -7.4281220762        5.9527128402       -5.2269962698  CLST         134          1.0000000000
       403       135  TIP3  OH2          10.6203054590      -11.0331363647      -12.9431432652  CLST         135          1.0000000000
       404       135  TIP3  H1           10.7968777891      -10.0973066549      -12.4410361204  CLST         135          1.0000000000
       405       135  TIP3  H2           10.3677470842      -10.9763225630      -13.7787706356  CLST         135          1.0000000000
       406       136  TIP3  OH2          -4.2028820777        1.7965723704       -6.9965656065  CLST         136          1.0000000000
       407       136  TIP3  H1           -4.6955118882        0.9353193860       -7.3257601673  CLST         136          1.0000000000
       408       136  TIP3  H2           -4.9749677167        2.2862550457       -6.6254454675  CLST         136          1.0000000000
       409       137  TIP3  OH2          12.8658320140       10.5030977757        8.9988787200  CLST         137          1.0000000000
       410       137  TIP3  H1           13.0277532884       10.3083554858        9.9220880339  CLST         137          1.0000000000
       411       137  TIP3  H2           13.6384122267       10.0683698502        8.5727268068  CLST         137          1.0000000000
       412       138  TIP3  OH2          -0.8569344888       -9.7366355535        1.5400562324  CLST         138          1.0000000000
       413       138  TIP3  H1           -0.8259914101       -9.1220371927        0.7321247445  CLST         138          1.0000000000
       414       138  TIP3  H2           -0.8825076456       -8.9751205798        2.2235096214  CLST         138          1.0000000000
       415       139  TIP3  OH2          -9.5187092927      -10.4654917314        4.6371975985  CLST         139          1.0000000000
       416       139  TIP3  H1          -10.2840501085      -10.3433144078        3.9531261531  CLST         139          1.0000000000
       417       139  TIP3  H2           -8.9417128876      -11.0422982316        3.9190238762  CLST         139          1.0000000000
       418       140  TIP3  OH2          -7.1315610620        3.4833528174       -0.2252657371  CLST         140          1.0000000000
       419       140  TIP3  H1           -6.2807178754        4.0303257520       -0.0285802235  CLST         140          1.0000000000
       420       140  TIP3  H2           -7.7338396775        4.2600660763       -0.3352780098  CLST         140          1.0000000000
       421       141  TIP3  OH2           2.1862363466       -4.3873248337       -3.4968207787  CLST         141          1.0000000000
       422       141  TIP3  H1            1.5581977485       -3.5280985022       -3.1612397392  CLST         141          1.0000000000
       423       141  TIP3  H2            2.2448099509       -3.9626233825       -4.4187482659  CLST         141          1.0000000000
       424       142  TIP3  OH2         -11.5104708419        0.0575435192        4.7568196301  CLST         142          1.0000000000
       425       142  TIP3  H1          -11.4729041203        0.9751774428        5.5924153476  CLST         142          1.0000000000
       426       142  TIP3  H2          -11.7054608760        0.4357572025        4.7859524690  CLST         142          1.0000000000
       427       143  TIP3  OH2           9.5885139960       -5.4028487028       -8.3365155065  CLST         143          1.0000000000
       428       143  TIP3  H1            8.7815674505       -4.8686438288       -9.2149589570  CLST         143          1.0000000000
       429       143  TIP3  H2            4.2205046171       -4.8737555984       -9.6702982940  CLST         143          1.0000000000
       430       144  TIP3  OH2           3.5056256785       -2.6128341676        8.9387518068  CLST         144          1.0000000000
       431       144  TIP3  H1            2.6197787376       -2.2590520328        9.2573956847  CLST         144          1.0000000000
       432       144  TIP3  H2            3.6866349558       -1.8550678779        8.2864721249  CLST         144          1.0000000000
       433       145  TIP3  OH2         -10.2743727807       12.9171391078        3.2824535398  CLST         145          1.0000000000
       434       145  TIP3  H1          -10.7082752922       12.6510526662        2.1447014429  CLST         145          1.0000000000
       435       145  TIP3  H2          -10.0485918370       11.6988490022        2.7395921809  CLST         145          1.0000000000
       436       146  TIP3  OH2           9.2237676001        2.6972419448       -4.3277003351  CLST         146          1.0000000000
       437       146  TIP3  H1            8.7459530865        3.8837708249       -4.3826620077  CLST         146          1.0000000000
       438       146  TIP3  H2            8.0738410453        2.7641118109       -5.3265019986  CLST         146          1.0000000000
       439       147  TIP3  OH2         -10.8115747690       -0.4488519306       -3.9320367919  CLST         147          1.0000000000
       440       147  TIP3  H1          -10.8282998625       -0.8230690954       -5.2258355099  CLST         147          1.0000000000
       441       147  TIP3  H2          -10.9646549479       -1.4790658262       -5.7615142460  CLST         147          1.0000000000
       442       148  TIP3  OH2          -8.2813888806        1.3559864052        8.8836974817  CLST         148          1.0000000000
       443       148  TIP3  H1           -8.1137255952        1.1775539038        7.8155152506  CLST         148          1.0000000000
       444       148  TIP3  H2           -7.2957017120        1.6521148202        9.0928969795  CLST         148          1.0000000000
       445       149  TIP3  OH2           8.5233573120       -2.8131544336        0.6649732264  CLST         149          1.0000000000
       446       149  TIP3  H1            9.2056185360       -2.1140138987        0.4341274859  CLST         149          1.0000000000
       447       149  TIP3  H2            8.3980805443       -2.8384090612        1.6133069317  CLST         149          1.0000000000
       448       150  TIP3  OH2          -2.0831246084      -11.5200215651        8.4471368433  CLST         150          1.0000000000
       449       150  TIP3  H1           -3.0218509987      -11.6211361589        8.9147866004  CLST         150          1.0000000000
       450       150  TIP3  H2           -1.5407769239      -11.9149296926        9.2023955598  CLST         150          1.0000000000
       451       151  TIP3  OH2          -9.2498598351       -6.1971653274       -5.0374987420  CLST         151          1.0000000000
       452       151  TIP3  H1           -8.2651133734       -6.9209876786       -4.7227963381  CLST         151          1.0000000000
       453       151  TIP3  H2           -9.1063098875       -7.3655475244       -5.3851767002  CLST         151          1.0000000000
       454       152  TIP3  OH2           4.0400230714       -2.0105770774        5.0673296400  CLST         152          1.0000000000
       455       152  TIP3  H1            4.4538075823       -2.8683216615        5.4222086435  CLST         152          1.0000000000
       456       152  TIP3  H2            3.7268123741       -2.4655056297        4.2056293748  CLST         152          1.0000000000
       457       153  TIP3  OH2          -2.7215345884        4.8669658294      -13.8490278613  CLST         153          1.0000000000
       458       153  TIP3  H1           -1.8173208733        5.1775748995      -13.5687602495  CLST         153          1.0000000000
       459       153  TIP3  H2           -2.7913568537        4.1573597420      -13.1960477724  CLST         153          1.0000000000
       460       154  TIP3  OH2           4.3958911897       -6.7790770284        2.1210512912  CLST         154          1.0000000000
       461       154  TIP3  H1            5.2881991906       -6.4375887835        1.8820468129  CLST         154          1.0000000000
       462       154  TIP3  H2            3.7913254770       -6.4371674434        1.4064036274  CLST         154          1.0000000000
       463       155  TIP3  OH2           9.2289330584       -2.7897762107       10.0041415663  CLST         155          1.0000000000
       464       155  TIP3  H1            7.9644723583       -3.4760548966        9.2650639260  CLST         155          1.0000000000
       465       155  TIP3  H2            9.3164577844       -3.5952828104       10.1625555539  CLST         155          1.0000000000
       466       156  TIP3  OH2          -2.0107160858       11.3016526590       11.5131027761  CLST         156          1.0000000000
       467       156  TIP3  H1           -2.5344883139       12.0195827668       11.9118381403  CLST         156          1.0000000000
       468       156  TIP3  H2           -2.7653987552       10.6485715845       11.3895071734  CLST         156          1.0000000000
       469       157  TIP3  OH2           3.9764492845       -0.7429133472        7.3473699313  CLST         157          1.0000000000
       470       157  TIP3  H1            4.9326030105       -0.6521197835        7.5595986078  CLST         157          1.0000000000
       471       157  TIP3  H2            4.0163160882       -1.2435345433        6.4966067724  CLST         157          1.0000000000
       472       158  TIP3  OH2          10.6247956526        8.9764915780       13.1826180585  CLST         158          1.0000000000
       473       158  TIP3  H1           10.1721799063        8.6914656577       13.9618263620  CLST         158          1.0000000000
       474       158  TIP3  H2            9.8380602406        9.3501746217       12.7370461465  CLST         158          1.0000000000
       475       159  TIP3  OH2           0.4353254122      -12.0867308681        4.2398592050  CLST         159          1.0000000000
       476       159  TIP3  H1           -0.2748403982      -12.4671689009        4.8361720969  CLST         159          1.0000000000
       477       159  TIP3  H2            0.3793256427      -11.1712747517        4.6460967073  CLST         159          1.0000000000
       478       160  TIP3  OH2           7.2466045864       -3.3258721865        8.7682889915  CLST         160          1.0000000000
       479       160  TIP3  H1            6.9738460719       -3.6737024899        7.8946503595  CLST         160          1.0000000000
       480       160  TIP3  H2            6.8803614518       -2.3190696709        8.5803994885  CLST         160          1.0000000000
       481       161  TIP3  OH2          -2.4619808445       -2.1815450615        7.7235306842  CLST         161          1.0000000000
       482       161  TIP3  H1           -2.0448310639       -1.7467728666        8.5218733157  CLST         161          1.0000000000
       483       161  TIP3  H2           -3.3033781534       -2.4981444500        8.1388154950  CLST         161          1.0000000000
       484       162  TIP3  OH2          -0.7144389640        3.3738207612      -10.8795946875  CLST         162          1.0000000000
       485       162  TIP3  H1           -0.4832045055        4.4797264640      -11.8189724858  CLST         162          1.0000000000
       486       162  TIP3  H2           -0.6353997288        4.1086778932       -9.5991746921  CLST         162          1.0000000000
       487       163  TIP3  OH2         -10.0697252158        8.9389979630       10.9740617104  CLST         163          1.0000000000
       488       163  TIP3  H1          -11.0503374627        7.8986198857       11.0073319889  CLST         163          1.0000000000
       489       163  TIP3  H2          -10.9396466316        9.7275090383       11.9141190759  CLST         163          1.0000000000
       490       164  TIP3  OH2           3.9861152811      -10.3286895928       12.9436121460  CLST         164          1.0000000000
       491       164  TIP3  H1            4.5132070436       -9.6011649569       12.5704132406  CLST         164          1.0000000000
       492       164  TIP3  H2            4.6699066504      -11.0006341527       12.7834115815  CLST         164          1.0000000000
       493       165  TIP3  OH2         -11.8071538815       -5.3649405450        3.4481251065  CLST         165          1.0000000000
       494       165  TIP3  H1          -11.3532643816       -6.1087413621        5.0017336407  CLST         165          1.0000000000
       495       165  TIP3  H2          -12.6148816447       -5.8384060883        3.7113555370  CLST         165          1.0000000000
       496       166  TIP3  OH2          -1.3551638226       -6.1478489521      -10.2781105413  CLST         166          1.0000000000
       497       166  TIP3  H1            0.6000831599       -7.4654395347      -11.1669555493  CLST         166          1.0000000000
       498       166  TIP3  H2           -0.5482875685       -6.3345561712      -10.0957313259  CLST         166          1.0000000000
       499       167  TIP3  OH2           8.0962683549       10.6448540325       -0.9953572740  CLST         167          1.0000000000
       500       167  TIP3  H1            8.6245881902       10.1639105217       -0.2740460501  CLST         167          1.0000000000
       501       167  TIP3  H2            8.4141477673       10.0547865947       -1.7388738762  CLST         167          1.0000000000
       502       168  TIP3  OH2          -0.8157635658      -13.2931987952        1.9859161354  CLST         168          1.0000000000
       503       168  TIP3  H1           -0.2669829047      -12.9705855415        2.7527032564  CLST         168          1.0000000000
       504       168  TIP3  H2           -0.1140593377      -13.7213531197        1.5032009615  CLST         168          1.0000000000
       505       169  TIP3  OH2           4.8829698875        4.0037376869        3.2090102829  CLST         169          1.0000000000
       506       169  TIP3  H1            3.9442351399        3.6431559204        3.2381681014  CLST         169          1.0000000000
       507       169  TIP3  H2            4.7339550057        4.5966587993        2.3956020096  CLST         169          1.0000000000
       508       170  TIP3  OH2          -1.1532862937        4.1511492696        1.7598642932  CLST         170          1.0000000000
       509       170  TIP3  H1           -1.8034533621        4.8387756449        1.4184504859  CLST         170          1.0000000000
       510       170  TIP3  H2           -1.5065213661        3.2660742601        1.6380401047  CLST         170          1.0000000000
       511       171  TIP3  OH2          -2.9343207152        1.2777474920        7.2258305235  CLST         171          1.0000000000
       512       171  TIP3  H1           -2.3718506491        0.7928103208        6.5557274062  CLST         171          1.0000000000
       513       171  TIP3  H2           -2.2049536734        1.8107705116        7.6311627508  CLST         171          1.0000000000
       514       172  TIP3  OH2          -6.5000439299      -12.6671673974        8.1638714488  CLST         172          1.0000000000
       515       172  TIP3  H1           -5.4084747008      -15.0825165159        7.8044774802  CLST         172          1.0000000000
       516       172  TIP3  H2           -5.3915924430      -12.9901516413        7.4720222338  CLST         172          1.0000000000
       517       173  TIP3  OH2          10.3540836830      -12.5413908880        1.6972346635  CLST         173          1.0000000000
       518       173  TIP3  H1           10.5181468973      -12.2768771294        0.3888785658  CLST         173          1.0000000000
       519       173  TIP3  H2            9.4905443231      -12.1612471609        0.6719348833  CLST         173          1.0000000000
       520       174  TIP3  OH2          -0.0385731760        5.3395734880        9.6156921850  CLST         174          1.0000000000
       521       174  TIP3  H1           -0.2914410253        4.5947629092       10.1865528325  CLST         174          1.0000000000
       522       174  TIP3  H2           -0.8352353497        5.8978168605        9.7045988567  CLST         174          1.0000000000
       523       175  TIP3  OH2          -5.7433943673       10.3862834481       -3.6675637604  CLST         175          1.0000000000
       524       175  TIP3  H1           -5.4773733298        9.6737583703       -5.4026481510  CLST         175          1.0000000000
       525       175  TIP3  H2           -6.5821646735       10.1571772068       -4.6596412362  CLST         175          1.0000000000
       526       176  TIP3  OH2           6.8124188734        9.1785364193       -7.7580621570  CLST         176          1.0000000000
       527       176  TIP3  H1            7.0298698581       10.7207980909       -7.6809143665  CLST         176          1.0000000000
       528       176  TIP3  H2            6.5627524032       10.1284836539       -6.9206099549  CLST         176          1.0000000000
       529       177  TIP3  OH2          -3.7313690140      -11.3183641282       -1.5646918883  CLST         177          1.0000000000
       530       177  TIP3  H1           -2.9866442960      -11.8968704578       -1.2251709115  CLST         177          1.0000000000
       531       177  TIP3  H2           -4.2468769189      -11.1551612897       -0.5931817496  CLST         177          1.0000000000
       532       178  TIP3  OH2          10.7828117454       -8.8767932939      -11.2695380774  CLST         178          1.0000000000
       533       178  TIP3  H1           10.8929822852       -8.5300161204      -10.1718780420  CLST         178          1.0000000000
       534       178  TIP3  H2           10.2836303060       -7.5945881601      -11.5729491982  CLST         178          1.0000000000
       535       179  TIP3  OH2           6.4876197555       -0.7493433712        8.3088012788  CLST         179          1.0000000000
       536       179  TIP3  H1            6.3353771731       -0.0962510799        9.0379436547  CLST         179          1.0000000000
       537       179  TIP3  H2            7.0716565624       -0.2320107828        7.7045784696  CLST         179          1.0000000000
       538       180  TIP3  OH2          -7.4499784489        7.9024162171        5.9467544911  CLST         180          1.0000000000
       539       180  TIP3  H1           -7.6973061096        7.3236656823        7.0819908975  CLST         180          1.0000000000
       540       180  TIP3  H2           -8.6540165029        7.9948502678        6.6673686934  CLST         180          1.0000000000
       541       181  TIP3  OH2           5.6739466969      -12.6156033826       -0.2836183361  CLST         181          1.0000000000
       542       181  TIP3  H1            6.4313800052      -12.8521256238        0.7177317422  CLST         181          1.0000000000
       543       181  TIP3  H2            7.5333184912      -13.2550220800        1.7165991986  CLST         181          1.0000000000
       544       182  TIP3  OH2          -1.8633183633       10.4315577811      -10.1200413334  CLST         182          1.0000000000
       545       182  TIP3  H1           -1.1148729957       10.7614061552       -9.5900093224  CLST         182          1.0000000000
       546       182  TIP3  H2           -2.5283092822       10.0445853909       -9.4720018445  CLST         182          1.0000000000
       547       183  TIP3  OH2          -5.4305365102        3.7205603431      -12.1990408967  CLST         183          1.0000000000
       548       183  TIP3  H1           -5.2123460725        3.5521784844      -11.2593534774  CLST         183          1.0000000000
       549       183  TIP3  H2           -6.3858177180        3.1499870724      -12.1421700966  CLST         183          1.0000000000
       550       184  TIP3  OH2           2.9070062136        8.1029348156       -2.3584063785  CLST         184          1.0000000000
       551       184  TIP3  H1            2.7682120750        7.0379722647       -1.3538042376  CLST         184          1.0000000000
       552       184  TIP3  H2            1.4210693346        7.9376952047       -2.6029499011  CLST         184          1.0000000000
       553       185  TIP3  OH2           7.3701152455        4.4060907318       11.9780554474  CLST         185          1.0000000000
       554       185  TIP3  H1            7.7075637906        3.4849527024       11.9748568833  CLST         185          1.0000000000
       555       185  TIP3  H2            6.8851437082        4.5910101827       12.8093468230  CLST         185          1.0000000000
       556       186  TIP3  OH2           3.4597545331        6.2890512519       -4.7485320192  CLST         186          1.0000000000
       557       186  TIP3  H1            3.4255183804        2.6819291162       -9.0262656811  CLST         186          1.0000000000
       558       186  TIP3  H2            4.7260180495        2.6046670528       -9.0649226320  CLST         186          1.0000000000
       559       187  TIP3  OH2           4.4300741394        1.8357434944       -5.5373386911  CLST         187          1.0000000000
       560       187  TIP3  H1            4.1169257486        1.9059135562       -4.2815859297  CLST         187          1.0000000000
       561       187  TIP3  H2           -0.2767432243       -0.3757784419       -4.7561985582  CLST         187          1.0000000000
       562       188  TIP3  OH2          -4.5092349026       -1.5192664092        4.8220142415  CLST         188          1.0000000000
       563       188  TIP3  H1           -4.5896341686       -0.6896464499        4.1751476066  CLST         188          1.0000000000
       564       188  TIP3  H2           -4.6883636129       -1.0166255445        5.7050889706  CLST         188          1.0000000000
       565       189  TIP3  OH2          -5.0232172242        3.4802542412      -14.8317737097  CLST         189          1.0000000000
       566       189  TIP3  H1           -5.0521370547        3.4413402338      -13.8489906318  CLST         189          1.0000000000
       567       189  TIP3  H2           -4.2586331067        4.0632380008      -14.9190697089  CLST         189          1.0000000000
       568       190  TIP3  OH2           7.0222792929       -5.6723793032        5.0227572612  CLST         190          1.0000000000
       569       190  TIP3  H1            6.8262038362       -5.7283534667        4.0412960420  CLST         190          1.0000000000
       570       190  TIP3  H2            7.9785508684       -5.7667148916        4.9121383012  CLST         190          1.0000000000
       571       191  TIP3  OH2         -10.5348797449       -4.7716469401       -6.3083160710  CLST         191          1.0000000000
       572       191  TIP3  H1          -10.2182589756       -4.5487214320       -6.8320949693  CLST         191          1.0000000000
       573       191  TIP3  H2          -10.4588250368       -6.0656965539       -5.3527492404  CLST         191          1.0000000000
       574       192  TIP3  OH2           8.6352209086       14.0939367802        2.0395013585  CLST         192          1.0000000000
       575       192  TIP3  H1            7.8995018523       14.4560724255        2.5856704718  CLST         192          1.0000000000
       576       192  TIP3  H2            9.2880358957       14.7421825386        1.9889683464  CLST         192          1.0000000000
       577       193  TIP3  OH2           5.8534252021      -12.1313500808       11.5618976841  CLST         193          1.0000000000
       578       193  TIP3  H1            6.5216928289      -12.8278483206       11.3081077202  CLST         193          1.0000000000
       579       193  TIP3  H2            6.0595639965      -11.5023072170       10.8425727458  CLST         193          1.0000000000
       580       194  TIP3  OH2          -6.2838333232       -4.2952362323       10.7991641471  CLST         194          1.0000000000
       581       194  TIP3  H1           -6.8982732049       -4.5981950835       11.4066516872  CLST         194          1.0000000000
       582       194  TIP3  H2           -7.5124479594       -4.3171140609        9.5208634883  CLST         194          1.0000000000
       583       195  TIP3  OH2          -7.5462379234        8.9724733099       10.3720327630  CLST         195          1.0000000000
       584       195  TIP3  H1           -8.7441302923        8.6513581625       10.3955607612  CLST         195          1.0000000000
       585       195  TIP3  H2           -8.1656850654        7.7405142741        9.5487468761  CLST         195          1.0000000000
       586       196  TIP3  OH2           5.7747359279      -12.0211741361       -5.9773178246  CLST         196          1.0000000000
       587       196  TIP3  H1            5.6743488171      -10.9433691447       -5.4458479723  CLST         196          1.0000000000
       588       196  TIP3  H2            4.9121560782      -10.9768278749       -6.2432092511  CLST         196          1.0000000000
       589       197  TIP3  OH2           1.7219757315       -9.2487644184       -2.4872497370  CLST         197          1.0000000000
       590       197  TIP3  H1            2.2306913502       -8.2307055318       -2.0725675762  CLST         197          1.0000000000
       591       197  TIP3  H2            2.6774656925       -9.1078050293       -1.7019269191  CLST         197          1.0000000000
       592       198  TIP3  OH2          10.7238167292        1.8414802216        4.5363383998  CLST         198          1.0000000000
       593       198  TIP3  H1            9.8662614724        1.7722407306        4.9992090988  CLST         198          1.0000000000
       594       198  TIP3  H2           10.5067094063        2.7499795986        4.1516548894  CLST         198          1.0000000000
       595       199  TIP3  OH2           0.0042229650        8.1864815432       -6.0183395331  CLST         199          1.0000000000
       596       199  TIP3  H1           -1.0309659761        8.9843760041       -5.0261337323  CLST         199          1.0000000000
       597       199  TIP3  H2           -0.1388036540        4.9100669679       -4.4166774186  CLST         199          1.0000000000
       598       200  TIP3  OH2          -7.4752184593       11.8475917950       10.5934061504  CLST         200          1.0000000000
       599       200  TIP3  H1           -7.6463349747       10.8711735409       10.3926226837  CLST         200          1.0000000000
       600       200  TIP3  H2           -7.2349409660       12.1860161424        9.5461003669  CLST         200          1.0000000000
       601       201  TIP3  OH2           4.3211701794        0.9012277927       -0.1374156785  CLST         201          1.0000000000
       602       201  TIP3  H1            3.7497208321        1.2584428860        0.5887841016  CLST         201          1.0000000000
       603       201  TIP3  H2            5.0658531113        0.5839675936        0.5144880113  CLST         201          1.0000000000
       604       202  TIP3  OH2          -2.3380218542       -4.8099349223      -12.4501881851  CLST         202          1.0000000000
       605       202  TIP3  H1           -1.6711844298       -5.3105588849      -11.6608931080  CLST         202          1.0000000000
       606       202  TIP3  H2           -2.2258690498       -3.8415212841      -12.3562329073  CLST         202          1.0000000000
       607       203  TIP3  OH2          -0.7491538828       11.2874897527        7.3530716833  CLST         203          1.0000000000
       608       203  TIP3  H1           -0.0225829067       10.7433298251        7.7077632448  CLST         203          1.0000000000
       609       203  TIP3  H2           -1.4707714930       10.8227704081        7.9199053237  CLST         203          1.0000000000
       610       204  TIP3  OH2          -5.3941141984        6.4033358912      -12.9639343590  CLST         204          1.0000000000
       611       204  TIP3  H1           -4.6172911318        6.2027312771      -13.5875148409  CLST         204          1.0000000000
       612       204  TIP3  H2           -5.6860224227        5.4116096216      -12.9557480259  CLST         204          1.0000000000
       613       205  TIP3  OH2          -2.2395318512        7.1268247947       -2.5798068423  CLST         205          1.0000000000
       614       205  TIP3  H1           -1.7681321201        7.9769326958       -3.3810709297  CLST         205          1.0000000000
       615       205  TIP3  H2           -1.0723287508        7.1931258065       -2.8118675741  CLST         205          1.0000000000
       616       206  TIP3  OH2           4.1545952886      -10.8641348901       -9.7410767159  CLST         206          1.0000000000
       617       206  TIP3  H1            4.5570111876      -11.9280122353       -8.6409133117  CLST         206          1.0000000000
       618       206  TIP3  H2            5.3110172256      -10.3532707282       -8.6428550572  CLST         206          1.0000000000
       619       207  TIP3  OH2          12.8272569006        9.8542186792       12.0867453691  CLST         207          1.0000000000
       620       207  TIP3  H1           12.0149344052        9.6197765857       12.5912351055  CLST         207          1.0000000000
       621       207  TIP3  H2           13.4682519709       10.1777234338       12.5061861114  CLST         207          1.0000000000
       622       208  TIP3  OH2         -11.6446963119        2.4820127566        6.7631172043  CLST         208          1.0000000000
       623       208  TIP3  H1          -10.7997791648        2.5717417908        7.7527366865  CLST         208          1.0000000000
       624       208  TIP3  H2          -10.8658916453        3.4694085972        6.9051746532  CLST         208          1.0000000000
       625       209  TIP3  OH2           4.4664076853       -9.3934983869        7.2606557408  CLST         209          1.0000000000
       626       209  TIP3  H1            4.0921348221       -9.6102798841        6.3539514302  CLST         209          1.0000000000
       627       209  TIP3  H2            3.6366203455       -8.8837978427        7.4927576264  CLST         209          1.0000000000
       628       210  TIP3  OH2          11.9306178718      -11.0851999360        5.2826615524  CLST         210          1.0000000000
       629       210  TIP3  H1           12.3850131615      -11.1054626367        3.7038243053  CLST         210          1.0000000000
       630       210  TIP3  H2           12.2956021615      -10.1113914820        5.5437711456  CLST         210          1.0000000000
       631       211  TIP3  OH2          -0.3338170456       -9.1455295668       12.2122056717  CLST         211          1.0000000000
       632       211  TIP3  H1            0.1629542657       -9.6868488665       12.8475647836  CLST         211          1.0000000000
       633       211  TIP3  H2           -1.1431590337       -9.7754795748       12.1622508354  CLST         211          1.0000000000
       634       212  TIP3  OH2         -12.4363367106        3.3026406825       -2.4810570112  CLST         212          1.0000000000
       635       212  TIP3  H1          -11.6963197358        3.3494595012       -2.7915026612  CLST         212          1.0000000000
       636       212  TIP3  H2          -11.5609168910        2.4091041136       -2.2035786042  CLST         212          1.0000000000
       637       213  TIP3  OH2          -9.3080881032      -11.1327716860      -10.9093245590  CLST         213          1.0000000000
       638       213  TIP3  H1           -8.4554836584      -10.9847681576      -11.5297962128  CLST         213          1.0000000000
       639       213  TIP3  H2           -7.4581262111      -10.8483970744      -12.7115544759  CLST         213          1.0000000000
       640       214  TIP3  OH2          -6.3202464642        2.1637361738       -5.3407411410  CLST         214          1.0000000000
       641       214  TIP3  H1           -6.1154827630        1.3423192519       -4.8513644409  CLST         214          1.0000000000
       642       214  TIP3  H2           -7.0365102693        2.5723298982       -4.7271594337  CLST         214          1.0000000000
       643       215  TIP3  OH2         -11.9153856746      -12.3468151102        5.5023120567  CLST         215          1.0000000000
       644       215  TIP3  H1          -11.2191679440      -12.4332145406        5.6193537328  CLST         215          1.0000000000
       645       215  TIP3  H2          -11.8500009734      -12.6134062768        4.2544472385  CLST         215          1.0000000000
       646       216  TIP3  OH2         -11.3577386296       -2.2728314421        8.0800867270  CLST         216          1.0000000000
       647       216  TIP3  H1          -10.1171898387       -2.5534198566        8.1955751734  CLST         216          1.0000000000
       648       216  TIP3  H2          -10.7862382791       -3.2518661288        8.1476611207  CLST         216          1.0000000000
       649       217  TIP3  OH2           7.8249807748       -0.1508840439       -1.7259208910  CLST         217          1.0000000000
       650       217  TIP3  H1            8.2148133647       -1.0787246703       -1.8854103285  CLST         217          1.0000000000
       651       217  TIP3  H2            7.3154318221       -0.3133679023       -0.8802557719  CLST         217          1.0000000000
       652       218  TIP3  OH2          -8.0298044961       -4.2229269982        8.8163284012  CLST         218          1.0000000000
       653       218  TIP3  H1           -9.0442038970       -2.9234369937        8.2461829409  CLST         218          1.0000000000
       654       218  TIP3  H2           -8.6462421621       -5.2184061612        7.7388527005  CLST         218          1.0000000000
       655       219  TIP3  OH2         -12.4676355850       -4.4894009256       -2.7060003123  CLST         219          1.0000000000
       656       219  TIP3  H1          -12.2229359625       -3.1079548879       -2.1266557406  CLST         219          1.0000000000
       657       219  TIP3  H2          -12.3706007945       -6.2413164920       -3.1350025048  CLST         219          1.0000000000
       658       220  TIP3  OH2           6.4578564687        6.7909105697        7.6061686379  CLST         220          1.0000000000
       659       220  TIP3  H1            5.9285138744        6.6053028029        6.7819451899  CLST         220          1.0000000000
       660       220  TIP3  H2            5.7525445021        6.4168452196        8.2123234052  CLST         220          1.0000000000
       661       221  TIP3  OH2         -10.4841457484       -7.0766154920       10.0338940419  CLST         221          1.0000000000
       662       221  TIP3  H1           -9.6240216431       -8.0069840515       10.1843148513  CLST         221          1.0000000000
       663       221  TIP3  H2          -10.2807135076       -9.0019639165        9.4127347795  CLST         221          1.0000000000
       664       222  TIP3  OH2          -7.0358421567       -0.8508743059      -13.5767752533  CLST         222          1.0000000000
       665       222  TIP3  H1           -6.4652752746       -1.6365198613      -13.2177301623  CLST         222          1.0000000000
       666       222  TIP3  H2           -7.9404322835       -1.1789686019      -13.4189746139  CLST         222          1.0000000000
       667       223  TIP3  OH2           2.5977844547      -10.3010163987      -10.9223188611  CLST         223          1.0000000000
       668       223  TIP3  H1            2.6372268532      -11.3965513012      -10.2110086484  CLST         223          1.0000000000
       669       223  TIP3  H2            3.5607488313      -10.7935359057      -10.3418242137  CLST         223          1.0000000000
       670       224  TIP3  OH2           7.5061486921        4.5883600244        0.5885137753  CLST         224          1.0000000000
       671       224  TIP3  H1            8.2485332220        5.0190300755        1.0523693738  CLST         224          1.0000000000
       672       224  TIP3  H2            7.5159988433        4.9670001736       -0.3213712444  CLST         224          1.0000000000
       673       225  TIP3  OH2          -0.1826063992        4.7397272993       -1.2581409997  CLST         225          1.0000000000
       674       225  TIP3  H1           -0.1139002081        4.8969146500       -1.5854807804  CLST         225          1.0000000000
       675       225  TIP3  H2           -0.1320130590        3.5373361765       -1.1827673869  CLST         225          1.0000000000
       676       226  TIP3  OH2          -5.5996457701       -4.6846098107        7.3676793198  CLST         226          1.0000000000
       677       226  TIP3  H1           -6.1617434671       -5.6419156096        7.5588604210  CLST         226          1.0000000000
       678       226  TIP3  H2           -6.1564173838       -4.4683466024        6.4592741627  CLST         226          1.0000000000
       679       227  TIP3  OH2          11.3877433422       -3.9271895324       -9.4529278313  CLST         227          1.0000000000
       680       227  TIP3  H1           11.0515364361       -3.5764938778       -8.1759780740  CLST         227          1.0000000000
       681       227  TIP3  H2           10.2598683166       -3.8996677841       -9.0030252339  CLST         227          1.0000000000
       682       228  TIP3  OH2           3.8685540739       12.3132041230        3.3349260726  CLST         228          1.0000000000
       683       228  TIP3  H1            1.9934099441       11.1803468967        4.1896851956  CLST         228          1.0000000000
       684       228  TIP3  H2            3.0187626860       12.0083841378        3.1141052918  CLST         228          1.0000000000
       685       229  TIP3  OH2         -11.5711195424      -12.8352431119        2.9616600965  CLST         229          1.0000000000
       686       229  TIP3  H1          -12.0126771186      -13.3569076461        2.4057174293  CLST         229          1.0000000000
       687       229  TIP3  H2          -11.0923585850      -12.0694105661        2.3476764253  CLST         229          1.0000000000
       688       230  TIP3  OH2          12.3446508569        6.1590551141       -3.2638865155  CLST         230          1.0000000000
       689       230  TIP3  H1           13.0012335604        5.8690086677       -2.5970642099  CLST         230          1.0000000000
       690       230  TIP3  H2           12.2559300879        5.1956997127       -3.6222294077  CLST         230          1.0000000000
       691       231  TIP3  OH2           6.8949160803        3.0512077889        4.5461275958  CLST         231          1.0000000000
       692       231  TIP3  H1            7.2173872708        3.9515339292        4.7380601647  CLST         231          1.0000000000
       693       231  TIP3  H2            6.0161580661        3.3408725900        4.1643465614  CLST         231          1.0000000000
       694       232  TIP3  OH2         -10.1827763771        8.7538191575        7.2943811502  CLST         232          1.0000000000
       695       232  TIP3  H1          -10.5580707621        9.2473825148        8.0964820369  CLST         232          1.0000000000
       696       232  TIP3  H2          -10.1946824899        7.6959790385        7.6956730236  CLST         232          1.0000000000
       697       233  TIP3  OH2           3.5083679999       -5.1864926982        8.1498627768  CLST         233          1.0000000000
       698       233  TIP3  H1            4.1417409140       -5.4760663798        8.8331984543  CLST         233          1.0000000000
       699       233  TIP3  H2            3.4573194197       -4.2469882629        8.4969482738  CLST         233          1.0000000000
       700       234  TIP3  OH2          -3.6172297932        8.4270617175       -0.6970698939  CLST         234          1.0000000000
       701       234  TIP3  H1           -3.0731580205        7.4322383872       -1.8813132621  CLST         234          1.0000000000
       702       234  TIP3  H2           -3.2587878726        9.4558917821       -1.8898898995  CLST         234          1.0000000000
       703       235  TIP3  OH2          -2.0997368729       -3.8591961374       -8.8894842832  CLST         235          1.0000000000
       704       235  TIP3  H1           -2.0768276773       -4.8725136584       -9.3939517235  CLST         235          1.0000000000
       705       235  TIP3  H2           -1.0547454913       -3.6666783785       -8.9408605971  CLST         235          1.0000000000
       706       236  TIP3  OH2          -0.0589505909      -12.9232459508       -3.4457941903  CLST         236          1.0000000000
       707       236  TIP3  H1            0.8071494438      -12.0019798763       -3.1574352290  CLST         236          1.0000000000
       708       236  TIP3  H2           -0.1629972819      -12.1577701170       -2.4827463504  CLST         236          1.0000000000
       709       237  TIP3  OH2          -3.5671463341       -5.2263004082       10.6356580786  CLST         237          1.0000000000
       710       237  TIP3  H1           -4.4949635293       -4.9801699847       10.8231941071  CLST         237          1.0000000000
       711       237  TIP3  H2           -3.5011252445       -6.0430027133       10.1332780415  CLST         237          1.0000000000
       712       238  TIP3  OH2           0.4795984310        4.7305896289        7.1506258413  CLST         238          1.0000000000
       713       238  TIP3  H1           -0.1399975469        5.3789739935        6.6572642374  CLST         238          1.0000000000
       714       238  TIP3  H2            0.4097512504        5.0057964009        8.0817333202  CLST         238          1.0000000000
       715       239  TIP3  OH2         -13.9050376518        6.1605886223        3.4180637164  CLST         239          1.0000000000
       716       239  TIP3  H1          -13.8668357568        6.5352557519        2.5295935375  CLST         239          1.0000000000
       717       239  TIP3  H2          -13.4177138299        5.3205255093        3.1915920339  CLST         239          1.0000000000
       718       240  TIP3  OH2         -14.0862956180        8.8609604249       -0.3204293193  CLST         240          1.0000000000
       719       240  TIP3  H1          -14.8069526622        9.1372877864        0.1313883528  CLST         240          1.0000000000
       720       240  TIP3  H2          -13.9500992812        7.8822065138       -0.0078103953  CLST         240          1.0000000000
       721       241  TIP3  OH2          -7.6991437847       -7.6648987519       -8.5536208213  CLST         241          1.0000000000
       722       241  TIP3  H1           -7.6440058620       -7.8569001266       -8.4835056867  CLST         241          1.0000000000
       723       241  TIP3  H2           -7.3432708360       -6.4764951337       -8.3842248688  CLST         241          1.0000000000
       724       242  TIP3  OH2           6.0181172215       -5.7070392271        9.8567158121  CLST         242          1.0000000000
       725       242  TIP3  H1            6.3610374047       -4.8343107502        9.7006362933  CLST         242          1.0000000000
       726       242  TIP3  H2            6.7843399066       -6.3107982480        9.5992957703  CLST         242          1.0000000000
       727       243  TIP3  OH2          -7.0712798848       -6.9269778052       -4.6141998315  CLST         243          1.0000000000
       728       243  TIP3  H1           -5.8668134935       -7.9616178864       -5.2283073645  CLST         243          1.0000000000
       729       243  TIP3  H2           -6.5176186847       -7.7916475933       -3.5468831115  CLST         243          1.0000000000
       730       244  TIP3  OH2           4.5632971149        5.5708531207        5.5305617753  CLST         244          1.0000000000
       731       244  TIP3  H1            4.6326379454        5.2662779709        4.5934442314  CLST         244          1.0000000000
       732       244  TIP3  H2            3.7332897172        5.0149540121        5.7326552869  CLST         244          1.0000000000
       733       245  TIP3  OH2          -6.8246230871        3.6162127338       -7.6081053226  CLST         245          1.0000000000
       734       245  TIP3  H1           -6.7427533584        3.0446144507       -6.7731866321  CLST         245          1.0000000000
       735       245  TIP3  H2           -7.1982471318        4.4368329020       -7.1985362762  CLST         245          1.0000000000
       736       246  TIP3  OH2           2.1776520759       -6.9201119403       -2.1424856912  CLST         246          1.0000000000
       737       246  TIP3  H1            2.9408989572       -4.8719486729       -3.1948373847  CLST         246          1.0000000000
       738       246  TIP3  H2            3.1829074869       -6.2223413009       -2.5916136836  CLST         246          1.0000000000
       739       247  TIP3  OH2           5.9807077459        8.0452090236        0.7226814665  CLST         247          1.0000000000
       740       247  TIP3  H1            6.3391919129        7.7795747439       -0.1564312755  CLST         247          1.0000000000
       741       247  TIP3  H2            5.5602524324        8.8971780767        0.4191138942  CLST         247          1.0000000000
       742       248  TIP3  OH2          -2.5612065793        8.2141716662      -11.6414427019  CLST         248          1.0000000000
       743       248  TIP3  H1           -2.2815696250        8.5130189359      -12.5248428076  CLST         248          1.0000000000
       744       248  TIP3  H2           -2.2798586703        8.9708384548      -11.0994124947  CLST         248          1.0000000000
       745       249  TIP3  OH2           8.6776339297        4.7780696197       -7.7185476198  CLST         249          1.0000000000
       746       249  TIP3  H1            8.1846952488        5.5453226760       -7.3340120731  CLST         249          1.0000000000
       747       249  TIP3  H2            8.2525171426        4.0395312230       -7.1593628237  CLST         249          1.0000000000
       748       250  TIP3  OH2          -7.4695892772       10.0838173946       -5.3834748052  CLST         250          1.0000000000
       749       250  TIP3  H1           -7.3953048782       10.2068379573       -5.1264276304  CLST         250          1.0000000000
       750       250  TIP3  H2           -7.8590679212       10.8611038626       -6.5714264723  CLST         250          1.0000000000
       751       251  TIP3  OH2          -3.4454438616       12.2762150577        3.0431175552  CLST         251          1.0000000000
       752       251  TIP3  H1           -2.9564846004       12.6603774780        2.4740940791  CLST         251          1.0000000000
       753       251  TIP3  H2           -2.9059830940       12.0766794274        3.8959646631  CLST         251          1.0000000000
       754       252  TIP3  OH2           5.7943473935        5.3583504922       14.3095506405  CLST         252          1.0000000000
       755       252  TIP3  H1            5.6627783568        6.3483685517       14.1448994806  CLST         252          1.0000000000
       756       252  TIP3  H2            5.4216972841        5.1752165836       15.0942832354  CLST         252          1.0000000000
       757       253  TIP3  OH2           6.0502446955       13.7590245249        3.1652885786  CLST         253          1.0000000000
       758       253  TIP3  H1            5.1025983441       13.3143562560        3.3877676763  CLST         253          1.0000000000
       759       253  TIP3  H2            6.0069970721       13.3884560818        2.2496594673  CLST         253          1.0000000000
       760       254  TIP3  OH2          -4.0484311849        8.0631726530        3.0157430691  CLST         254          1.0000000000
       761       254  TIP3  H1           -4.4389795431        8.8410142220        2.4625079296  CLST         254          1.0000000000
       762       254  TIP3  H2           -4.8801326865        7.5683492963        3.2586214961  CLST         254          1.0000000000
       763       255  TIP3  OH2          -6.8804206722       10.3886912841        4.2898967646  CLST         255          1.0000000000
       764       255  TIP3  H1           -7.8266033111       10.9587172227        4.4125534189  CLST         255          1.0000000000
       765       255  TIP3  H2           -7.1259356226        9.7864132721        5.0546713324  CLST         255          1.0000000000
       766       256  TIP3  OH2          11.3605130062        3.4402617231       -1.2694978312  CLST         256          1.0000000000
       767       256  TIP3  H1           11.6282873535        2.5529284697       -1.8760091185  CLST         256          1.0000000000
       768       256  TIP3  H2           10.9961284842        3.0093354548       -0.4648543636  CLST         256          1.0000000000
       769       257  TIP3  OH2          -8.3935041356       -1.3526403402       -5.2677888646  CLST         257          1.0000000000
       770       257  TIP3  H1           -6.7390404494       -0.7801429455       -4.1078509131  CLST         257          1.0000000000
       771       257  TIP3  H2           -8.6340289858       -1.7750469622       -4.9752966829  CLST         257          1.0000000000
       772       258  TIP3  OH2          -5.2173428973       10.0466786670        7.8009327793  CLST         258          1.0000000000
       773       258  TIP3  H1           -5.2329578907       10.5361443514        6.9078995579  CLST         258          1.0000000000
       774       258  TIP3  H2           -5.9990561964       10.5902583959        8.1968781265  CLST         258          1.0000000000
       775       259  TIP3  OH2          10.1915761458        5.9493564658        0.7597095487  CLST         259          1.0000000000
       776       259  TIP3  H1           11.0950629980        6.3110226011        0.6427006801  CLST         259          1.0000000000
       777       259  TIP3  H2           10.1851682308        6.0686934160        1.7467821738  CLST         259          1.0000000000
       778       260  TIP3  OH2          -4.9473868696        7.4697632055        8.8902682702  CLST         260          1.0000000000
       779       260  TIP3  H1           -5.1422222628        8.2069228967        8.1892160784  CLST         260          1.0000000000
       780       260  TIP3  H2           -5.8479635835        6.9032166977        8.6418819106  CLST         260          1.0000000000
       781       261  TIP3  OH2           0.8053260711       -4.1249049749       12.3353351222  CLST         261          1.0000000000
       782       261  TIP3  H1            0.2921720818       -4.9972049695       12.5237731461  CLST         261          1.0000000000
       783       261  TIP3  H2            1.5804572767       -4.4060995380       12.9489682760  CLST         261          1.0000000000
       784       262  TIP3  OH2         -10.6125865291        4.4706234493        6.3859629838  CLST         262          1.0000000000
       785       262  TIP3  H1           -9.7594061621        4.4571778534        5.4137466217  CLST         262          1.0000000000
       786       262  TIP3  H2          -10.7824714947        4.7561668716        5.1258775025  CLST         262          1.0000000000
       787       263  TIP3  OH2           1.6795647416        0.8860352677        6.6496744819  CLST         263          1.0000000000
       788       263  TIP3  H1            2.3412344191        1.5967974917        6.5507334475  CLST         263          1.0000000000
       789       263  TIP3  H2            2.2429678801        0.1700058856        6.9918229201  CLST         263          1.0000000000
       790       264  TIP3  OH2           5.2371657409       -4.5431047604       -9.7050771206  CLST         264          1.0000000000
       791       264  TIP3  H1            4.7169554672       -5.8063473795      -10.1067527751  CLST         264          1.0000000000
       792       264  TIP3  H2            4.3820585387       -4.8447345658      -10.5129926895  CLST         264          1.0000000000
       793       265  TIP3  OH2           7.1796648127        4.9079915647      -10.0093866270  CLST         265          1.0000000000
       794       265  TIP3  H1            7.1729692471        5.8752976540       -9.8643843726  CLST         265          1.0000000000
       795       265  TIP3  H2            7.9450234850        4.7783473723       -9.2550694292  CLST         265          1.0000000000
       796       266  TIP3  OH2          -7.8343703912       -8.7947607050       -0.0390427443  CLST         266          1.0000000000
       797       266  TIP3  H1           -7.5480539463       -9.6765616911        1.2369897666  CLST         266          1.0000000000
       798       266  TIP3  H2           -8.2302751804       -7.4550332383       -0.3499733796  CLST         266          1.0000000000
       799       267  TIP3  OH2           1.1008017946        1.7495210293       -4.6785004672  CLST         267          1.0000000000
       800       267  TIP3  H1            5.1457261154        4.4397943790       -2.5169074890  CLST         267          1.0000000000
       801       267  TIP3  H2            2.8480558158        5.0764472077       -7.7995524883  CLST         267          1.0000000000
       802       268  TIP3  OH2           5.0459349626       -4.8354523304       -6.9860505563  CLST         268          1.0000000000
       803       268  TIP3  H1            2.8642179269       -2.9438818235       -7.1249969996  CLST         268          1.0000000000
       804       268  TIP3  H2            4.6757975867       -6.2433132689       -7.2442660372  CLST         268          1.0000000000
       805       269  TIP3  OH2           5.5522144349       10.5163076833       -0.2446248352  CLST         269          1.0000000000
       806       269  TIP3  H1            6.4753774274       10.5658755600       -0.6854671610  CLST         269          1.0000000000
       807       269  TIP3  H2            5.7247249805       11.2989482705        0.3573701590  CLST         269          1.0000000000
       808       270  TIP3  OH2           1.0906480515        9.1311483420       -8.1337702329  CLST         270          1.0000000000
       809       270  TIP3  H1            1.2787125758        8.7888937409       -7.0687052076  CLST         270          1.0000000000
       810       270  TIP3  H2            1.7566188405        8.4743816743       -5.6845605701  CLST         270          1.0000000000
       811       271  TIP3  OH2          -6.4657033823       -8.9702681963       -2.2531344282  CLST         271          1.0000000000
       812       271  TIP3  H1           -5.7501638293       -8.7345968337       -1.6075345740  CLST         271          1.0000000000
       813       271  TIP3  H2           -7.1910672562       -8.9453722363       -1.5134728838  CLST         271          1.0000000000
       814       272  TIP3  OH2           9.5033866708       -8.1243739205        5.9673243307  CLST         272          1.0000000000
       815       272  TIP3  H1            8.5172053675       -8.2280505835        5.9124078221  CLST         272          1.0000000000
       816       272  TIP3  H2            9.6412955654       -7.5724775228        5.1530210123  CLST         272          1.0000000000
       817       273  TIP3  OH2         -13.8260390924        9.4217369882        3.3130374381  CLST         273          1.0000000000
       818       273  TIP3  H1          -14.4591671759        9.7467964345        4.1035038710  CLST         273          1.0000000000
       819       273  TIP3  H2          -13.3814329114        8.8173022389        3.9536988997  CLST         273          1.0000000000
       820       274  TIP3  OH2           4.2977137875       12.7547290690       -4.6321177876  CLST         274          1.0000000000
       821       274  TIP3  H1            3.6339932193       11.6728482188       -2.4919563262  CLST         274          1.0000000000
       822       274  TIP3  H2            3.9933823710       12.2624306047       -3.8728549255  CLST         274          1.0000000000
       823       275  TIP3  OH2           8.6404085420      -11.3397933209        5.9369025561  CLST         275          1.0000000000
       824       275  TIP3  H1            9.2332416502      -10.5524131231        5.8157123936  CLST         275          1.0000000000
       825       275  TIP3  H2            9.2641544358      -12.0397334185        5.5282282298  CLST         275          1.0000000000
       826       276  TIP3  OH2          -0.2051445461       -5.7124305185        1.4206848905  CLST         276          1.0000000000
       827       276  TIP3  H1           -1.5280375077       -4.9601569142        0.7065186665  CLST         276          1.0000000000
       828       276  TIP3  H2           -1.2487776713       -4.5817049579        2.1874748039  CLST         276          1.0000000000
       829       277  TIP3  OH2           6.0600948250        6.2935139534       -6.9815271137  CLST         277          1.0000000000
       830       277  TIP3  H1            4.9223280147        5.8131771584       -7.3832148487  CLST         277          1.0000000000
       831       277  TIP3  H2            5.7506760399        6.2072975427       -7.0863702963  CLST         277          1.0000000000
       832       278  TIP3  OH2          -0.5136669586       -7.5522935159        3.4268364029  CLST         278          1.0000000000
       833       278  TIP3  H1           -0.2151105208       -6.5849891132        2.3745332538  CLST         278          1.0000000000
       834       278  TIP3  H2           -0.7578910008       -6.7758537689        4.0538774245  CLST         278          1.0000000000
       835       279  TIP3  OH2         -13.3937202961        6.4547881615        0.6326241187  CLST         279          1.0000000000
       836       279  TIP3  H1          -13.5678775409        5.4991260672        0.2558481497  CLST         279          1.0000000000
       837       279  TIP3  H2          -12.4211945847        6.3796267749        0.7839282949  CLST         279          1.0000000000
       838       280  TIP3  OH2          -3.1359800537       -9.8202149406        5.4638478079  CLST         280          1.0000000000
       839       280  TIP3  H1           -2.5350598054       -9.2820006215        5.9769899566  CLST         280          1.0000000000
       840       280  TIP3  H2           -3.7414400575       -9.0698353681        5.1222090323  CLST         280          1.0000000000
       841       281  TIP3  OH2           7.8817032788        7.7287597909      -10.6902263805  CLST         281          1.0000000000
       842       281  TIP3  H1            8.2341942850        8.6620637873      -10.4744879762  CLST         281          1.0000000000
       843       281  TIP3  H2            6.8305743218        8.0479741181      -10.5444174748  CLST         281          1.0000000000
       844       282  TIP3  OH2          -7.9081513214      -11.4604185532        9.5784602914  CLST         282          1.0000000000
       845       282  TIP3  H1           -7.5401143518      -11.2193295350        8.3699968218  CLST         282          1.0000000000
       846       282  TIP3  H2           -7.2106061796      -12.3167123682        7.9508432606  CLST         282          1.0000000000
       847       283  TIP3  OH2           4.5136595567        8.5695247772       -4.8868894106  CLST         283          1.0000000000
       848       283  TIP3  H1            4.6444762873        9.3873095916       -5.2056223858  CLST         283          1.0000000000
       849       283  TIP3  H2            2.9842761847        7.2329488341       -3.8774448382  CLST         283          1.0000000000
       850       284  TIP3  OH2          11.7751825541        8.4433653606       -1.2173427190  CLST         284          1.0000000000
       851       284  TIP3  H1           11.7434497459        7.7231292378       -1.8614140815  CLST         284          1.0000000000
       852       284  TIP3  H2           10.9376893040        8.8875330828       -1.4574032340  CLST         284          1.0000000000
       853       285  TIP3  OH2          -5.5380728482        1.9013826065        8.8808619852  CLST         285          1.0000000000
       854       285  TIP3  H1           -5.0419673937        1.6255559609        8.1098384081  CLST         285          1.0000000000
       855       285  TIP3  H2           -4.9533052986        2.6229887370        9.2529451415  CLST         285          1.0000000000
       856       286  TIP3  OH2           2.8226545810        5.8517871496       -0.6620598455  CLST         286          1.0000000000
       857       286  TIP3  H1            1.8972498053        5.6989268756       -0.4768182228  CLST         286          1.0000000000
       858       286  TIP3  H2            3.3777362229        5.7365080795        0.0926847225  CLST         286          1.0000000000
       859       287  TIP3  OH2          -4.1390532059        9.4677580406       11.1208074241  CLST         287          1.0000000000
       860       287  TIP3  H1           -4.7945215938       10.1215160763       11.5345519292  CLST         287          1.0000000000
       861       287  TIP3  H2           -4.8140521332        8.9340967649       10.6311754337  CLST         287          1.0000000000
       862       288  TIP3  OH2           5.1606439241        3.7885043495       -8.9874232292  CLST         288          1.0000000000
       863       288  TIP3  H1            6.1779359673        4.4344060107       -9.3332700689  CLST         288          1.0000000000
       864       288  TIP3  H2            6.7954682594        4.4043873802      -10.6325741635  CLST         288          1.0000000000
       865       289  TIP3  OH2          -7.2342351944       -5.2538631966       -8.4532976900  CLST         289          1.0000000000
       866       289  TIP3  H1           -8.1417538419       -4.6139218533       -7.9060008597  CLST         289          1.0000000000
       867       289  TIP3  H2           -8.6912399922       -5.4599874798       -7.0679762352  CLST         289          1.0000000000
       868       290  TIP3  OH2           2.0239758670      -11.9688308251       11.2373149599  CLST         290          1.0000000000
       869       290  TIP3  H1            2.8902057090      -12.3425258543       11.1339250558  CLST         290          1.0000000000
       870       290  TIP3  H2            1.9374827015      -11.6681495451       12.1595421976  CLST         290          1.0000000000
       871       291  TIP3  OH2         -10.0637480339       -3.4890577462        2.9518973312  CLST         291          1.0000000000
       872       291  TIP3  H1          -10.8218759532       -4.6071982061        3.4051123054  CLST         291          1.0000000000
       873       291  TIP3  H2          -10.4249242927       -4.5525680235        2.3097289196  CLST         291          1.0000000000
       874       292  TIP3  OH2          12.3261715780        3.4794658248       -4.4694606907  CLST         292          1.0000000000
       875       292  TIP3  H1           10.7427721789        3.1357420111       -4.7232398673  CLST         292          1.0000000000
       876       292  TIP3  H2           12.8311962327        3.8067241307       -5.9235500955  CLST         292          1.0000000000
       877       293  TIP3  OH2           8.7751643769       10.6793349664       11.0868077966  CLST         293          1.0000000000
       878       293  TIP3  H1            8.6857354843       11.5696557572       11.4192791254  CLST         293          1.0000000000
       879       293  TIP3  H2            9.0501936956       10.9681126265       10.1554367650  CLST         293          1.0000000000
       880       294  TIP3  OH2           4.1435206921        4.7124033024       -2.5531093059  CLST         294          1.0000000000
       881       294  TIP3  H1            3.2377206423        4.8804012520       -2.1230777670  CLST         294          1.0000000000
       882       294  TIP3  H2            3.9591625300        5.4220311056       -3.4998785916  CLST         294          1.0000000000
       883       295  TIP3  OH2          -2.1601213041      -12.7224267328       -8.6419337692  CLST         295          1.0000000000
       884       295  TIP3  H1           -2.4182260080      -12.8718908054       -7.3351367189  CLST         295          1.0000000000
       885       295  TIP3  H2           -1.4671645047      -12.9855465737       -7.6844692965  CLST         295          1.0000000000
       886       296  TIP3  OH2          -1.5923642358       11.3031496502      -12.5577195211  CLST         296          1.0000000000
       887       296  TIP3  H1           -0.6072764930       10.9660983332      -12.6164512499  CLST         296          1.0000000000
       888       296  TIP3  H2           -1.8203208784       11.0347486392      -11.5650787381  CLST         296          1.0000000000
       889       297  TIP3  OH2           8.2070221469       -0.6178664776       11.3951853079  CLST         297          1.0000000000
       890       297  TIP3  H1            8.8556517685       -1.2081077391       10.8587382230  CLST         297          1.0000000000
       891       297  TIP3  H2            7.4293555482       -1.2369271839       11.3313757902  CLST         297          1.0000000000
       892       298  TIP3  OH2           1.0368638716       -0.8473629969       -7.4808194273  CLST         298          1.0000000000
       893       298  TIP3  H1            1.8400939493       -0.4927605477       -8.6653486851  CLST         298          1.0000000000
       894       298  TIP3  H2            1.2424209433       -1.4695442722       -8.6218322696  CLST         298          1.0000000000
       895       299  TIP3  OH2           3.0957275613        9.8584604877       12.6743113488  CLST         299          1.0000000000
       896       299  TIP3  H1            1.4279833795       10.9810431814       11.9090875305  CLST         299          1.0000000000
       897       299  TIP3  H2            2.2428081903        9.7221473867       12.3248803547  CLST         299          1.0000000000
       898       300  TIP3  OH2         -10.8273873292        5.1653959580       -3.8711259784  CLST         300          1.0000000000
       899       300  TIP3  H1          -10.7103544974        5.7188472277       -4.7112365624  CLST         300          1.0000000000
       900       300  TIP3  H2          -10.8110227404        5.9653081251       -3.2532537725  CLST         300          1.0000000000
       901       301  TIP3  OH2           9.5943106726       -8.1765002665       11.1970149071  CLST         301          1.0000000000
       902       301  TIP3  H1            9.2839503520       -7.7142385672       12.0226528336  CLST         301          1.0000000000
       903       301  TIP3  H2            9.4527940893       -9.1399449058       11.3931522404  CLST         301          1.0000000000
       904       302  TIP3  OH2           7.6603848830       12.7231558871        5.4016252736  CLST         302          1.0000000000
       905       302  TIP3  H1            7.2370824692       13.2463592056        4.6626225703  CLST         302          1.0000000000
       906       302  TIP3  H2            6.8572596321       12.2099210317        5.6429723067  CLST         302          1.0000000000
       907       303  TIP3  OH2         -10.8611973107        1.2655832769       -1.8761246595  CLST         303          1.0000000000
       908       303  TIP3  H1          -10.2845001441        0.7365660934       -2.2331619578  CLST         303          1.0000000000
       909       303  TIP3  H2          -11.0537540811        0.3856767705       -3.2015604118  CLST         303          1.0000000000
       910       304  TIP3  OH2          -7.8197799316        1.3254390941      -14.8198578588  CLST         304          1.0000000000
       911       304  TIP3  H1           -7.3860093204        0.5085799110      -14.3959061515  CLST         304          1.0000000000
       912       304  TIP3  H2           -7.0672571102        1.9095953201      -14.9670219062  CLST         304          1.0000000000
       913       305  TIP3  OH2           3.2873382888       -4.0255646083       13.9160146287  CLST         305          1.0000000000
       914       305  TIP3  H1            4.1332957828       -4.4756311121       13.8850085361  CLST         305          1.0000000000
       915       305  TIP3  H2            3.4936739732       -3.1642120070       13.5352522384  CLST         305          1.0000000000
       916       306  TIP3  OH2           8.5792887318      -11.7491719580      -10.9855093771  CLST         306          1.0000000000
       917       306  TIP3  H1            9.8737789073      -11.3851777613      -12.2956702807  CLST         306          1.0000000000
       918       306  TIP3  H2            9.0929370267      -11.0560590740      -10.2059772925  CLST         306          1.0000000000
       919       307  TIP3  OH2           9.1793111093        7.6886581736       -7.2826327719  CLST         307          1.0000000000
       920       307  TIP3  H1            8.2200107866        8.0680190599       -7.3297421994  CLST         307          1.0000000000
       921       307  TIP3  H2            9.5163902005        7.9981712519       -6.3981630692  CLST         307          1.0000000000
       922       308  TIP3  OH2         -10.7474734081       -4.6484217307        8.1776352206  CLST         308          1.0000000000
       923       308  TIP3  H1          -10.4478877150       -7.1551095708        8.9960927121  CLST         308          1.0000000000
       924       308  TIP3  H2          -10.3161221544       -5.8309695493        9.3764266954  CLST         308          1.0000000000
       925       309  TIP3  OH2          -1.7880722954       -0.6656688505        5.5095584318  CLST         309          1.0000000000
       926       309  TIP3  H1           -2.5879965479       -0.9685119999        5.0431493304  CLST         309          1.0000000000
       927       309  TIP3  H2           -1.9235089739       -1.2960061174        6.2991868209  CLST         309          1.0000000000
       928       310  TIP3  OH2          -5.0485279283       -0.5722652864        7.2548431708  CLST         310          1.0000000000
       929       310  TIP3  H1           -4.1745562593       -0.2140006806        7.5559144850  CLST         310          1.0000000000
       930       310  TIP3  H2           -5.0644551186       -1.3943137446        7.7953005809  CLST         310          1.0000000000
       931       311  TIP3  OH2          -7.1166147713        8.4280435034      -11.8934997191  CLST         311          1.0000000000
       932       311  TIP3  H1           -6.0242453881        7.3216142333      -12.5691519218  CLST         311          1.0000000000
       933       311  TIP3  H2           -7.4723261612        9.1101713407      -13.4500428347  CLST         311          1.0000000000
       934       312  TIP3  OH2           6.7174546992       -1.0167727347       -6.5816271362  CLST         312          1.0000000000
       935       312  TIP3  H1            1.2081523263        1.4242819671       -5.5874650579  CLST         312          1.0000000000
       936       312  TIP3  H2            5.4127141941       -1.5872803576       -6.3926282502  CLST         312          1.0000000000
       937       313  TIP3  OH2          -8.8252073007      -10.2768886224        7.1718708783  CLST         313          1.0000000000
       938       313  TIP3  H1           -8.3798272724       -9.3539371140        6.3808850445  CLST         313          1.0000000000
       939       313  TIP3  H2           -9.1061939696      -10.1672062704        6.0739386207  CLST         313          1.0000000000
       940       314  TIP3  OH2          -0.7355282094      -11.8958369848      -10.5153933879  CLST         314          1.0000000000
       941       314  TIP3  H1           -1.2364773027      -11.1357581513       -9.6138120204  CLST         314          1.0000000000
       942       314  TIP3  H2           -1.3667277165      -12.1289309243       -9.4623014489  CLST         314          1.0000000000
       943       315  TIP3  OH2          -1.2186049143       -0.3848103405       -6.3906114497  CLST         315          1.0000000000
       944       315  TIP3  H1           -0.0364476926       -0.1582203974       -6.6724278769  CLST         315          1.0000000000
       945       315  TIP3  H2           -0.2405214386        0.3972783714       -5.6487596997  CLST         315          1.0000000000
       946       316  TIP3  OH2         -13.0333316669       -3.9659479716       -5.4634991940  CLST         316          1.0000000000
       947       316  TIP3  H1          -11.3422484166       -4.5385039965       -5.8812801626  CLST         316          1.0000000000
       948       316  TIP3  H2          -12.0731781526       -3.5840728619       -5.9563443396  CLST         316          1.0000000000
       949       317  TIP3  OH2          -6.2419318071       -0.1174338198       -3.7271211967  CLST         317          1.0000000000
       950       317  TIP3  H1           -5.4375949672       -0.2170048023       -3.1144287105  CLST         317          1.0000000000
       951       317  TIP3  H2           -6.8844191992        0.3562345603       -2.9825082086  CLST         317          1.0000000000
       952       318  TIP3  OH2          -3.9174759383       -9.6595895149       -9.2488298232  CLST         318          1.0000000000
       953       318  TIP3  H1           -3.3087846664       -9.9357562104       -7.9313101601  CLST         318          1.0000000000
       954       318  TIP3  H2           -2.7403869425       -9.9129244715       -8.5732561180  CLST         318          1.0000000000
       955       319  TIP3  OH2           5.5928479039       10.7114120454        8.5710279781  CLST         319          1.0000000000
       956       319  TIP3  H1            6.3632912353       10.2716341927        8.1457091290  CLST         319          1.0000000000
       957       319  TIP3  H2            5.9633374204       10.9622905883        9.4132692220  CLST         319          1.0000000000
       958       320  TIP3  OH2         -10.5104948769        0.9286627623      -14.3294463454  CLST         320          1.0000000000
       959       320  TIP3  H1           -9.5808228455        1.1167188654      -14.6565892938  CLST         320          1.0000000000
       960       320  TIP3  H2          -10.2109187222        0.0886197687      -13.8814286287  CLST         320          1.0000000000
       961       321  TIP3  OH2          -9.0929217818       10.3634017427       -9.4992836988  CLST         321          1.0000000000
       962       321  TIP3  H1           -7.8809684597       10.9915807746      -11.7340835362  CLST         321          1.0000000000
       963       321  TIP3  H2           -8.9031732856       10.8490454918      -10.7634553967  CLST         321          1.0000000000
       964       322  TIP3  OH2         -12.2747639496       -2.1130051411       -2.2053908356  CLST         322          1.0000000000
       965       322  TIP3  H1          -11.5880560020       -1.4290840413       -3.1268056956  CLST         322          1.0000000000
       966       322  TIP3  H2          -11.0865741438       -1.9273494426       -2.2445180875  CLST         322          1.0000000000
       967       323  TIP3  OH2          -0.7385805022        4.1345354824        4.3022945071  CLST         323          1.0000000000
       968       323  TIP3  H1           -0.5255130931        3.3151875563        4.5251807638  CLST         323          1.0000000000
       969       323  TIP3  H2           -0.9278648148        4.1624196281        3.2304925273  CLST         323          1.0000000000
       970       324  TIP3  OH2         -10.6899349488        6.1324647231        1.5871960349  CLST         324          1.0000000000
       971       324  TIP3  H1          -10.9682073602        5.3194677462        2.1021845621  CLST         324          1.0000000000
       972       324  TIP3  H2           -9.9697783907        6.4719217874        2.2300769792  CLST         324          1.0000000000
       973       325  TIP3  OH2          -4.6554650555        0.8109476793        3.4273084992  CLST         325          1.0000000000
       974       325  TIP3  H1           -5.6809670181        0.8406228904        3.5060102647  CLST         325          1.0000000000
       975       325  TIP3  H2           -4.5206100144        1.7612334599        3.5758683932  CLST         325          1.0000000000
       976       326  TIP3  OH2           8.7864065515        8.6285367380       -2.7733424839  CLST         326          1.0000000000
       977       326  TIP3  H1            8.3637312193        7.8520465050       -2.3122171055  CLST         326          1.0000000000
       978       326  TIP3  H2            8.0075836009        8.6767609441       -3.4583655801  CLST         326          1.0000000000
       979       327  TIP3  OH2          10.3703935678       -3.7979081546      -12.9626029357  CLST         327          1.0000000000
       980       327  TIP3  H1           10.1599690321       -3.3531959362      -14.0561658437  CLST         327          1.0000000000
       981       327  TIP3  H2           12.7657716209       -0.1286010904      -13.5438276204  CLST         327          1.0000000000
       982       328  TIP3  OH2           2.3161855099        6.7929143754       -9.4050669548  CLST         328          1.0000000000
       983       328  TIP3  H1            3.1756354273        6.3051408267       -8.9313834820  CLST         328          1.0000000000
       984       328  TIP3  H2            2.6496372789        7.8270587106       -9.4727723111  CLST         328          1.0000000000
       985       329  TIP3  OH2           1.0730791725      -11.1207844449       -2.2323331103  CLST         329          1.0000000000
       986       329  TIP3  H1           -0.2717251620       -6.1753042001       -2.2592619575  CLST         329          1.0000000000
       987       329  TIP3  H2            0.2656446038      -12.1206361534       -1.4423174438  CLST         329          1.0000000000
       988       330  TIP3  OH2          -9.0846046642       -1.0855970077        3.4985684289  CLST         330          1.0000000000
       989       330  TIP3  H1           -9.7695223169       -2.1706944153        3.4246529124  CLST         330          1.0000000000
       990       330  TIP3  H2          -10.2184049784       -1.1523919889        4.1994218650  CLST         330          1.0000000000
       991       331  TIP3  OH2          12.0192213300        9.8629049314       -8.8166772111  CLST         331          1.0000000000
       992       331  TIP3  H1           12.5955903106        9.2292006548       -9.1079065637  CLST         331          1.0000000000
       993       331  TIP3  H2           11.9379704117        7.9104850758       -9.1233326499  CLST         331          1.0000000000
       994       332  TIP3  OH2          10.7919215528       -1.7963928988       -4.6968845914  CLST         332          1.0000000000
       995       332  TIP3  H1           11.9172075660       -1.2025085158       -4.9061658833  CLST         332          1.0000000000
       996       332  TIP3  H2           11.7973087490       -0.0853396070       -3.8819112305  CLST         332          1.0000000000
       997       333  TIP3  OH2          10.2742658159      -14.0128618674        7.8158821705  CLST         333          1.0000000000
       998       333  TIP3  H1            9.4233206197      -13.5435747289        7.9656720448  CLST         333          1.0000000000
       999       333  TIP3  H2           10.3816217623      -13.8558916995        6.8503556189  CLST         333          1.0000000000
      1000       334  TIP3  OH2         -10.7469796200       -9.6509071597        8.9830819014  CLST         334          1.0000000000
      1001       334  TIP3  H1          -11.4522564921      -10.0357972557        8.0541350887  CLST         334          1.0000000000
      1002       334  TIP3  H2          -10.1972980725       -9.9429296288        7.9153563586  CLST         334          1.0000000000
      1003       335  TIP3  OH2           6.7074023330      -10.2226216108        1.3977313227  CLST         335          1.0000000000
      1004       335  TIP3  H1            6.5535289195       -9.9501768141        2.3062768133  CLST         335          1.0000000000
      1005       335  TIP3  H2            5.8756674732      -10.2475626460        1.0182148438  CLST         335          1.0000000000
      1006       336  TIP3  OH2          -8.9530949021       -4.3505597149       -3.6945415983  CLST         336          1.0000000000
      1007       336  TIP3  H1           -8.6534246668       -5.8567155913       -4.4816129718  CLST         336          1.0000000000
      1008       336  TIP3  H2           -8.1111812354       -3.0473696327       -4.2015446627  CLST         336          1.0000000000
      1009       337  TIP3  OH2          -1.6329281449       -4.8066860897        7.9947423369  CLST         337          1.0000000000
      1010       337  TIP3  H1           -1.4775260839       -4.4291676109        8.9081194370  CLST         337          1.0000000000
      1011       337  TIP3  H2           -2.0448224561       -3.9622245916        7.6413548935  CLST         337          1.0000000000
      1012       338  TIP3  OH2          -0.5420535349        2.4176192057       10.8855140701  CLST         338          1.0000000000
      1013       338  TIP3  H1           -0.4882595454        2.2601652563        9.9208714893  CLST         338          1.0000000000
      1014       338  TIP3  H2           -0.2556285933        1.6413274495       11.3467529319  CLST         338          1.0000000000
      1015       339  TIP3  OH2           7.8699741142        7.9513796221        2.5249385916  CLST         339          1.0000000000
      1016       339  TIP3  H1            7.6420010701        8.6472945526        3.2056791300  CLST         339          1.0000000000
      1017       339  TIP3  H2            7.1238342875        8.0686337120        1.8690700363  CLST         339          1.0000000000
      1018       340  TIP3  OH2          -4.5527662361      -11.4848937500      -11.2592216316  CLST         340          1.0000000000
      1019       340  TIP3  H1           -4.0028552566      -10.6914000633       -9.6392137583  CLST         340          1.0000000000
      1020       340  TIP3  H2           -4.0915763492      -12.0843438396       -9.9754629299  CLST         340          1.0000000000
      1021       341  TIP3  OH2          -6.7965665834        4.7503820962        9.2923355454  CLST         341          1.0000000000
      1022       341  TIP3  H1           -5.7457324431        4.6996519045        9.5677241098  CLST         341          1.0000000000
      1023       341  TIP3  H2           -6.8741871212        3.7250269807        9.2862357443  CLST         341          1.0000000000
      1024       342  TIP3  OH2          -4.4697296176      -10.9669933534       13.5535358493  CLST         342          1.0000000000
      1025       342  TIP3  H1           -5.4021905197      -10.4117301247       12.6591748033  CLST         342          1.0000000000
      1026       342  TIP3  H2           -5.0865917265      -10.4071505079       13.9556626860  CLST         342          1.0000000000
      1027       343  TIP3  OH2           1.3594843443       -9.3576061091       -9.5917802256  CLST         343          1.0000000000
      1028       343  TIP3  H1            2.1474001671       -8.3980687457       -9.8194110670  CLST         343          1.0000000000
      1029       343  TIP3  H2            2.2383097270       -9.3366673953      -10.5372652539  CLST         343          1.0000000000
      1030       344  TIP3  OH2           5.3201677597       -4.0684450200        6.4106552037  CLST         344          1.0000000000
      1031       344  TIP3  H1            4.7511150175       -4.6973540860        6.9054181175  CLST         344          1.0000000000
      1032       344  TIP3  H2            5.9061385189       -4.6748217649        5.9063150888  CLST         344          1.0000000000
      1033       345  TIP3  OH2          13.0060186826        6.7765804627        8.8670753174  CLST         345          1.0000000000
      1034       345  TIP3  H1           12.4431518661        6.0441360315        8.4380020934  CLST         345          1.0000000000
      1035       345  TIP3  H2           12.2254908998        7.0779961490        9.4905366027  CLST         345          1.0000000000
      1036       346  TIP3  OH2           9.4338534138        9.4395155726        0.7521999814  CLST         346          1.0000000000
      1037       346  TIP3  H1            9.6159834111       10.1887945008        1.4123716293  CLST         346          1.0000000000
      1038       346  TIP3  H2            9.0856596090        8.7676196707        1.4266139715  CLST         346          1.0000000000
      1039       347  TIP3  OH2          -5.1965398241        2.8872364748       -9.5927865796  CLST         347          1.0000000000
      1040       347  TIP3  H1           -5.8899918399        3.2526060911       -8.9462036180  CLST         347          1.0000000000
      1041       347  TIP3  H2           -4.5262773513        2.7952431170       -8.8822941398  CLST         347          1.0000000000
      1042       348  TIP3  OH2          -1.0497969251        6.1874322019        5.7694100411  CLST         348          1.0000000000
      1043       348  TIP3  H1           -0.9383769691        5.0405735253        4.9625635852  CLST         348          1.0000000000
      1044       348  TIP3  H2           -0.0307475504        6.2641936409        4.5406079044  CLST         348          1.0000000000
      1045       349  TIP3  OH2          -4.0494026493        5.5281007896       -2.4371516645  CLST         349          1.0000000000
      1046       349  TIP3  H1           -2.9374680766        1.0637925955       -4.2882934266  CLST         349          1.0000000000
      1047       349  TIP3  H2           -3.9021600994        5.3975208414       -2.8719839565  CLST         349          1.0000000000
      1048       350  TIP3  OH2          -2.5603557546        8.8195724265        5.1346412735  CLST         350          1.0000000000
      1049       350  TIP3  H1           -3.1787723970        8.5451379470        4.2599396025  CLST         350          1.0000000000
      1050       350  TIP3  H2           -2.1176437066        7.9899659738        5.3464632823  CLST         350          1.0000000000
      1051       351  TIP3  OH2           4.7724979043       -7.7944563642       -7.9539625412  CLST         351          1.0000000000
      1052       351  TIP3  H1            3.7997832298       -8.4326962821       -8.2070785165  CLST         351          1.0000000000
      1053       351  TIP3  H2            3.9542761827       -7.4630444430       -8.7465932556  CLST         351          1.0000000000
      1054       352  TIP3  OH2         -10.3100549418      -10.9641825417        1.7721312151  CLST         352          1.0000000000
      1055       352  TIP3  H1           -9.3846615005      -11.0346091888        1.6437713509  CLST         352          1.0000000000
      1056       352  TIP3  H2          -10.6349691125      -10.2765538556        1.0735843266  CLST         352          1.0000000000
      1057       353  TIP3  OH2          10.7035410181       -8.1502532336       -8.4807891485  CLST         353          1.0000000000
      1058       353  TIP3  H1            9.1527638202       -8.3070645370       -8.9088736557  CLST         353          1.0000000000
      1059       353  TIP3  H2           10.5205500329       -7.2135567387       -7.7683109596  CLST         353          1.0000000000
      1060       354  TIP3  OH2           6.8863271410      -10.6245894598        4.2447890434  CLST         354          1.0000000000
      1061       354  TIP3  H1            7.4897772730      -11.0101339366        4.9829112322  CLST         354          1.0000000000
      1062       354  TIP3  H2            6.7904891545       -9.7131979536        4.6640409843  CLST         354          1.0000000000
      1063       355  TIP3  OH2          -7.0907617834        8.9419264478       -9.1386360179  CLST         355          1.0000000000
      1064       355  TIP3  H1           -7.1731844243       10.1259822022       -8.7222497310  CLST         355          1.0000000000
      1065       355  TIP3  H2           -8.0891067673        9.7872400283       -9.1245655137  CLST         355          1.0000000000
      1066       356  TIP3  OH2          12.5080669096        0.9993545027       -2.4059091763  CLST         356          1.0000000000
      1067       356  TIP3  H1           12.5700432489        0.2096326587       -1.3446393821  CLST         356          1.0000000000
      1068       356  TIP3  H2           11.4765468165        0.0714333354       -0.9061880560  CLST         356          1.0000000000
      1069       357  TIP3  OH2          -0.3937550672       -0.2790809411       -2.0735432476  CLST         357          1.0000000000
      1070       357  TIP3  H1            0.4440010162       -0.7786647568       -2.2108967711  CLST         357          1.0000000000
      1071       357  TIP3  H2           -0.6234330948       -0.0300551344       -2.9258791865  CLST         357          1.0000000000
      1072       358  TIP3  OH2          -5.5807467351        6.9800655129       -7.1721039181  CLST         358          1.0000000000
      1073       358  TIP3  H1           -5.9674785447        7.2648757152       -8.0417866862  CLST         358          1.0000000000
      1074       358  TIP3  H2           -6.4475456146        6.6502083042       -6.7457274462  CLST         358          1.0000000000
      1075       359  TIP3  OH2          -4.9794345609       12.0582174242        6.0397769790  CLST         359          1.0000000000
      1076       359  TIP3  H1           -5.2512450546       11.9813454845        5.1172440835  CLST         359          1.0000000000
      1077       359  TIP3  H2           -4.0032631123       12.0190123302        5.9413642453  CLST         359          1.0000000000
      1078       360  TIP3  OH2          -6.7683196823        5.6847659989       -3.2450570843  CLST         360          1.0000000000
      1079       360  TIP3  H1           -6.9852018841        6.4540280007       -2.6713369170  CLST         360          1.0000000000
      1080       360  TIP3  H2           -5.7907509609        5.7360787399       -3.0493408238  CLST         360          1.0000000000
      1081       361  TIP3  OH2          -1.4783412621       -1.1686509332       10.0898554801  CLST         361          1.0000000000
      1082       361  TIP3  H1           -1.3781056097       -0.7540796101       10.9838199524  CLST         361          1.0000000000
      1083       361  TIP3  H2           -1.6786767790       -2.1142989485       10.4173425993  CLST         361          1.0000000000
      1084       362  TIP3  OH2         -10.4575401838        3.0405479550        0.7018226700  CLST         362          1.0000000000
      1085       362  TIP3  H1          -10.4703976245        3.4582345811       -0.1737691856  CLST         362          1.0000000000
      1086       362  TIP3  H2          -11.0496966387        2.2376853363        0.4370373819  CLST         362          1.0000000000
      1087       363  TIP3  OH2          10.3123075929        2.2483146940       10.0611858117  CLST         363          1.0000000000
      1088       363  TIP3  H1           10.6338414670        0.9239553044        9.8534582268  CLST         363          1.0000000000
      1089       363  TIP3  H2           11.1427820041        2.0209460173        9.9416568022  CLST         363          1.0000000000
      1090       364  TIP3  OH2           7.7372901250       -5.4905746239       -6.2223735333  CLST         364          1.0000000000
      1091       364  TIP3  H1            6.8686202190       -5.0056824176       -6.9680594309  CLST         364          1.0000000000
      1092       364  TIP3  H2            8.4715354718       -5.2395807254       -7.2602629713  CLST         364          1.0000000000
      1093       365  TIP3  OH2          -6.1677647461       -6.7577147880        2.7655903620  CLST         365          1.0000000000
      1094       365  TIP3  H1           -6.5928264388       -5.8789399389        3.0923907357  CLST         365          1.0000000000
      1095       365  TIP3  H2           -6.8854968872       -7.3279410899        2.9350111841  CLST         365          1.0000000000
      1096       366  TIP3  OH2           1.7424564059       -1.3930933967       -3.1799188644  CLST         366          1.0000000000
      1097       366  TIP3  H1            2.8018912156       -1.1680587393       -2.8556013114  CLST         366          1.0000000000
      1098       366  TIP3  H2            2.0252247600       -0.9099542210       -4.1410157323  CLST         366          1.0000000000
      1099       367  TIP3  OH2          -5.3231893598       11.8667937097       12.2296717179  CLST         367          1.0000000000
      1100       367  TIP3  H1           -6.1715773181       11.9305903090       11.6226835138  CLST         367          1.0000000000
      1101       367  TIP3  H2           -5.5796709402       12.2376867637       12.9307398989  CLST         367          1.0000000000
      1102       368  TIP3  OH2          -2.6433900818        6.3278497013        0.9830999585  CLST         368          1.0000000000
      1103       368  TIP3  H1           -2.7184679273        6.9174106110        0.1961045252  CLST         368          1.0000000000
      1104       368  TIP3  H2           -2.9087806244        6.8738895910        1.6977913615  CLST         368          1.0000000000
      1105       369  TIP3  OH2         -11.4393133550       -1.9918693563       -6.2879207269  CLST         369          1.0000000000
      1106       369  TIP3  H1          -10.3049447652       -3.0972336952       -6.9807010297  CLST         369          1.0000000000
      1107       369  TIP3  H2          -11.7178220488       -2.4655924218       -7.3907159028  CLST         369          1.0000000000
      1108       370  TIP3  OH2         -11.5055417115        5.5178889545      -11.4626449993  CLST         370          1.0000000000
      1109       370  TIP3  H1          -12.6067053596        4.2222945791      -12.8976948683  CLST         370          1.0000000000
      1110       370  TIP3  H2          -11.8960840356        6.2669233259      -11.1481484886  CLST         370          1.0000000000
      1111       371  TIP3  OH2           2.2912265517        7.7841617677        5.4955607950  CLST         371          1.0000000000
      1112       371  TIP3  H1            2.2719973602        7.5939375455        6.4128928411  CLST         371          1.0000000000
      1113       371  TIP3  H2            3.2016904858        7.7634576192        5.2169578291  CLST         371          1.0000000000
      1114       372  TIP3  OH2           8.1602226037       -7.7327861437        9.0865750661  CLST         372          1.0000000000
      1115       372  TIP3  H1            8.7667012813       -7.8146284336        8.3238582044  CLST         372          1.0000000000
      1116       372  TIP3  H2            8.7777488880       -7.7771757516        9.8865884753  CLST         372          1.0000000000
      1117       373  TIP3  OH2          10.9390777367       -0.5545778014        6.4422212267  CLST         373          1.0000000000
      1118       373  TIP3  H1           11.5121518129        0.0326291546        5.8088010831  CLST         373          1.0000000000
      1119       373  TIP3  H2           10.1309580470       -0.3125828238        5.9825160042  CLST         373          1.0000000000
      1120       374  TIP3  OH2          -9.3143649786        4.5824095628      -12.0494986106  CLST         374          1.0000000000
      1121       374  TIP3  H1           -9.3961490163        4.9391652197      -11.9832155752  CLST         374          1.0000000000
      1122       374  TIP3  H2          -10.4000158613        5.1198009122      -11.9160699286  CLST         374          1.0000000000
      1123       375  TIP3  OH2           9.8809443516       -5.4371599037       -2.9095333151  CLST         375          1.0000000000
      1124       375  TIP3  H1           10.2948452980       -4.3055996668       -3.4331924084  CLST         375          1.0000000000
      1125       375  TIP3  H2            9.3224183014       -2.8151712224       -2.2435746108  CLST         375          1.0000000000
      1126       376  TIP3  OH2          -2.3858493067      -11.1759203933       12.0368296529  CLST         376          1.0000000000
      1127       376  TIP3  H1           -3.3487802150      -11.1361572027       12.7834155604  CLST         376          1.0000000000
      1128       376  TIP3  H2           -2.9594022775      -11.4365560589       11.2489228377  CLST         376          1.0000000000
      1129       377  TIP3  OH2          -9.9880476772       12.5939220659       10.1450556070  CLST         377          1.0000000000
      1130       377  TIP3  H1           -8.9851942021       12.3259855962       10.2564964042  CLST         377          1.0000000000
      1131       377  TIP3  H2           -9.8823838837       13.0181310889        8.8256748604  CLST         377          1.0000000000
      1132       378  TIP3  OH2           2.3038149066       -7.8390965240        7.6458856639  CLST         378          1.0000000000
      1133       378  TIP3  H1            2.6354579966       -6.9546713295        7.8901278635  CLST         378          1.0000000000
      1134       378  TIP3  H2            1.7512818738       -8.2191835343        8.3577949795  CLST         378          1.0000000000
      1135       379  TIP3  OH2          -9.2557894893        9.3671536923       -1.3136069129  CLST         379          1.0000000000
      1136       379  TIP3  H1           -8.7574460383        9.5801423443       -0.5023900430  CLST         379          1.0000000000
      1137       379  TIP3  H2           -9.5936527409       10.2616743196       -1.6673042553  CLST         379          1.0000000000
      1138       380  TIP3  OH2           3.2394108283       -4.3317865694      -11.2542545012  CLST         380          1.0000000000
      1139       380  TIP3  H1            2.3353547007       -3.7272641592      -12.1565356640  CLST         380          1.0000000000
      1140       380  TIP3  H2            2.8316015957       -5.6071495396      -12.3769388909  CLST         380          1.0000000000
      1141       381  TIP3  OH2          10.0447949735        4.1619460855        3.4129241196  CLST         381          1.0000000000
      1142       381  TIP3  H1            9.2972113984        4.7122148301        3.7479571733  CLST         381          1.0000000000
      1143       381  TIP3  H2           10.7440448662        4.8968129648        3.5524519829  CLST         381          1.0000000000
      1144       382  TIP3  OH2           1.9871369356       -5.2289760918        5.5459765529  CLST         382          1.0000000000
      1145       382  TIP3  H1            2.4877809281       -4.9582257031        6.3655036223  CLST         382          1.0000000000
      1146       382  TIP3  H2            2.6751974084       -5.9168757756        5.2653954614  CLST         382          1.0000000000
      1147       383  TIP3  OH2          10.1476656308        8.6642430236        4.7725058497  CLST         383          1.0000000000
      1148       383  TIP3  H1            9.2188349227        8.8715529804        4.4662526838  CLST         383          1.0000000000
      1149       383  TIP3  H2           10.4355836514        9.6107929590        4.8300139289  CLST         383          1.0000000000
      1150       384  TIP3  OH2          -3.3413207158       -1.6719466943       -7.8904074623  CLST         384          1.0000000000
      1151       384  TIP3  H1           -2.7503216056       -2.6046057882       -8.1027562032  CLST         384          1.0000000000
      1152       384  TIP3  H2           -2.5594759546       -1.2119473427       -7.3281015976  CLST         384          1.0000000000
      1153       385  TIP3  OH2           3.4449691704      -11.5669151197       -0.9809639809  CLST         385          1.0000000000
      1154       385  TIP3  H1            4.6952822098      -11.7842981453       -0.5148446480  CLST         385          1.0000000000
      1155       385  TIP3  H2            4.1560278070      -11.5789178971       -0.9741876621  CLST         385          1.0000000000
      1156       386  TIP3  OH2          -4.3368981703        9.0064314981       -6.0384195946  CLST         386          1.0000000000
      1157       386  TIP3  H1           -4.4147021975        8.0452947768       -6.4529555121  CLST         386          1.0000000000
      1158       386  TIP3  H2           -3.9575185795        9.4315735296       -6.8372683875  CLST         386          1.0000000000
      1159       387  TIP3  OH2          -9.7257030314       10.5253936362        2.8216974254  CLST         387          1.0000000000
      1160       387  TIP3  H1          -10.3976134638        9.7567388560        2.5559219283  CLST         387          1.0000000000
      1161       387  TIP3  H2           -8.9013173429       10.0889562613        2.3487492714  CLST         387          1.0000000000
      1162       388  TIP3  OH2          -1.8116432628      -12.3242022442        5.9532445158  CLST         388          1.0000000000
      1163       388  TIP3  H1           -2.1623979753      -11.4517238057        5.6363009477  CLST         388          1.0000000000
      1164       388  TIP3  H2           -1.8371836628      -12.0866686177        6.9407567456  CLST         388          1.0000000000
      1165       389  TIP3  OH2          -8.0285050358        3.4793858089       -3.7365561618  CLST         389          1.0000000000
      1166       389  TIP3  H1           -7.5656702839        4.3263554064       -3.4191196176  CLST         389          1.0000000000
      1167       389  TIP3  H2           -8.9327922191        3.8994098992       -3.6759464443  CLST         389          1.0000000000
      1168       390  TIP3  OH2          -6.0157379541       -3.9991139293        4.5900193864  CLST         390          1.0000000000
      1169       390  TIP3  H1           -5.2218540670       -2.5418165416        4.7318100518  CLST         390          1.0000000000
      1170       390  TIP3  H2           -5.6982525730       -3.6035703883        4.4735119364  CLST         390          1.0000000000
      1171       391  TIP3  OH2          -8.6291202915       -8.7229729742       -6.1041417649  CLST         391          1.0000000000
      1172       391  TIP3  H1           -8.7601274397       -8.9384496641       -7.1310760810  CLST         391          1.0000000000
      1173       391  TIP3  H2           -7.8841934569       -9.4810907910       -5.9285634526  CLST         391          1.0000000000
      1174       392  TIP3  OH2           1.0500181216       -1.9318916878        9.8089006234  CLST         392          1.0000000000
      1175       392  TIP3  H1            0.6143622234       -2.7965806771        9.9037511750  CLST         392          1.0000000000
      1176       392  TIP3  H2            0.2381798144       -1.3466363224        9.7878651530  CLST         392          1.0000000000
      1177       393  TIP3  OH2          10.8499478327      -12.1281622719       -0.8291935429  CLST         393          1.0000000000
      1178       393  TIP3  H1           12.3106078054      -10.5803161046       -1.3406735878  CLST         393          1.0000000000
      1179       393  TIP3  H2           11.7737756369      -11.9211062267       -1.3304739412  CLST         393          1.0000000000
      1180       394  TIP3  OH2           0.4616426441       11.6747227821       -8.6469470117  CLST         394          1.0000000000
      1181       394  TIP3  H1            1.0768123034       11.9980918634       -7.4672192446  CLST         394          1.0000000000
      1182       394  TIP3  H2            0.7879984300       10.5599243924       -8.2744242085  CLST         394          1.0000000000
      1183       395  TIP3  OH2           6.7530902733        7.5118663607       -4.3739130657  CLST         395          1.0000000000
      1184       395  TIP3  H1            5.7560911620        7.3416082011       -5.0853953042  CLST         395          1.0000000000
      1185       395  TIP3  H2            5.5116152422        6.6350071830       -6.2783046380  CLST         395          1.0000000000
      1186       396  TIP3  OH2          -0.8707342916      -10.1243047730       -9.1918994936  CLST         396          1.0000000000
      1187       396  TIP3  H1           -0.2507882434       -9.7074965386       -8.0958730451  CLST         396          1.0000000000
      1188       396  TIP3  H2            0.2575465625       -9.6528545755       -8.9560224840  CLST         396          1.0000000000
      1189       397  TIP3  OH2          11.2452921957        7.2223179053       -8.7959668470  CLST         397          1.0000000000
      1190       397  TIP3  H1           11.3441934238        6.4735691321       -8.1423863847  CLST         397          1.0000000000
      1191       397  TIP3  H2           10.3871594289        7.5804137104       -8.3391235950  CLST         397          1.0000000000
      1192       398  TIP3  OH2          10.3877357940        7.5496102436       -4.8531446558  CLST         398          1.0000000000
      1193       398  TIP3  H1            9.8912513745        8.0513635739       -4.1283771169  CLST         398          1.0000000000
      1194       398  TIP3  H2           11.1512679033        7.2222689841       -4.2981402066  CLST         398          1.0000000000
      1195       399  TIP3  OH2           1.8613667675       10.9953044921        4.9709908942  CLST         399          1.0000000000
      1196       399  TIP3  H1            0.9320613681       11.0725357720        5.3889061720  CLST         399          1.0000000000
      1197       399  TIP3  H2            2.2821534711       10.6072247526        5.8402683020  CLST         399          1.0000000000
      1198       400  TIP3  OH2           4.0951536179       -3.0149908642       -5.3386628813  CLST         400          1.0000000000
      1199       400  TIP3  H1            5.3239087724       -2.9800832583       -4.9099856014  CLST         400          1.0000000000
      1200       400  TIP3  H2            4.6878282520       -3.7721345694       -6.0760828375  CLST         400          1.0000000000
      1201       401  TIP3  OH2         -15.0693860346       10.0033920930        5.5214295596  CLST         401          1.0000000000
      1202       401  TIP3  H1          -14.5779846418       10.3503094728        6.3105425413  CLST         401          1.0000000000
      1203       401  TIP3  H2          -15.6127961922        9.3200683094        6.1223639349  CLST         401          1.0000000000
      1204       402  TIP3  OH2           1.5359469714       -1.6692209853       12.5261758563  CLST         402          1.0000000000
      1205       402  TIP3  H1            1.1279184152       -2.5609667400       12.5868860355  CLST         402          1.0000000000
      1206       402  TIP3  H2            1.6665405111       -1.7092209271       11.5538059454  CLST         402          1.0000000000
      1207       403  TIP3  OH2          -2.1356318268       -7.0570645824       -0.6070367103  CLST         403          1.0000000000
      1208       403  TIP3  H1           -0.6819376208       -7.7838367093       -4.2035408619  CLST         403          1.0000000000
      1209       403  TIP3  H2           -1.6825208895       -7.8686157536       -1.5827242232  CLST         403          1.0000000000
      1210       404  TIP3  OH2          -4.8119755122       -2.8123513398        8.8077184184  CLST         404          1.0000000000
      1211       404  TIP3  H1           -5.2551199828       -3.0143314472        9.6771789878  CLST         404          1.0000000000
      1212       404  TIP3  H2           -5.2678989446       -3.5726504001        8.2434380110  CLST         404          1.0000000000
      1213       405  TIP3  OH2         -11.7757909781        6.9787447806       11.0726245974  CLST         405          1.0000000000
      1214       405  TIP3  H1          -11.4511353290        5.9163399711       10.3336402908  CLST         405          1.0000000000
      1215       405  TIP3  H2          -12.7957543806        7.1210585467       12.2998417214  CLST         405          1.0000000000
      1216       406  TIP3  OH2           1.1377262874        7.4369630246      -11.9788688206  CLST         406          1.0000000000
      1217       406  TIP3  H1            1.1371356452        8.4229442929      -12.2075545753  CLST         406          1.0000000000
      1218       406  TIP3  H2            1.5043734388        7.2687234762      -11.1355017534  CLST         406          1.0000000000
      1219       407  TIP3  OH2          10.4063967303      -13.0692290811        5.1000798338  CLST         407          1.0000000000
      1220       407  TIP3  H1           10.3840994185      -13.3107418586        4.2021498938  CLST         407          1.0000000000
      1221       407  TIP3  H2           11.2190783301      -12.3646773793        5.1476893304  CLST         407          1.0000000000
      1222       408  TIP3  OH2          -2.9071822950      -11.3691727893        1.9087610219  CLST         408          1.0000000000
      1223       408  TIP3  H1           -2.0932409693      -10.7804681203        1.7624649380  CLST         408          1.0000000000
      1224       408  TIP3  H2           -2.4089490794      -12.1744549387        2.1848673113  CLST         408          1.0000000000
      1225       409  TIP3  OH2           0.9400046350       -9.3823391746        9.8268163603  CLST         409          1.0000000000
      1226       409  TIP3  H1            0.4570255503       -9.1531206097       10.6651983767  CLST         409          1.0000000000
      1227       409  TIP3  H2            1.4981109505      -10.0694297433       10.2305493043  CLST         409          1.0000000000
      1228       410  TIP3  OH2           9.8643945459       -6.7152161528       -5.1925058023  CLST         410          1.0000000000
      1229       410  TIP3  H1            8.9835079588       -6.4066369372       -5.5485512399  CLST         410          1.0000000000
      1230       410  TIP3  H2           10.4021491772       -5.7549216625       -5.3363856441  CLST         410          1.0000000000
      1231       411  TIP3  OH2         -10.2402266302       -2.3735366697       -1.3701176639  CLST         411          1.0000000000
      1232       411  TIP3  H1           -9.8848791037       -2.3704137457       -1.2382391848  CLST         411          1.0000000000
      1233       411  TIP3  H2           -9.9487598511       -4.8623583286       -4.5627492350  CLST         411          1.0000000000
      1234       412  TIP3  OH2           6.4349200893      -10.1012430099      -11.7040113092  CLST         412          1.0000000000
      1235       412  TIP3  H1            6.9251962170      -10.5905829852      -10.5358410121  CLST         412          1.0000000000
      1236       412  TIP3  H2            7.7417625981      -11.9997348977      -10.7708285396  CLST         412          1.0000000000
      1237       413  TIP3  OH2           6.9907794328       12.8886496654        0.3838485227  CLST         413          1.0000000000
      1238       413  TIP3  H1            7.5444462389       12.3707867720       -0.2769237991  CLST         413          1.0000000000
      1239       413  TIP3  H2            7.7550635815       13.2648638226        0.8883817791  CLST         413          1.0000000000
      1240       414  TIP3  OH2           1.8265783588       -2.3747668855      -12.4484993120  CLST         414          1.0000000000
      1241       414  TIP3  H1            0.7907311193       -1.9281951441      -12.0071820254  CLST         414          1.0000000000
      1242       414  TIP3  H2            1.6693363133       -2.2117832269      -13.9859280833  CLST         414          1.0000000000
      1243       415  TIP3  OH2           3.9805820989        5.4485571415       -7.7717166598  CLST         415          1.0000000000
      1244       415  TIP3  H1            3.5146999201        4.3756727192       -7.3233250340  CLST         415          1.0000000000
      1245       415  TIP3  H2            4.5676422012        4.3593626603       -7.9647990821  CLST         415          1.0000000000
      1246       416  TIP3  OH2           5.3694519050       12.0778746816       -7.4916441169  CLST         416          1.0000000000
      1247       416  TIP3  H1            6.1749728697       13.1822576664       -8.2663791381  CLST         416          1.0000000000
      1248       416  TIP3  H2            7.2807419628       12.8354643548       -8.6822862840  CLST         416          1.0000000000
      1249       417  TIP3  OH2          12.4505972623      -11.1998697384        2.7995516285  CLST         417          1.0000000000
      1250       417  TIP3  H1           11.6805364176      -11.8391389468        2.2963477435  CLST         417          1.0000000000
      1251       417  TIP3  H2           12.3593160956      -10.3773618252        2.2293176241  CLST         417          1.0000000000
      1252       418  TIP3  OH2          -8.9877675607       -1.6472189706        8.2196176097  CLST         418          1.0000000000
      1253       418  TIP3  H1           -8.6894665175       -1.2855110983        7.3329719701  CLST         418          1.0000000000
      1254       418  TIP3  H2           -8.8943251532       -0.8474361332        8.7641052599  CLST         418          1.0000000000
      1255       419  TIP3  OH2          13.9491358618        0.0174466412       -5.8864460944  CLST         419          1.0000000000
      1256       419  TIP3  H1           13.7619493675        0.4832239523       -4.7039351209  CLST         419          1.0000000000
      1257       419  TIP3  H2           14.3728349223       -0.4559088483       -4.7703515954  CLST         419          1.0000000000
      1258       420  TIP3  OH2          -8.2808496864       -8.0632679275        3.4061713040  CLST         420          1.0000000000
      1259       420  TIP3  H1           -9.8701113758       -7.5776471903        2.9408058796  CLST         420          1.0000000000
      1260       420  TIP3  H2           -8.4072990499       -6.5819711834        2.8608992552  CLST         420          1.0000000000
      1261       421  TIP3  OH2           3.4290943397       -6.3110870283      -12.5437141399  CLST         421          1.0000000000
      1262       421  TIP3  H1            4.4061302953       -7.1969277799      -12.4103418573  CLST         421          1.0000000000
      1263       421  TIP3  H2            3.3403214127       -7.5882038807      -12.3921216598  CLST         421          1.0000000000
      1264       422  TIP3  OH2          -1.7111957428       -9.1161553757       -1.8226286347  CLST         422          1.0000000000
      1265       422  TIP3  H1           -1.8612543240       -9.7482563866       -2.4835273619  CLST         422          1.0000000000
      1266       422  TIP3  H2           -3.1714831829      -11.0719290342       -2.6953534164  CLST         422          1.0000000000
      1267       423  TIP3  OH2           1.7129024380        5.2281014162       -4.2310400679  CLST         423          1.0000000000
      1268       423  TIP3  H1            2.6090815758        6.4013741071       -4.9008335565  CLST         423          1.0000000000
      1269       423  TIP3  H2            2.9440953597        4.8053928147       -5.2264412518  CLST         423          1.0000000000
      1270       424  TIP3  OH2          -8.9501892411        4.2363436912        4.2732346844  CLST         424          1.0000000000
      1271       424  TIP3  H1           -8.6436662848        3.4692159931        3.6837033411  CLST         424          1.0000000000
      1272       424  TIP3  H2           -8.1428372265        4.9314751904        4.2086057513  CLST         424          1.0000000000
      1273       425  TIP3  OH2           8.2522866699      -12.3755714951        8.3604427901  CLST         425          1.0000000000
      1274       425  TIP3  H1            8.2026562847      -12.0517928961        7.4206026110  CLST         425          1.0000000000
      1275       425  TIP3  H2            8.0751806242      -11.5082200922        8.8056301306  CLST         425          1.0000000000
      1276       426  TIP3  OH2           8.1459401558        2.4511408949        8.4030995229  CLST         426          1.0000000000
      1277       426  TIP3  H1            8.9969126230        2.2277599559        8.9425951789  CLST         426          1.0000000000
      1278       426  TIP3  H2            8.5156969777        3.3760866102        8.1514053777  CLST         426          1.0000000000
      1279       427  TIP3  OH2          11.1637624240        7.4305022218       10.5346609238  CLST         427          1.0000000000
      1280       427  TIP3  H1           11.3497919418        7.8250767492       11.4103484834  CLST         427          1.0000000000
      1281       427  TIP3  H2           10.3220871390        6.8865067321       10.6620651254  CLST         427          1.0000000000
      1282       428  TIP3  OH2          12.2651845303        7.5728358662        1.0501906555  CLST         428          1.0000000000
      1283       428  TIP3  H1           11.9764760107        8.1741744297        0.2590167416  CLST         428          1.0000000000
      1284       428  TIP3  H2           13.1780223864        7.6260617183        0.8376564390  CLST         428          1.0000000000
      1285       429  TIP3  OH2          12.0810755031       -9.6848658584       -0.9834300425  CLST         429          1.0000000000
      1286       429  TIP3  H1           12.0228121582       -9.3375891559        0.0470181584  CLST         429          1.0000000000
      1287       429  TIP3  H2           11.4221952812       -9.0000839120       -1.4176230596  CLST         429          1.0000000000
      1288       430  TIP3  OH2           9.8603553641       -6.6778014927        3.6449101825  CLST         430          1.0000000000
      1289       430  TIP3  H1            9.6963708149       -7.0485595606        2.7409575913  CLST         430          1.0000000000
      1290       430  TIP3  H2           10.8678213681       -6.5479736786        3.5446017110  CLST         430          1.0000000000
      1291       431  TIP3  OH2         -12.7663246859        9.4369542974       -2.4552202919  CLST         431          1.0000000000
      1292       431  TIP3  H1          -13.1702100204        9.5275462413       -2.6117446745  CLST         431          1.0000000000
      1293       431  TIP3  H2          -13.6764174357        9.1414584988       -1.1285458055  CLST         431          1.0000000000
      1294       432  TIP3  OH2           5.3534153620        8.3229982973       -9.8350992226  CLST         432          1.0000000000
      1295       432  TIP3  H1            5.7065245931        8.2905811534       -8.8642513290  CLST         432          1.0000000000
      1296       432  TIP3  H2            4.8045414778        9.3122246840       -9.6028341682  CLST         432          1.0000000000
      1297       433  TIP3  OH2          -0.7721884700        7.9997724085        7.5836115388  CLST         433          1.0000000000
      1298       433  TIP3  H1           -1.6331230185        8.5071445262        7.7468689463  CLST         433          1.0000000000
      1299       433  TIP3  H2           -1.0862049586        7.2076317825        7.1018354727  CLST         433          1.0000000000
      1300       434  TIP3  OH2          -7.1758080925        0.7766642108        3.7464299304  CLST         434          1.0000000000
      1301       434  TIP3  H1           -7.5931691274        1.4217200507        3.0844683887  CLST         434          1.0000000000
      1302       434  TIP3  H2           -7.7236206435       -0.0415784848        3.5213153782  CLST         434          1.0000000000
      1303       435  TIP3  OH2           9.5557141423       -0.8095798792       -7.1812716351  CLST         435          1.0000000000
      1304       435  TIP3  H1           10.2947127063       -1.1836611380       -7.8268650301  CLST         435          1.0000000000
      1305       435  TIP3  H2           11.2233462109       -2.2569777577       -8.0399119856  CLST         435          1.0000000000
      1306       436  TIP3  OH2           3.8781400151       10.3900100005       -8.9393299661  CLST         436          1.0000000000
      1307       436  TIP3  H1            4.9677217896       11.5545360694       -7.8836321066  CLST         436          1.0000000000
      1308       436  TIP3  H2            3.0596017872       10.4941242563       -8.3830031695  CLST         436          1.0000000000
      1309       437  TIP3  OH2          -8.3646092483       -1.2103207048       -7.9980217376  CLST         437          1.0000000000
      1310       437  TIP3  H1           -8.6677026751       -0.0839463837       -9.0347781308  CLST         437          1.0000000000
      1311       437  TIP3  H2           -6.6396755385       -0.7269638198       -7.8064098357  CLST         437          1.0000000000
      1312       438  TIP3  OH2          -3.3110187192        5.3048330520       -8.1177130651  CLST         438          1.0000000000
      1313       438  TIP3  H1           -3.8681068590        5.6717734708       -7.5159945114  CLST         438          1.0000000000
      1314       438  TIP3  H2           -3.6223722770        5.7824468729       -8.9683233595  CLST         438          1.0000000000
      1315       439  TIP3  OH2          13.7577598349        1.5437624442       -4.2741483154  CLST         439          1.0000000000
      1316       439  TIP3  H1           12.8722927504        2.5275041084       -3.9796147950  CLST         439          1.0000000000
      1317       439  TIP3  H2           12.9388304604        1.7864465162       -3.3099165733  CLST         439          1.0000000000
      1318       440  TIP3  OH2           1.5166621605      -11.9434542221      -10.7757150785  CLST         440          1.0000000000
      1319       440  TIP3  H1           -0.3085915286      -11.2282638600      -11.0138994664  CLST         440          1.0000000000
      1320       440  TIP3  H2            0.2995444926      -12.1503011245      -10.5370397864  CLST         440          1.0000000000
      1321       441  TIP3  OH2          -1.4316477877       -4.1552972123        3.0980178964  CLST         441          1.0000000000
      1322       441  TIP3  H1           -1.6627103492       -3.7088814965        3.8553232432  CLST         441          1.0000000000
      1323       441  TIP3  H2           -1.0231280588       -4.7607323127        4.6001372254  CLST         441          1.0000000000
      1324       442  TIP3  OH2           3.2184703067       -9.6690284331       -8.2201675177  CLST         442          1.0000000000
      1325       442  TIP3  H1            3.0246896134      -10.7748023709       -9.0008446056  CLST         442          1.0000000000
      1326       442  TIP3  H2            1.7868338922      -10.2832506367       -9.6823086140  CLST         442          1.0000000000
      1327       443  TIP3  OH2           1.1599705568       10.2003696233      -12.8458796320  CLST         443          1.0000000000
      1328       443  TIP3  H1            1.8254918676       11.6128958879      -11.9366555782  CLST         443          1.0000000000
      1329       443  TIP3  H2            1.6694645880       10.5144777628      -13.5680728859  CLST         443          1.0000000000
      1330       444  TIP3  OH2          -7.7856169874        1.3169150317       -1.8800320735  CLST         444          1.0000000000
      1331       444  TIP3  H1           -8.0476955332        2.1444241472       -2.3699458543  CLST         444          1.0000000000
      1332       444  TIP3  H2           -7.5591854933        1.7816555877       -1.0364974770  CLST         444          1.0000000000
      1333       445  TIP3  OH2         -10.9666058220       -5.2187825640        6.1347981206  CLST         445          1.0000000000
      1334       445  TIP3  H1          -11.0920669252       -3.9778295328        6.0930128112  CLST         445          1.0000000000
      1335       445  TIP3  H2          -11.3953111480       -4.2469131601        7.0307500248  CLST         445          1.0000000000
      1336       446  TIP3  OH2          -2.5433965823        4.4594529309       -5.5294803898  CLST         446          1.0000000000
      1337       446  TIP3  H1           -3.3228470159        4.2988755755       -4.4018748315  CLST         446          1.0000000000
      1338       446  TIP3  H2           -1.4567824565        5.0367847064       -4.7582855700  CLST         446          1.0000000000
      1339       447  TIP3  OH2          -4.7298845183      -12.6222667631       -3.6990585480  CLST         447          1.0000000000
      1340       447  TIP3  H1           -5.4068658042      -13.3584537951       -3.5661263729  CLST         447          1.0000000000
      1341       447  TIP3  H2           -4.7848327624      -12.2205400989       -2.6948013009  CLST         447          1.0000000000
      1342       448  TIP3  OH2           7.4426478229        9.4768234482        4.6288047614  CLST         448          1.0000000000
      1343       448  TIP3  H1            7.4640768034        9.3725528094        5.6337156703  CLST         448          1.0000000000
      1344       448  TIP3  H2            6.7444398191       10.1800901095        4.6830712131  CLST         448          1.0000000000
      1345       449  TIP3  OH2           4.3626534820        5.3013478509        8.4553188908  CLST         449          1.0000000000
      1346       449  TIP3  H1            4.9209763009        4.6734454308        8.9895656344  CLST         449          1.0000000000
      1347       449  TIP3  H2            4.2250593594        4.8391116931        7.6153335399  CLST         449          1.0000000000
      1348       450  TIP3  OH2          -3.9981157401        0.1719696926       -1.9727059380  CLST         450          1.0000000000
      1349       450  TIP3  H1           -3.5725069356        0.9098269556       -2.3726380352  CLST         450          1.0000000000
      1350       450  TIP3  H2           -3.3864186652       -0.3698784005       -1.5339138207  CLST         450          1.0000000000
      1351       451  TIP3  OH2          12.6784284468       -1.6633828395       -5.7160710227  CLST         451          1.0000000000
      1352       451  TIP3  H1           13.4220719057        0.3133415556       -6.4059252147  CLST         451          1.0000000000
      1353       451  TIP3  H2           13.3323713086       -0.8343296704       -6.4374917264  CLST         451          1.0000000000
      1354       452  TIP3  OH2           8.5248944960        5.0298799311        7.9287953246  CLST         452          1.0000000000
      1355       452  TIP3  H1            7.7225101751        5.6031990025        7.7168035522  CLST         452          1.0000000000
      1356       452  TIP3  H2            9.1752526563        5.5831689016        7.4126767617  CLST         452          1.0000000000
      1357       453  TIP3  OH2           6.9765525010        2.7698217827       -6.2705619904  CLST         453          1.0000000000
      1358       453  TIP3  H1            5.4657301196        1.6139079120       -5.3957145224  CLST         453          1.0000000000
      1359       453  TIP3  H2            6.0614586700        2.6996288977       -6.8505294800  CLST         453          1.0000000000
      1360       454  TIP3  OH2           1.1556686419        5.5442870336        2.1882983423  CLST         454          1.0000000000
      1361       454  TIP3  H1            0.3312089081        5.2366105939        1.7569541760  CLST         454          1.0000000000
      1362       454  TIP3  H2            0.8128529398        6.2024728027        2.8214933567  CLST         454          1.0000000000
      1363       455  TIP3  OH2          -0.9828371996        0.9459122055      -10.1493041809  CLST         455          1.0000000000
      1364       455  TIP3  H1           -1.2218504684        1.5067911116       -8.9401002346  CLST         455          1.0000000000
      1365       455  TIP3  H2           -0.8915726592        2.0861632700      -10.3791090786  CLST         455          1.0000000000
      1366       456  TIP3  OH2           5.2117914576       11.2047110631        5.2333718432  CLST         456          1.0000000000
      1367       456  TIP3  H1            4.4556723783       11.7937248301        4.2797713157  CLST         456          1.0000000000
      1368       456  TIP3  H2            4.4860772101       11.1184533031        5.8880013539  CLST         456          1.0000000000
      1369       457  TIP3  OH2          -4.8338439605       -7.7472601596        4.8386518301  CLST         457          1.0000000000
      1370       457  TIP3  H1           -5.4613676253       -7.4671238345        5.6744236970  CLST         457          1.0000000000
      1371       457  TIP3  H2           -5.4331703596       -7.2074162892        4.0709964446  CLST         457          1.0000000000
      1372       458  TIP3  OH2           7.8748652045       -6.5645912688      -11.0240446964  CLST         458          1.0000000000
      1373       458  TIP3  H1            8.9823423716       -6.1241778155      -11.0707783655  CLST         458          1.0000000000
      1374       458  TIP3  H2            8.3205431683       -5.6722899925      -10.2338519480  CLST         458          1.0000000000
      1375       459  TIP3  OH2           6.1493096902       -9.8874464385       -7.8657697885  CLST         459          1.0000000000
      1376       459  TIP3  H1            5.4899615684       -8.7015483467       -8.2580156505  CLST         459          1.0000000000
      1377       459  TIP3  H2            6.6074857363       -9.1565047212       -8.6393728125  CLST         459          1.0000000000
      1378       460  TIP3  OH2          10.0937505179       -2.6393066500       -2.3530804383  CLST         460          1.0000000000
      1379       460  TIP3  H1            6.4931087608        2.8665033869      -15.7440000377  CLST         460          1.0000000000
      1380       460  TIP3  H2           10.5914638009       -2.1235724106       -3.3583521462  CLST         460          1.0000000000
      1381       461  TIP3  OH2          -1.6293017808      -12.7369958019       -5.0315373670  CLST         461          1.0000000000
      1382       461  TIP3  H1            6.5141272940      -10.5569830212       -8.1621129730  CLST         461          1.0000000000
      1383       461  TIP3  H2           -0.3373432760      -12.4637100076       -4.6047083835  CLST         461          1.0000000000
      1384       462  TIP3  OH2          -0.1524034091        5.3397940654      -12.7536966021  CLST         462          1.0000000000
      1385       462  TIP3  H1            0.2436377716        6.2439849031      -12.3981980064  CLST         462          1.0000000000
      1386       462  TIP3  H2            0.5055798274        5.1616258393      -13.3761328435  CLST         462          1.0000000000
      1387       463  TIP3  OH2          -1.5282241412        1.8813430549       -7.6054884842  CLST         463          1.0000000000
      1388       463  TIP3  H1           -1.3216851011        0.7901518345       -7.0397941913  CLST         463          1.0000000000
      1389       463  TIP3  H2           -2.9374362528        1.8166460615       -7.4410589876  CLST         463          1.0000000000
      1390       464  TIP3  OH2          -6.5695586357        6.2843546042        4.1363895097  CLST         464          1.0000000000
      1391       464  TIP3  H1           -6.5750915266        6.1368608989        4.4188608764  CLST         464          1.0000000000
      1392       464  TIP3  H2           -7.2126104300        7.3826989868        5.3097023351  CLST         464          1.0000000000
      1393       465  TIP3  OH2          -4.5521252102      -12.2401677259        6.2971514615  CLST         465          1.0000000000
      1394       465  TIP3  H1           -3.5860476148      -12.5927894719        6.1762543228  CLST         465          1.0000000000
      1395       465  TIP3  H2           -4.2701644219      -11.2512357570        6.1734879428  CLST         465          1.0000000000
      1396       466  TIP3  OH2          -2.0536600114        8.9185585288       -4.1491282178  CLST         466          1.0000000000
      1397       466  TIP3  H1           -3.1495699444        8.8528908860       -4.8958268301  CLST         466          1.0000000000
      1398       466  TIP3  H2           -2.0756929947        9.5211014101       -3.6364676507  CLST         466          1.0000000000
      1399       467  TIP3  OH2           8.0598964490        5.8429300508        4.3397919357  CLST         467          1.0000000000
      1400       467  TIP3  H1            8.5098025097        6.3216047744        5.0625285514  CLST         467          1.0000000000
      1401       467  TIP3  H2            7.9260767358        6.5935326244        3.6738167880  CLST         467          1.0000000000
      1402       468  TIP3  OH2          -0.4317200381      -12.3592567308       10.3183554469  CLST         468          1.0000000000
      1403       468  TIP3  H1           -0.8292053549      -12.1347146126       11.1861091941  CLST         468          1.0000000000
      1404       468  TIP3  H2            0.5171711616      -12.2607943344       10.5292655470  CLST         468          1.0000000000
      1405       469  TIP3  OH2           5.3894667763        8.0629054200       14.0106326787  CLST         469          1.0000000000
      1406       469  TIP3  H1            6.1694638869        8.4487139880       13.5559699444  CLST         469          1.0000000000
      1407       469  TIP3  H2            4.7321301799        8.7059918199       13.5891628515  CLST         469          1.0000000000
      1408       470  TIP3  OH2         -10.8905424073       12.5632566589        0.8877201381  CLST         470          1.0000000000
      1409       470  TIP3  H1          -10.6345481698       12.8955310022        0.0229931648  CLST         470          1.0000000000
      1410       470  TIP3  H2          -11.6176567533       11.8573465698        0.5989899959  CLST         470          1.0000000000
      1411       471  TIP3  OH2          -3.9910416169        9.4724941433       -9.0508643479  CLST         471          1.0000000000
      1412       471  TIP3  H1           -4.3906701333        8.6045976235       -9.4142372633  CLST         471          1.0000000000
      1413       471  TIP3  H2           -4.8407433333       10.0242370604       -9.3622325812  CLST         471          1.0000000000
      1414       472  TIP3  OH2         -11.9089556697        3.9073944059        2.8015999031  CLST         472          1.0000000000
      1415       472  TIP3  H1          -12.2653393183        3.0185375192        3.1747754504  CLST         472          1.0000000000
      1416       472  TIP3  H2          -11.4835699170        3.4755873282        1.9995041923  CLST         472          1.0000000000
      1417       473  TIP3  OH2           5.6093779618        0.9695238145       10.2883867968  CLST         473          1.0000000000
      1418       473  TIP3  H1            6.3844740545        1.2872077731       10.7868147757  CLST         473          1.0000000000
      1419       473  TIP3  H2            5.3386714207        1.8712639322        9.9588367075  CLST         473          1.0000000000
      1420       474  TIP3  OH2           1.2701752226        1.6362900358        1.6777866203  CLST         474          1.0000000000
      1421       474  TIP3  H1            0.3623834854        1.3671572838        1.9320965685  CLST         474          1.0000000000
      1422       474  TIP3  H2            1.0888659075        1.6807028749        0.7220857541  CLST         474          1.0000000000
      1423       475  TIP3  OH2           6.0798422802       -8.6910121885       11.8286912062  CLST         475          1.0000000000
      1424       475  TIP3  H1            6.9820924412       -8.8334672223       12.1465663930  CLST         475          1.0000000000
      1425       475  TIP3  H2            6.1911994040       -9.0945867382       10.9252507754  CLST         475          1.0000000000
      1426       476  TIP3  OH2         -11.1835622879       -8.9939142080        0.0986991248  CLST         476          1.0000000000
      1427       476  TIP3  H1          -11.6402894950       -7.0939201305       -0.7064574588  CLST         476          1.0000000000
      1428       476  TIP3  H2          -11.3278665202       -8.5627269527       -0.8728528367  CLST         476          1.0000000000
      1429       477  TIP3  OH2         -12.2495199939        3.5006850140      -13.2457737366  CLST         477          1.0000000000
      1430       477  TIP3  H1          -11.6189618043        2.9297073322      -12.7547769596  CLST         477          1.0000000000
      1431       477  TIP3  H2          -12.0024224928        3.1659783744      -14.1298032311  CLST         477          1.0000000000
      1432       478  TIP3  OH2          -4.0287850956        6.5441437545      -10.4756984405  CLST         478          1.0000000000
      1433       478  TIP3  H1           -4.6086625727        6.3276815994      -11.2425621174  CLST         478          1.0000000000
      1434       478  TIP3  H2           -3.3725379582        7.1236519156      -10.9556059792  CLST         478          1.0000000000
      1435       479  TIP3  OH2           7.8931978365       -1.8809453875       -8.3870571481  CLST         479          1.0000000000
      1436       479  TIP3  H1            8.4891325615       -1.2590444992       -7.5092870945  CLST         479          1.0000000000
      1437       479  TIP3  H2            7.5037384777       -1.8053707785       -7.1193454201  CLST         479          1.0000000000
      1438       480  TIP3  OH2          -6.1204702741        7.5929072440        0.1808997562  CLST         480          1.0000000000
      1439       480  TIP3  H1           -5.1265503079        7.9007762013       -0.2008472119  CLST         480          1.0000000000
      1440       480  TIP3  H2           -5.8593253234        6.5967433888        0.1061784268  CLST         480          1.0000000000
      1441       481  TIP3  OH2          -2.9232416120        2.5072639700       11.7062773593  CLST         481          1.0000000000
      1442       481  TIP3  H1           -1.9402305565        2.4818239853       11.4689631099  CLST         481          1.0000000000
      1443       481  TIP3  H2           -3.1135030600        1.5959089188       11.8495429436  CLST         481          1.0000000000
      1444       482  TIP3  OH2          -8.3063899959       11.3202907129       -7.5637381121  CLST         482          1.0000000000
      1445       482  TIP3  H1           -8.5059278801       11.3467065329       -8.8482595901  CLST         482          1.0000000000
      1446       482  TIP3  H2           -7.0611459378       12.0548272749       -9.5375904822  CLST         482          1.0000000000
      1447       483  TIP3  OH2           6.1777013639       -5.9624811166       12.5062852860  CLST         483          1.0000000000
      1448       483  TIP3  H1            5.9235349523       -6.9303664200       12.3635087755  CLST         483          1.0000000000
      1449       483  TIP3  H2            6.0154867751       -5.7320370343       11.5413118106  CLST         483          1.0000000000
      1450       484  TIP3  OH2           6.7056811397       -3.1665387280        2.9321930995  CLST         484          1.0000000000
      1451       484  TIP3  H1            5.7296158486       -3.3478277596        3.0214303557  CLST         484          1.0000000000
      1452       484  TIP3  H2            6.6567696270       -2.2615645570        3.3929999471  CLST         484          1.0000000000
      1453       485  TIP3  OH2         -11.3065855403        4.5662721415        9.4691852418  CLST         485          1.0000000000
      1454       485  TIP3  H1          -11.4058891090        3.4216486846        9.0900337822  CLST         485          1.0000000000
      1455       485  TIP3  H2          -12.2718281211        3.9562860998        8.9518030104  CLST         485          1.0000000000
      1456       486  TIP3  OH2           8.4115535032       -6.9611106388       13.3729085330  CLST         486          1.0000000000
      1457       486  TIP3  H1            8.5333108508       -6.6691926435       14.1946255745  CLST         486          1.0000000000
      1458       486  TIP3  H2            7.6269269131       -6.4081950439       13.0912859020  CLST         486          1.0000000000
      1459       487  TIP3  OH2          12.2800604678       -8.5522545929        6.3176871453  CLST         487          1.0000000000
      1460       487  TIP3  H1           11.3527533107       -8.3583502410        6.2054290010  CLST         487          1.0000000000
      1461       487  TIP3  H2           12.2314553777       -8.6611021391        7.3733019767  CLST         487          1.0000000000
      1462       488  TIP3  OH2          15.3411633550        8.6616538741        7.6188426464  CLST         488          1.0000000000
      1463       488  TIP3  H1           15.0164993835        7.7840666986        7.8916641623  CLST         488          1.0000000000
      1464       488  TIP3  H2           13.8008348428        7.2068001209        8.6417699556  CLST         488          1.0000000000
      1465       489  TIP3  OH2          -5.7887790095      -10.4811913562       11.5837554050  CLST         489          1.0000000000
      1466       489  TIP3  H1           -7.0634401398      -10.7037004678       10.6217748003  CLST         489          1.0000000000
      1467       489  TIP3  H2           -8.5161620835      -10.7292883100        9.8868837371  CLST         489          1.0000000000
      1468       490  TIP3  OH2           6.6668408947      -12.9656027342        2.2094004294  CLST         490          1.0000000000
      1469       490  TIP3  H1            6.6383087442      -11.9276436792        2.6202779084  CLST         490          1.0000000000
      1470       490  TIP3  H2            6.3684563347      -13.3572969652        2.8620959600  CLST         490          1.0000000000
      1471       491  TIP3  OH2           3.2803098969       -9.4434253865        4.9186150397  CLST         491          1.0000000000
      1472       491  TIP3  H1            2.3082955021       -9.5111468982        5.0572372500  CLST         491          1.0000000000
      1473       491  TIP3  H2            3.4553970728      -10.0150066445        4.1693282787  CLST         491          1.0000000000
      1474       492  TIP3  OH2          -0.6617475573       -6.2781160575       12.3091301743  CLST         492          1.0000000000
      1475       492  TIP3  H1           -0.4327086191       -7.2533788960       12.3816324216  CLST         492          1.0000000000
      1476       492  TIP3  H2           -1.6327145009       -6.3597906876       12.3676810246  CLST         492          1.0000000000
      1477       493  TIP3  OH2           3.3891467988       10.5003889614        7.1315687128  CLST         493          1.0000000000
      1478       493  TIP3  H1            4.1475687473       10.4962856292        7.8182617787  CLST         493          1.0000000000
      1479       493  TIP3  H2            2.6278973326       10.1978060388        7.6824806354  CLST         493          1.0000000000
      1480       494  TIP3  OH2          -9.1207731624        5.5503270778       -0.4873324421  CLST         494          1.0000000000
      1481       494  TIP3  H1           -9.2227107078        6.3851314105       -0.9568225657  CLST         494          1.0000000000
      1482       494  TIP3  H2           -9.7133202328        5.7714053399        0.2755180355  CLST         494          1.0000000000
      1483       495  TIP3  OH2           4.5437518385       -6.6398080430       -2.1096893283  CLST         495          1.0000000000
      1484       495  TIP3  H1            5.4739395427       -6.4461755597       -2.5421035401  CLST         495          1.0000000000
      1485       495  TIP3  H2            4.9163560162       -7.2697617708       -1.4261127422  CLST         495          1.0000000000
      1486       496  TIP3  OH2         -12.7274089994      -10.5625489052        7.4637667911  CLST         496          1.0000000000
      1487       496  TIP3  H1          -13.2897446854      -10.7061670873        7.1980606671  CLST         496          1.0000000000
      1488       496  TIP3  H2          -12.3871599475      -11.6978589481        5.9606825048  CLST         496          1.0000000000
      1489       497  TIP3  OH2          -9.5023980865      -12.7002794443       -7.5131332773  CLST         497          1.0000000000
      1490       497  TIP3  H1           -9.6567761291      -13.2703484203       -7.1971725270  CLST         497          1.0000000000
      1491       497  TIP3  H2          -10.0087275500      -11.3864092771       -8.0567051815  CLST         497          1.0000000000
      1492       498  TIP3  OH2          -5.4879677064        0.4182364585      -10.9161776046  CLST         498          1.0000000000
      1493       498  TIP3  H1           -6.1482979214        0.5043192070      -11.6289663714  CLST         498          1.0000000000
      1494       498  TIP3  H2           -5.4215731164        1.3568371930      -10.6134697258  CLST         498          1.0000000000
      1495       499  TIP3  OH2          11.2311947549        6.6042535551        3.4612831083  CLST         499          1.0000000000
      1496       499  TIP3  H1           11.7695821219        7.0691785683        2.7737994111  CLST         499          1.0000000000
      1497       499  TIP3  H2           10.9230464714        7.4213863120        3.9373839626  CLST         499          1.0000000000
      1498       500  TIP3  OH2           2.3590600277       -8.2148154463      -12.7527147562  CLST         500          1.0000000000
      1499       500  TIP3  H1            0.9835428907      -11.9226271698      -11.5296429020  CLST         500          1.0000000000
      1500       500  TIP3  H2            1.7704390511      -10.9260165519      -11.5174582089  CLST         500          1.0000000000
      1501       501  TIP3  OH2           1.4392406609      -10.7568848851       13.7931450630  CLST         501          1.0000000000
      1502       501  TIP3  H1            1.5244811314      -11.5154958066       14.3272510101  CLST         501          1.0000000000
      1503       501  TIP3  H2            2.4197335685      -10.4619370012       13.6666004992  CLST         501          1.0000000000
      1504       502  TIP3  OH2           6.0711285388        3.8240638261        9.5870617045  CLST         502          1.0000000000
      1505       502  TIP3  H1            6.4997322888        4.1044327351       10.4260654278  CLST         502          1.0000000000
      1506       502  TIP3  H2            6.7965543819        3.2911421319        9.2153404555  CLST         502          1.0000000000
      1507       503  TIP3  OH2          10.1795262078       -0.6595251549        0.2576340344  CLST         503          1.0000000000
      1508       503  TIP3  H1           10.5330477660       -0.2666630333        0.9936354362  CLST         503          1.0000000000
      1509       503  TIP3  H2            9.7107101484       -0.2765868244       -0.4801844050  CLST         503          1.0000000000
      1510       504  TIP3  OH2           7.8988303157      -13.6595589988       10.6208264779  CLST         504          1.0000000000
      1511       504  TIP3  H1            7.9923458497      -13.3463031464        9.6811029306  CLST         504          1.0000000000
      1512       504  TIP3  H2            8.4063815473      -14.4172229998       10.6607748214  CLST         504          1.0000000000
      1513       505  TIP3  OH2           3.7994039864      -11.0348891677       -6.2723981014  CLST         505          1.0000000000
      1514       505  TIP3  H1            3.3357105227      -10.2899059052       -7.5520880502  CLST         505          1.0000000000
      1515       505  TIP3  H2            1.2500140078      -10.2588127120       -2.4934326824  CLST         505          1.0000000000
      1516       506  TIP3  OH2          -8.7848741154       -3.6317037737       -7.7470380192  CLST         506          1.0000000000
      1517       506  TIP3  H1           -8.4913185562       -2.4056303892       -7.4277161526  CLST         506          1.0000000000
      1518       506  TIP3  H2           -9.4087927355       -2.6301407437       -8.3328771778  CLST         506          1.0000000000
      1519       507  TIP3  OH2          10.9382228952        9.8771832853      -12.5528957043  CLST         507          1.0000000000
      1520       507  TIP3  H1           11.3175590858        8.6610733844      -13.0814862605  CLST         507          1.0000000000
      1521       507  TIP3  H2           10.7153048060        8.5326186452      -11.7181970686  CLST         507          1.0000000000
      1522       508  TIP3  OH2           9.2233772078       11.9929265253        8.7460883159  CLST         508          1.0000000000
      1523       508  TIP3  H1            8.7312853879       12.2054578641        7.9453336010  CLST         508          1.0000000000
      1524       508  TIP3  H2           10.1581014512       12.2209032391        8.4463447759  CLST         508          1.0000000000
      1525       509  TIP3  OH2          -0.4900833518       -1.5885011226      -11.0717020352  CLST         509          1.0000000000
      1526       509  TIP3  H1           -1.4724026965       -0.7757537032      -11.1063868099  CLST         509          1.0000000000
      1527       509  TIP3  H2           -0.6738900605       -0.4736658542      -10.7508760375  CLST         509          1.0000000000
      1528       510  TIP3  OH2           8.1891127179        2.0607900788       11.5169323820  CLST         510          1.0000000000
      1529       510  TIP3  H1            8.2886388623        1.0194220051       11.5770118333  CLST         510          1.0000000000
      1530       510  TIP3  H2            9.1362888551        2.2150115258       11.0708819938  CLST         510          1.0000000000
      1531       511  TIP3  OH2          -8.9539941595       -5.9219051640       -0.5793433990  CLST         511          1.0000000000
      1532       511  TIP3  H1           -9.6259715427       -5.9952884746       -1.4075154157  CLST         511          1.0000000000
      1533       511  TIP3  H2           -9.5694216326       -5.1564486635       -2.7322280840  CLST         511          1.0000000000
      1534       512  TIP3  OH2          10.0638097135        6.9513697336        6.8673294542  CLST         512          1.0000000000
      1535       512  TIP3  H1           10.2358233360        7.5628293585        7.6359326053  CLST         512          1.0000000000
      1536       512  TIP3  H2           10.1207713327        7.6386905121        6.1241121307  CLST         512          1.0000000000
      1537       513  TIP3  OH2         -11.5296855534       10.4399591745        9.0551804141  CLST         513          1.0000000000
      1538       513  TIP3  H1          -10.9863647322       11.2572200286        9.2062956089  CLST         513          1.0000000000
      1539       513  TIP3  H2          -11.2520769014        9.8427546882        9.8066603747  CLST         513          1.0000000000
      1540       514  TIP3  OH2          -4.8703295172        5.1207870999       -0.0467314712  CLST         514          1.0000000000
      1541       514  TIP3  H1           -4.1535327528        5.2723191062        0.1321452850  CLST         514          1.0000000000
      1542       514  TIP3  H2           -4.2513915553        5.2005732479       -1.5002931886  CLST         514          1.0000000000
      1543       515  TIP3  OH2          -0.6644791223        0.8450230997       -4.3605366200  CLST         515          1.0000000000
      1544       515  TIP3  H1           -1.9402038064        2.0127446152       -4.2624658806  CLST         515          1.0000000000
      1545       515  TIP3  H2           -0.0801277541        1.4960618855       -3.9693122586  CLST         515          1.0000000000
      1546       516  TIP3  OH2          -7.4135284317       -8.3248702531        6.4907835956  CLST         516          1.0000000000
      1547       516  TIP3  H1           -7.1176631049       -8.7269246484        6.0877479319  CLST         516          1.0000000000
      1548       516  TIP3  H2           -7.4008526134       -8.6858197839        7.0072820441  CLST         516          1.0000000000
      1549       517  TIP3  OH2           0.7137283995       11.1114355985       11.3639125912  CLST         517          1.0000000000
      1550       517  TIP3  H1            0.6427707908       10.8203649735       10.3999914895  CLST         517          1.0000000000
      1551       517  TIP3  H2           -0.3515373455       11.2401361017       11.3447229764  CLST         517          1.0000000000
      1552       518  TIP3  OH2         -11.5072218794       -3.4752048679      -11.1126537658  CLST         518          1.0000000000
      1553       518  TIP3  H1          -11.7346211468       -2.9131920657      -11.8839820184  CLST         518          1.0000000000
      1554       518  TIP3  H2          -10.9305890422       -4.1663638262      -11.7112344377  CLST         518          1.0000000000
      1555       519  TIP3  OH2           2.3846614425        3.5474619262        3.3964525047  CLST         519          1.0000000000
      1556       519  TIP3  H1            1.9290194785        4.3499543921        2.9295758159  CLST         519          1.0000000000
      1557       519  TIP3  H2            1.8974240424        2.8504139508        2.8627153054  CLST         519          1.0000000000
      1558       520  TIP3  OH2         -10.0771972804        6.1493703442        8.2353561803  CLST         520          1.0000000000
      1559       520  TIP3  H1          -10.6722609101        5.5574872738        7.0187916952  CLST         520          1.0000000000
      1560       520  TIP3  H2          -10.9278289948        5.3806995620        8.7664274335  CLST         520          1.0000000000
      1561       521  TIP3  OH2           8.2399231917       -8.8519124051       -9.3518461218  CLST         521          1.0000000000
      1562       521  TIP3  H1            8.5569367184       -9.4213251969      -10.5048278779  CLST         521          1.0000000000
      1563       521  TIP3  H2            8.1487260810       -7.6171987312      -10.5049280544  CLST         521          1.0000000000
      1564       522  TIP3  OH2          -5.5133295373       -7.1588052369        8.0497914366  CLST         522          1.0000000000
      1565       522  TIP3  H1           -5.0916913715       -5.9243242246        8.4953358942  CLST         522          1.0000000000
      1566       522  TIP3  H2           -3.9916182919       -7.7846231200        8.1501369821  CLST         522          1.0000000000
      1567       523  TIP3  OH2          -4.1886590115       11.7419446801      -13.3797127439  CLST         523          1.0000000000
      1568       523  TIP3  H1           -2.0812898754       11.6413255393      -13.2345478742  CLST         523          1.0000000000
      1569       523  TIP3  H2           -4.6547606945       11.9468850485      -14.0890156332  CLST         523          1.0000000000
      1570       524  TIP3  OH2           6.6342178996        3.7626826603       -1.8041184224  CLST         524          1.0000000000
      1571       524  TIP3  H1            7.1442302573        3.0925591737       -1.6080108096  CLST         524          1.0000000000
      1572       524  TIP3  H2            5.7760391518        3.4484702987       -2.2263574947  CLST         524          1.0000000000
      1573       525  TIP3  OH2           0.2453316478        6.8925510762       -2.6879917120  CLST         525          1.0000000000
      1574       525  TIP3  H1            0.7065123820        4.9344769042       -3.7723485109  CLST         525          1.0000000000
      1575       525  TIP3  H2            0.9710877793        6.1302196460       -3.3799485940  CLST         525          1.0000000000
      1576       526  TIP3  OH2           6.9899840388       -5.4477236709       -3.6500122725  CLST         526          1.0000000000
      1577       526  TIP3  H1            7.3001634503       -5.5699186404       -4.6334745169  CLST         526          1.0000000000
      1578       526  TIP3  H2            7.9862649188       -5.3121061953       -3.2777717169  CLST         526          1.0000000000
      1579       527  TIP3  OH2           0.4719004641        6.9506030838        4.2383880154  CLST         527          1.0000000000
      1580       527  TIP3  H1            0.4012036323        7.8588441771        5.3420942720  CLST         527          1.0000000000
      1581       527  TIP3  H2            0.4736970936        8.5499592544        3.9175312458  CLST         527          1.0000000000
      1582       528  TIP3  OH2          -2.5965915635        9.9014525361        8.5149839978  CLST         528          1.0000000000
      1583       528  TIP3  H1           -2.8558026693        9.5540941284        9.3949714899  CLST         528          1.0000000000
      1584       528  TIP3  H2           -3.5118941686       10.0505765523        8.1514616245  CLST         528          1.0000000000
      1585       529  TIP3  OH2          -6.1677907064       11.7505057360       -9.4503184207  CLST         529          1.0000000000
      1586       529  TIP3  H1           -4.2182441791       12.4747603315      -10.6305797328  CLST         529          1.0000000000
      1587       529  TIP3  H2           -5.5107083521       11.8601093299      -10.2210341643  CLST         529          1.0000000000
      1588       530  TIP3  OH2          -4.6461530668       -5.4299298837      -12.8384149739  CLST         530          1.0000000000
      1589       530  TIP3  H1           -4.0948830510       -6.5836512495      -12.7574500403  CLST         530          1.0000000000
      1590       530  TIP3  H2           -3.4561089602       -5.5145585776      -12.6932554803  CLST         530          1.0000000000
      1591       531  TIP3  OH2         -11.2613055146        0.0197353003       10.3082445823  CLST         531          1.0000000000
      1592       531  TIP3  H1          -11.6865203252       -0.1067510758       10.9836230983  CLST         531          1.0000000000
      1593       531  TIP3  H2          -11.4493256134       -0.6642818799        9.6086313711  CLST         531          1.0000000000
      1594       532  TIP3  OH2         -11.5006286985       -3.2325159159       -8.7460366997  CLST         532          1.0000000000
      1595       532  TIP3  H1          -11.8477264878       -3.9491881951       -9.7979018199  CLST         532          1.0000000000
      1596       532  TIP3  H2          -11.1333116926       -3.1455188584       -9.9684956556  CLST         532          1.0000000000
      1597       533  TIP3  OH2          -2.8131982340       -7.0309783459        8.4869983115  CLST         533          1.0000000000
      1598       533  TIP3  H1           -2.1828483666       -7.7872808698        8.3845603566  CLST         533          1.0000000000
      1599       533  TIP3  H2           -2.2253131006       -6.2012537277        8.2605389082  CLST         533          1.0000000000
      1600       534  TIP3  OH2           0.4027042310      -12.7113276891       -7.7903670568  CLST         534          1.0000000000
      1601       534  TIP3  H1            1.1693895232      -11.8492069815       -7.9563267328  CLST         534          1.0000000000
      1602       534  TIP3  H2            1.4187593826      -12.6270301089       -7.0878892640  CLST         534          1.0000000000
      1603       535  TIP3  OH2           3.6875853274        3.2691458057       -8.0306394234  CLST         535          1.0000000000
      1604       535  TIP3  H1            4.0650810614        2.5978748959       -6.7687325481  CLST         535          1.0000000000
      1605       535  TIP3  H2           -0.4225078031        7.3746306899       -7.3723315873  CLST         535          1.0000000000
      1606       536  TIP3  OH2           7.7762489542      -12.3131968780       -3.3949548593  CLST         536          1.0000000000
      1607       536  TIP3  H1            6.4615411875      -12.1278637612       -4.2740821186  CLST         536          1.0000000000
      1608       536  TIP3  H2            7.9373240343      -13.0342278152       -3.7099174736  CLST         536          1.0000000000
      1609       537  TIP3  OH2          11.4738552339       -2.8538729509       -7.3413183214  CLST         537          1.0000000000
      1610       537  TIP3  H1           12.3859663636       -2.6919098391       -6.4466474411  CLST         537          1.0000000000
      1611       537  TIP3  H2           13.1698382457       -2.9488669238       -5.5764702607  CLST         537          1.0000000000
      1612       538  TIP3  OH2          -4.9453846235      -10.7924008063        0.6488872742  CLST         538          1.0000000000
      1613       538  TIP3  H1           -4.2401383497      -10.9893738586        1.3652253015  CLST         538          1.0000000000
      1614       538  TIP3  H2           -4.8195353140       -9.7983011410        0.6450949309  CLST         538          1.0000000000
      1615       539  TIP3  OH2           2.3768583351       -5.3261557212        0.8460281899  CLST         539          1.0000000000
      1616       539  TIP3  H1            1.4699929161       -5.6556583718        0.5409582389  CLST         539          1.0000000000
      1617       539  TIP3  H2            1.8048055397       -6.2195701331       -0.8112338558  CLST         539          1.0000000000
      1618       540  TIP3  OH2           4.1060391748       -6.9303027504        4.7452729996  CLST         540          1.0000000000
      1619       540  TIP3  H1            3.8502437598       -7.8789031841        4.8652901847  CLST         540          1.0000000000
      1620       540  TIP3  H2            4.2038043975       -6.9564838738        3.7099096485  CLST         540          1.0000000000
      1621       541  TIP3  OH2          -5.2097324651       10.4585613453        2.1815487232  CLST         541          1.0000000000
      1622       541  TIP3  H1           -5.7600172401       10.4884779961        3.0252762298  CLST         541          1.0000000000
      1623       541  TIP3  H2           -4.5548813185       11.1670525942        2.3981506630  CLST         541          1.0000000000
      1624       542  TIP3  OH2         -10.6244357282       13.7555528934        5.5485969864  CLST         542          1.0000000000
      1625       542  TIP3  H1          -10.8011213543       13.9056883512        5.3208065938  CLST         542          1.0000000000
      1626       542  TIP3  H2          -10.5545685997       13.4464489804        4.2292962780  CLST         542          1.0000000000
      1627       543  TIP3  OH2         -10.4803202225       11.3823276865       -2.5607535531  CLST         543          1.0000000000
      1628       543  TIP3  H1          -11.2497323466       10.8503430221       -2.8964966329  CLST         543          1.0000000000
      1629       543  TIP3  H2          -10.0485229585       11.7252157237       -3.3381959483  CLST         543          1.0000000000
      1630       544  TIP3  OH2          -0.5252913828        5.4393566366       -5.5595301575  CLST         544          1.0000000000
      1631       544  TIP3  H1            1.2383517674        5.9973572739       -8.9872991183  CLST         544          1.0000000000
      1632       544  TIP3  H2           -0.6269891600        5.1242021499       -5.6842947020  CLST         544          1.0000000000
      1633       545  TIP3  OH2          -7.8251435306        2.3193304589      -12.1701571839  CLST         545          1.0000000000
      1634       545  TIP3  H1           -8.1566384643        2.2538389119      -13.0219711617  CLST         545          1.0000000000
      1635       545  TIP3  H2           -8.8337526243        3.9184335872      -12.1280409274  CLST         545          1.0000000000
      1636       546  TIP3  OH2           3.8107469561       10.9510480580       -2.1018867666  CLST         546          1.0000000000
      1637       546  TIP3  H1            3.6034150949        9.9362549200       -2.3858474809  CLST         546          1.0000000000
      1638       546  TIP3  H2            4.6093227177       10.6584097808       -1.4204055811  CLST         546          1.0000000000
      1639       547  TIP3  OH2          -3.6210253974       -2.2024056461      -11.0200136339  CLST         547          1.0000000000
      1640       547  TIP3  H1           -3.3765012925       -2.7421736109      -10.2565944824  CLST         547          1.0000000000
      1641       547  TIP3  H2           -4.1307107683       -1.4039692487      -10.8375442687  CLST         547          1.0000000000
      1642       548  TIP3  OH2          10.3548888092        2.5842363408        1.2766434998  CLST         548          1.0000000000
      1643       548  TIP3  H1            9.4207748564        2.2452867578        1.3927760768  CLST         548          1.0000000000
      1644       548  TIP3  H2           10.2471598088        3.3176292232        1.9479258025  CLST         548          1.0000000000
