* Geometry rescue: EQUI at step 500
*
        1644  EXT
         1         1  TIP3  OH2           4.4760834855       -1.5384242922       -2.1807745100  CLST           1          1.0000000000
         2         1  TIP3  H1            4.7494828985       -1.5853944811       -1.2181071821  CLST           1          1.0000000000
         3         1  TIP3  H2            5.1340588762       -2.1975580222       -2.4999248234  CLST           1          1.0000000000
         4         2  TIP3  OH2          10.6592737821        7.4237051068      -11.7696401793  CLST           2          1.0000000000
         5         2  TIP3  H1           11.0085128552        7.3267604072      -10.8499544006  CLST           2          1.0000000000
         6         2  TIP3  H2            9.7114344247        7.2643136301      -11.5395252319  CLST           2          1.0000000000
         7         3  TIP3  OH2           8.7308927579        5.3416683398       -4.2817954405  CLST           3          1.0000000000
         8         3  TIP3  H1            9.1747773939        5.6827415956       -3.4676713069  CLST           3          1.0000000000
         9         3  TIP3  H2            8.7677242308        6.1314363968       -4.8521649257  CLST           3          1.0000000000
        10         4  TIP3  OH2          -2.8014015446        6.7991725009       10.1420764646  CLST           4          1.0000000000
        11         4  TIP3  H1           -3.6036439240        7.0797868722        9.6068985963  CLST           4          1.0000000000
        12         4  TIP3  H2           -3.0501590124        7.3552878047       10.9055237893  CLST           4          1.0000000000
        13         5  TIP3  OH2           9.1819807871        6.2752777398       10.5215450827  CLST           5          1.0000000000
        14         5  TIP3  H1            8.5501693199        5.8164630748       11.1428898998  CLST           5          1.0000000000
        15         5  TIP3  H2            9.2764478762        5.5005445128        9.9138809049  CLST           5          1.0000000000
        16         6  TIP3  OH2          10.5712974009       -5.9802525042      -11.6558804188  CLST           6          1.0000000000
        17         6  TIP3  H1           11.1559763861       -5.5226688050      -10.9824200818  CLST           6          1.0000000000
        18         6  TIP3  H2           10.6626784352       -5.2584154745      -12.3533842413  CLST           6          1.0000000000
        19         7  TIP3  OH2         -12.2321579026        8.3046209266        5.7144375945  CLST           7          1.0000000000
        20         7  TIP3  H1          -12.6450366322        9.1335706296        6.0778196485  CLST           7          1.0000000000
        21         7  TIP3  H2          -11.4302315402        8.3264449231        6.3025334952  CLST           7          1.0000000000
        22         8  TIP3  OH2          -4.4759579699       -8.3031806746        0.6618431498  CLST           8          1.0000000000
        23         8  TIP3  H1           -4.6237176358       -8.0057315599        1.5792875608  CLST           8          1.0000000000
        24         8  TIP3  H2           -3.7191243611       -7.7544401435        0.3717358685  CLST           8          1.0000000000
        25         9  TIP3  OH2           2.6675431861      -14.2009866946       -4.0322337280  CLST           9          1.0000000000
        26         9  TIP3  H1            1.7656310193      -14.0222005419       -3.7084741906  CLST           9          1.0000000000
        27         9  TIP3  H2            3.1386388921      -13.9087946477       -3.2437494970  CLST           9          1.0000000000
        28        10  TIP3  OH2         -14.2556371814       -1.1984618578       -0.3411184273  CLST          10          1.0000000000
        29        10  TIP3  H1          -13.9902091232       -1.3985627965       -1.2836789512  CLST          10          1.0000000000
        30        10  TIP3  H2          -13.7684000427       -1.9013401401        0.0874251889  CLST          10          1.0000000000
        31        11  TIP3  OH2           6.9774284787        6.6683680392       -1.8530016716  CLST          11          1.0000000000
        32        11  TIP3  H1            7.3094208040        5.7856029415       -1.5947252687  CLST          11          1.0000000000
        33        11  TIP3  H2            6.8272029550        6.5146603977       -2.8155639535  CLST          11          1.0000000000
        34        12  TIP3  OH2          -8.1925441634        2.6576523545        1.8639953105  CLST          12          1.0000000000
        35        12  TIP3  H1           -7.6535517119        2.8087568047        1.0352633625  CLST          12          1.0000000000
        36        12  TIP3  H2           -9.0759721066        2.6703880356        1.3907382177  CLST          12          1.0000000000
        37        13  TIP3  OH2           7.6987803104        2.5202668366        2.0995445949  CLST          13          1.0000000000
        38        13  TIP3  H1            7.7611368038        3.4472466636        1.7354458236  CLST          13          1.0000000000
        39        13  TIP3  H2            7.5989995793        2.7303272408        3.0571311503  CLST          13          1.0000000000
        40        14  TIP3  OH2          -0.3375829671        2.1277963735        7.9021583689  CLST          14          1.0000000000
        41        14  TIP3  H1           -0.0139392513        3.0141054965        7.6180795217  CLST          14          1.0000000000
        42        14  TIP3  H2            0.3196562617        1.5743837550        7.3805241835  CLST          14          1.0000000000
        43        15  TIP3  OH2          -8.9469043505       -3.8363155980      -12.7981297035  CLST          15          1.0000000000
        44        15  TIP3  H1           -8.0935625466       -3.9088309725      -13.2820688085  CLST          15          1.0000000000
        45        15  TIP3  H2           -8.5726000028       -4.3490883892      -12.0246791426  CLST          15          1.0000000000
        46        16  TIP3  OH2          -3.8473994582      -12.8030746745       -6.2738750026  CLST          16          1.0000000000
        47        16  TIP3  H1           -4.4912821928      -12.8975769109       -5.5361484929  CLST          16          1.0000000000
        48        16  TIP3  H2           -2.9868533885      -12.7624159924       -5.7716844054  CLST          16          1.0000000000
        49        17  TIP3  OH2           4.8455389087      -13.4727546734       -8.5259807683  CLST          17          1.0000000000
        50        17  TIP3  H1            5.4235900277      -13.1953063411       -7.7829784684  CLST          17          1.0000000000
        51        17  TIP3  H2            4.0630293859      -13.6280588551       -7.9086817081  CLST          17          1.0000000000
        52        18  TIP3  OH2         -11.7235434123       -6.7011074440       -1.4625417463  CLST          18          1.0000000000
        53        18  TIP3  H1          -12.1157116237       -5.7860050722       -1.6937701064  CLST          18          1.0000000000
        54        18  TIP3  H2          -11.7675548800       -7.0066483201       -2.4210397902  CLST          18          1.0000000000
        55        19  TIP3  OH2          10.9560945452       -0.1105920940        9.5737655748  CLST          19          1.0000000000
        56        19  TIP3  H1           10.6939914350       -0.9962482086        9.8758596339  CLST          19          1.0000000000
        57        19  TIP3  H2           11.2984113847       -0.3404679338        8.6989153726  CLST          19          1.0000000000
        58        20  TIP3  OH2         -13.3177060085        1.4609132707        2.8061035209  CLST          20          1.0000000000
        59        20  TIP3  H1          -13.0827095018        1.1716252690        1.9003397221  CLST          20          1.0000000000
        60        20  TIP3  H2          -14.2541236140        1.5328782877        2.7721090602  CLST          20          1.0000000000
        61        21  TIP3  OH2         -10.0782726501       12.6101319514       -5.3772320365  CLST          21          1.0000000000
        62        21  TIP3  H1          -10.5903786320       13.2663324235       -5.7164438619  CLST          21          1.0000000000
        63        21  TIP3  H2           -9.2982946121       12.4825725176       -5.9165936020  CLST          21          1.0000000000
        64        22  TIP3  OH2           2.8428640509       12.0896646754       -6.5988130534  CLST          22          1.0000000000
        65        22  TIP3  H1            3.4336671127       11.5815191199       -6.0142914243  CLST          22          1.0000000000
        66        22  TIP3  H2            2.8344147840       12.8977298987       -6.0707707312  CLST          22          1.0000000000
        67        23  TIP3  OH2           5.5272494774       -1.7623003694       11.5069924839  CLST          23          1.0000000000
        68        23  TIP3  H1            5.4446921448       -2.3808666233       10.7609250217  CLST          23          1.0000000000
        69        23  TIP3  H2            5.2626780312       -0.9228446843       11.0878861426  CLST          23          1.0000000000
        70        24  TIP3  OH2          -0.0169629380        1.1374713993        4.4825973103  CLST          24          1.0000000000
        71        24  TIP3  H1            0.9166840013        1.0532289998        4.7746124228  CLST          24          1.0000000000
        72        24  TIP3  H2           -0.3951035255        0.3748735281        4.9770200813  CLST          24          1.0000000000
        73        25  TIP3  OH2           3.2342069726        2.0802132393       -2.6300200832  CLST          25          1.0000000000
        74        25  TIP3  H1            3.6077991303        1.3997049354       -2.0383848591  CLST          25          1.0000000000
        75        25  TIP3  H2            3.7209624772        2.8950679261       -2.3554713607  CLST          25          1.0000000000
        76        26  TIP3  OH2          11.3894258243        5.5301858564       -6.5452325279  CLST          26          1.0000000000
        77        26  TIP3  H1           10.5689367853        5.2844721962       -7.0223917793  CLST          26          1.0000000000
        78        26  TIP3  H2           11.1507155954        6.4132329368       -6.1898037405  CLST          26          1.0000000000
        79        27  TIP3  OH2         -10.3368332411        7.3982862372       -5.4656633530  CLST          27          1.0000000000
        80        27  TIP3  H1          -10.3208867808        7.8357910713       -4.6035058128  CLST          27          1.0000000000
        81        27  TIP3  H2          -10.6216154704        8.0527157560       -6.0691856932  CLST          27          1.0000000000
        82        28  TIP3  OH2          -4.2756944235      -10.2463992968       -6.7713349738  CLST          28          1.0000000000
        83        28  TIP3  H1           -4.1962096382      -11.2481331648       -6.7576046597  CLST          28          1.0000000000
        84        28  TIP3  H2           -4.9930710318      -10.1354548936       -6.1035403572  CLST          28          1.0000000000
        85        29  TIP3  OH2         -10.7833891192        7.5863698099       -2.5241531502  CLST          29          1.0000000000
        86        29  TIP3  H1          -10.2925895300        8.2065676028       -1.8777280467  CLST          29          1.0000000000
        87        29  TIP3  H2          -11.4831509756        8.2802498396       -2.7337342315  CLST          29          1.0000000000
        88        30  TIP3  OH2           8.7699754067      -10.4949045461       -2.1010344170  CLST          30          1.0000000000
        89        30  TIP3  H1            8.9980790608      -10.8419563479       -1.2269918703  CLST          30          1.0000000000
        90        30  TIP3  H2            8.6340413006      -11.3930180517       -2.5551065694  CLST          30          1.0000000000
        91        31  TIP3  OH2          -9.8065457329       -1.2589929356      -13.0525908227  CLST          31          1.0000000000
        92        31  TIP3  H1           -9.6734039170       -2.2263024236      -12.9700609512  CLST          31          1.0000000000
        93        31  TIP3  H2           -9.7416488207       -0.9720133452      -12.1168175819  CLST          31          1.0000000000
        94        32  TIP3  OH2          -8.7770141728       -6.5164390076        7.0590699341  CLST          32          1.0000000000
        95        32  TIP3  H1           -9.7384199144       -6.3843261322        7.1716581661  CLST          32          1.0000000000
        96        32  TIP3  H2           -8.6297419041       -5.7758937421        6.4010948351  CLST          32          1.0000000000
        97        33  TIP3  OH2          11.7783296032       -8.9704526144        8.8965203518  CLST          33          1.0000000000
        98        33  TIP3  H1           11.7800684590       -9.9575001546        8.9841553493  CLST          33          1.0000000000
        99        33  TIP3  H2           11.2698405509       -8.8293167430        9.7172192804  CLST          33          1.0000000000
       100        34  TIP3  OH2           4.2033091529       -3.9923225335        2.9029969859  CLST          34          1.0000000000
       101        34  TIP3  H1            3.6385924830       -4.2052234484        2.1060726310  CLST          34          1.0000000000
       102        34  TIP3  H2            4.4672582162       -4.9198283466        3.0900913766  CLST          34          1.0000000000
       103        35  TIP3  OH2           6.1369864501       -0.8480936526        4.5242032191  CLST          35          1.0000000000
       104        35  TIP3  H1            5.2204893290       -1.1592915847        4.7599645458  CLST          35          1.0000000000
       105        35  TIP3  H2            6.3692841181       -0.2443288968        5.2640728194  CLST          35          1.0000000000
       106        36  TIP3  OH2          -1.5872725342        1.2961927679        2.2233951855  CLST          36          1.0000000000
       107        36  TIP3  H1           -2.3590617470        0.7425038960        2.1387635053  CLST          36          1.0000000000
       108        36  TIP3  H2           -1.1975518547        1.0173378401        3.0882696150  CLST          36          1.0000000000
       109        37  TIP3  OH2          -4.4319235420       -8.2874742942      -12.9780888463  CLST          37          1.0000000000
       110        37  TIP3  H1           -4.9447566899       -8.6037085787      -12.2081812195  CLST          37          1.0000000000
       111        37  TIP3  H2           -4.1098830048       -9.1167996468      -13.4135602061  CLST          37          1.0000000000
       112        38  TIP3  OH2          -3.1718557184        2.1514908510       -4.4436457908  CLST          38          1.0000000000
       113        38  TIP3  H1           -3.1831466296        3.1177137884       -4.6806791387  CLST          38          1.0000000000
       114        38  TIP3  H2           -3.6829533226        1.8461432159       -5.2270528260  CLST          38          1.0000000000
       115        39  TIP3  OH2           1.7386160936      -10.8709213034        2.0517287715  CLST          39          1.0000000000
       116        39  TIP3  H1            1.4730668994      -11.5223660248        2.7372825684  CLST          39          1.0000000000
       117        39  TIP3  H2            0.8305187754      -10.5968695014        1.7523812651  CLST          39          1.0000000000
       118        40  TIP3  OH2          -7.0142807477       12.5242137687        8.2004573109  CLST          40          1.0000000000
       119        40  TIP3  H1           -7.8947078329       12.8199110614        7.8598392103  CLST          40          1.0000000000
       120        40  TIP3  H2           -6.3856637441       12.7449935880        7.4917342403  CLST          40          1.0000000000
       121        41  TIP3  OH2           9.7597173800       -2.2188064371      -11.0732642747  CLST          41          1.0000000000
       122        41  TIP3  H1            9.0866133840       -2.8483482452      -10.7075620868  CLST          41          1.0000000000
       123        41  TIP3  H2            9.4169923832       -1.4128386982      -10.6469707863  CLST          41          1.0000000000
       124        42  TIP3  OH2           9.7319773212       10.2506827059      -10.6372778578  CLST          42          1.0000000000
       125        42  TIP3  H1           10.5340649887       10.1798910693      -10.0802516047  CLST          42          1.0000000000
       126        42  TIP3  H2           10.1727311836       10.1931078657      -11.5335754674  CLST          42          1.0000000000
       127        43  TIP3  OH2          11.9805820596       12.7066089931        7.6765289059  CLST          43          1.0000000000
       128        43  TIP3  H1           12.6988950329       13.2531317948        7.8730922098  CLST          43          1.0000000000
       129        43  TIP3  H2           12.2930311444       11.8669153851        8.0913150819  CLST          43          1.0000000000
       130        44  TIP3  OH2           7.7635105137        0.9577593271        6.0143315242  CLST          44          1.0000000000
       131        44  TIP3  H1            7.9160888233        1.4131659532        6.8949209003  CLST          44          1.0000000000
       132        44  TIP3  H2            7.4115329773        1.7663535596        5.5532489171  CLST          44          1.0000000000
       133        45  TIP3  OH2           7.9499774851        9.4104683555        7.3334661716  CLST          45          1.0000000000
       134        45  TIP3  H1            7.8378024829        8.4982409283        7.6734707204  CLST          45          1.0000000000
       135        45  TIP3  H2            8.8600860930        9.6187144366        7.6648076252  CLST          45          1.0000000000
       136        46  TIP3  OH2          -5.7052453012       -3.1256419346      -12.9538929128  CLST          46          1.0000000000
       137        46  TIP3  H1           -5.4219234812       -4.0823682817      -13.0972130094  CLST          46          1.0000000000
       138        46  TIP3  H2           -5.0147217516       -2.9367542636      -12.2873355733  CLST          46          1.0000000000
       139        47  TIP3  OH2           1.3861298237       -6.5638789380      -11.0682086685  CLST          47          1.0000000000
       140        47  TIP3  H1            1.8570312166       -5.6924742932      -10.9941959345  CLST          47          1.0000000000
       141        47  TIP3  H2            1.2209160620       -6.5442005288      -12.0291785860  CLST          47          1.0000000000
       142        48  TIP3  OH2           5.0546678086        5.5600804472        1.1087781074  CLST          48          1.0000000000
       143        48  TIP3  H1            6.0055875374        5.3129132293        0.8898082044  CLST          48          1.0000000000
       144        48  TIP3  H2            5.2311316703        6.5470425270        1.0357250744  CLST          48          1.0000000000
       145        49  TIP3  OH2          -3.3267375050      -10.6366283755      -13.8229757288  CLST          49          1.0000000000
       146        49  TIP3  H1           -2.4651151752      -10.7268820514      -13.4210791440  CLST          49          1.0000000000
       147        49  TIP3  H2           -3.7886904527      -11.3841840149      -13.4252650330  CLST          49          1.0000000000
       148        50  TIP3  OH2           2.7972775747        3.7960062088        5.8992129633  CLST          50          1.0000000000
       149        50  TIP3  H1            1.9775617407        4.1026895979        6.3784928532  CLST          50          1.0000000000
       150        50  TIP3  H2            2.3476240097        3.4615777690        5.0675470164  CLST          50          1.0000000000
       151        51  TIP3  OH2          -6.4555153210      -10.0662253577       -4.7660637356  CLST          51          1.0000000000
       152        51  TIP3  H1           -6.5279375092       -9.9290539473       -3.7846262415  CLST          51          1.0000000000
       153        51  TIP3  H2           -6.2313969049      -11.0202510304       -4.7572505837  CLST          51          1.0000000000
       154        52  TIP3  OH2           9.1193655553       -5.6756939556       -0.2369091465  CLST          52          1.0000000000
       155        52  TIP3  H1            9.3698837264       -5.6158294903       -1.2017734142  CLST          52          1.0000000000
       156        52  TIP3  H2            9.2256094766       -4.7207664774       -0.0360272206  CLST          52          1.0000000000
       157        53  TIP3  OH2          -9.6946469884       10.0357312935      -12.5280866044  CLST          53          1.0000000000
       158        53  TIP3  H1          -10.0435957636       10.1952808408      -13.3506880735  CLST          53          1.0000000000
       159        53  TIP3  H2           -8.9002569843        9.4928973763      -12.6592928005  CLST          53          1.0000000000
       160        54  TIP3  OH2           0.6034527413       -2.9739146097       -9.5456273253  CLST          54          1.0000000000
       161        54  TIP3  H1            1.1481360323       -3.3409306440      -10.2747928842  CLST          54          1.0000000000
       162        54  TIP3  H2            0.0939985198       -2.3199358620      -10.0962316886  CLST          54          1.0000000000
       163        55  TIP3  OH2           2.9323513384       -4.0382656183      -14.6970032267  CLST          55          1.0000000000
       164        55  TIP3  H1            2.9709405260       -4.8794821123      -14.1828998103  CLST          55          1.0000000000
       165        55  TIP3  H2            3.2239780622       -4.4227670845      -15.5284025990  CLST          55          1.0000000000
       166        56  TIP3  OH2         -10.0166777365       11.1427870531        5.6736864629  CLST          56          1.0000000000
       167        56  TIP3  H1          -10.3346422545       10.3068371219        6.0577044939  CLST          56          1.0000000000
       168        56  TIP3  H2          -10.2605266082       11.0499268656        4.7328281945  CLST          56          1.0000000000
       169        57  TIP3  OH2           1.6490192474      -13.3388158713        0.3149163292  CLST          57          1.0000000000
       170        57  TIP3  H1            2.1464609756      -12.7596187519        0.9292303227  CLST          57          1.0000000000
       171        57  TIP3  H2            2.2528196254      -13.1544725361       -0.4379693786  CLST          57          1.0000000000
       172        58  TIP3  OH2         -13.1302081844       10.6283863703        7.0037770778  CLST          58          1.0000000000
       173        58  TIP3  H1          -12.6398584167       11.4603012205        6.9106539955  CLST          58          1.0000000000
       174        58  TIP3  H2          -12.8872997775       10.4635249236        7.9557768621  CLST          58          1.0000000000
       175        59  TIP3  OH2         -11.5265458391       -2.6712591890        5.3995907710  CLST          59          1.0000000000
       176        59  TIP3  H1          -11.8083075024       -2.3502666496        6.2986427762  CLST          59          1.0000000000
       177        59  TIP3  H2          -11.7063392702       -1.8288504146        4.9026878975  CLST          59          1.0000000000
       178        60  TIP3  OH2           1.3857136416        9.5350306244        8.5465426260  CLST          60          1.0000000000
       179        60  TIP3  H1            0.6771273394        8.9633453110        8.1209676575  CLST          60          1.0000000000
       180        60  TIP3  H2            1.8804052792        8.7375086591        8.9116734764  CLST          60          1.0000000000
       181        61  TIP3  OH2           2.7774910735       -0.5715382277       -5.4843505961  CLST          61          1.0000000000
       182        61  TIP3  H1            3.2743347563       -1.4199031976       -5.3081005764  CLST          61          1.0000000000
       183        61  TIP3  H2            2.1191791381       -0.9021254335       -6.1606656495  CLST          61          1.0000000000
       184        62  TIP3  OH2           8.0034521492        8.3977203784       12.4318863881  CLST          62          1.0000000000
       185        62  TIP3  H1            8.0698733043        7.7307303855       11.7203738148  CLST          62          1.0000000000
       186        62  TIP3  H2            8.4580351794        9.1375989809       11.9644079669  CLST          62          1.0000000000
       187        63  TIP3  OH2           4.6026027182       -7.0710074432      -10.3205795023  CLST          63          1.0000000000
       188        63  TIP3  H1            3.7277011309       -7.1172412483      -10.7533849231  CLST          63          1.0000000000
       189        63  TIP3  H2            5.1526946773       -7.5270631303      -11.0274795384  CLST          63          1.0000000000
       190        64  TIP3  OH2          -2.2776042174       11.8313753861        5.3841844412  CLST          64          1.0000000000
       191        64  TIP3  H1           -2.1113663298       10.8535681833        5.3321134219  CLST          64          1.0000000000
       192        64  TIP3  H2           -1.6143952213       11.9306441363        6.1445996922  CLST          64          1.0000000000
       193        65  TIP3  OH2          10.9287954965       -4.3782081660       -5.3730383066  CLST          65          1.0000000000
       194        65  TIP3  H1           11.4001517639       -4.0822706612       -6.1936843632  CLST          65          1.0000000000
       195        65  TIP3  H2           10.5309796265       -3.4975359791       -5.2158474169  CLST          65          1.0000000000
       196        66  TIP3  OH2           6.2642345497       -9.9169233845        9.3428219708  CLST          66          1.0000000000
       197        66  TIP3  H1            5.5869633222       -9.9179913246        8.6070695051  CLST          66          1.0000000000
       198        66  TIP3  H2            6.6617592827       -9.0662051788        9.0596388762  CLST          66          1.0000000000
       199        67  TIP3  OH2         -11.6429954284       -7.6720067823       -4.0026701767  CLST          67          1.0000000000
       200        67  TIP3  H1          -10.8177233101       -7.2625151174       -4.3469760032  CLST          67          1.0000000000
       201        67  TIP3  H2          -11.7814136735       -8.3935297063       -4.6064342597  CLST          67          1.0000000000
       202        68  TIP3  OH2          -0.7379480963       -5.4862776634        5.5000081181  CLST          68          1.0000000000
       203        68  TIP3  H1            0.2558767394       -5.3619892598        5.6593165513  CLST          68          1.0000000000
       204        68  TIP3  H2           -1.0296884752       -5.4221664068        6.4569887304  CLST          68          1.0000000000
       205        69  TIP3  OH2           7.9077009209       11.6611420432       -8.7612882627  CLST          69          1.0000000000
       206        69  TIP3  H1            8.2306067255       11.4294965158       -9.6606200943  CLST          69          1.0000000000
       207        69  TIP3  H2            8.8264131738       11.7641595568       -8.3712519908  CLST          69          1.0000000000
       208        70  TIP3  OH2          -0.9860610266      -12.3898082359       -0.4711414025  CLST          70          1.0000000000
       209        70  TIP3  H1           -0.0137604822      -12.2351117456       -0.3893923736  CLST          70          1.0000000000
       210        70  TIP3  H2           -1.1317437397      -12.6237353172        0.4817896159  CLST          70          1.0000000000
       211        71  TIP3  OH2         -10.1771509701       -7.3674083579        1.9532665954  CLST          71          1.0000000000
       212        71  TIP3  H1          -10.8637075479       -6.7535675206        2.2409928185  CLST          71          1.0000000000
       213        71  TIP3  H2          -10.6446164659       -7.9724468280        1.3422324896  CLST          71          1.0000000000
       214        72  TIP3  OH2           0.1623880827        2.0003918968       -1.5151197420  CLST          72          1.0000000000
       215        72  TIP3  H1           -0.1893571392        1.0734122996       -1.4693128345  CLST          72          1.0000000000
       216        72  TIP3  H2            0.9433606531        1.8346045567       -2.0767658719  CLST          72          1.0000000000
       217        73  TIP3  OH2          -9.7211546489       13.1249398362        7.5336459057  CLST          73          1.0000000000
       218        73  TIP3  H1           -9.8832519838       12.3757898915        6.8787110116  CLST          73          1.0000000000
       219        73  TIP3  H2          -10.2933594960       13.7689721209        7.0024975929  CLST          73          1.0000000000
       220        74  TIP3  OH2           6.5667704336       -2.6884316222       -3.6253065537  CLST          74          1.0000000000
       221        74  TIP3  H1            6.7736660451       -3.5783510067       -3.9908134070  CLST          74          1.0000000000
       222        74  TIP3  H2            7.4813894391       -2.3336554266       -3.4815535430  CLST          74          1.0000000000
       223        75  TIP3  OH2           2.9404380823      -13.3131653671       -6.7191321953  CLST          75          1.0000000000
       224        75  TIP3  H1            3.1700450767      -12.3808020343       -6.4798446102  CLST          75          1.0000000000
       225        75  TIP3  H2            2.9478084532      -13.7252606987       -5.8116624670  CLST          75          1.0000000000
       226        76  TIP3  OH2           3.9595207584       -9.7364771119        1.2836928857  CLST          76          1.0000000000
       227        76  TIP3  H1            3.8118558951       -8.7946566035        1.4911037266  CLST          76          1.0000000000
       228        76  TIP3  H2            3.0877467641      -10.1341303104        1.5973247752  CLST          76          1.0000000000
       229        77  TIP3  OH2          10.3067077042       -8.1990824756       -2.5159104807  CLST          77          1.0000000000
       230        77  TIP3  H1            9.8992464640       -9.1101817243       -2.4952607848  CLST          77          1.0000000000
       231        77  TIP3  H2           10.6229914102       -8.1711374805       -3.4253462095  CLST          77          1.0000000000
       232        78  TIP3  OH2          10.6479105770       11.7038661667       -7.7979473940  CLST          78          1.0000000000
       233        78  TIP3  H1           11.2833708104       10.9867232287       -7.9843035981  CLST          78          1.0000000000
       234        78  TIP3  H2           11.1931766586       12.4359172580       -7.8575282178  CLST          78          1.0000000000
       235        79  TIP3  OH2          12.8969632865        0.5835004895        1.2164086832  CLST          79          1.0000000000
       236        79  TIP3  H1           13.5630405916        1.1066680251        1.6437564064  CLST          79          1.0000000000
       237        79  TIP3  H2           12.1360106339        1.1364729237        1.4742341382  CLST          79          1.0000000000
       238        80  TIP3  OH2          -7.4993830700       -0.0314692711        6.5563134076  CLST          80          1.0000000000
       239        80  TIP3  H1           -7.2788133400       -0.1109141216        5.5869425561  CLST          80          1.0000000000
       240        80  TIP3  H2           -6.5522360600        0.0466252121        6.8537169858  CLST          80          1.0000000000
       241        81  TIP3  OH2          -7.5956983447      -10.9055882735        2.2637488882  CLST          81          1.0000000000
       242        81  TIP3  H1           -6.8504727404      -11.1883615621        1.6624621705  CLST          81          1.0000000000
       243        81  TIP3  H2           -7.1730794127      -11.0918884909        3.1411357551  CLST          81          1.0000000000
       244        82  TIP3  OH2          -1.5567441149       -9.9393075614       -6.4678502283  CLST          82          1.0000000000
       245        82  TIP3  H1           -2.5470718956       -9.9961992453       -6.4939067125  CLST          82          1.0000000000
       246        82  TIP3  H2           -1.3749977034      -10.5038982688       -5.7071237030  CLST          82          1.0000000000
       247        83  TIP3  OH2          12.3794118070       -8.5734092132        1.4865770112  CLST          83          1.0000000000
       248        83  TIP3  H1           12.6636308169       -7.8403600382        2.0637451812  CLST          83          1.0000000000
       249        83  TIP3  H2           11.4028238686       -8.3915129765        1.4534939199  CLST          83          1.0000000000
       250        84  TIP3  OH2          -3.6520321751       11.0163018839       -2.1167015330  CLST          84          1.0000000000
       251        84  TIP3  H1           -4.5920213007       10.9193129043       -2.4897010122  CLST          84          1.0000000000
       252        84  TIP3  H2           -3.5292416078       11.8598847206       -2.0141937539  CLST          84          1.0000000000
       253        85  TIP3  OH2           5.7810009246       -2.1951590416        0.0816764166  CLST          85          1.0000000000
       254        85  TIP3  H1            6.0420429636       -1.7221146044        0.9073508837  CLST          85          1.0000000000
       255        85  TIP3  H2            6.5316426045       -2.8191377114        0.0297140661  CLST          85          1.0000000000
       256        86  TIP3  OH2           6.5469039331       -8.4105376452        5.8389008623  CLST          86          1.0000000000
       257        86  TIP3  H1            5.7223834544       -8.4563960765        6.3950923049  CLST          86          1.0000000000
       258        86  TIP3  H2            6.6010286324       -7.4410660469        5.6779163724  CLST          86          1.0000000000
       259        87  TIP3  OH2          -1.3190611123       -3.6586412106       10.6207737675  CLST          87          1.0000000000
       260        87  TIP3  H1           -0.6273059776       -3.9029676115       11.2739488581  CLST          87          1.0000000000
       261        87  TIP3  H2           -2.0658138532       -4.2890994590       10.8325417635  CLST          87          1.0000000000
       262        88  TIP3  OH2          -0.7551728837        4.5659004711       -7.9840905737  CLST          88          1.0000000000
       263        88  TIP3  H1           -0.8661662868        3.5862429401       -7.8828304291  CLST          88          1.0000000000
       264        88  TIP3  H2           -1.7130963471        4.7591174392       -8.1662544860  CLST          88          1.0000000000
       265        89  TIP3  OH2           3.5311491935        0.7971932752      -11.7666126743  CLST          89          1.0000000000
       266        89  TIP3  H1            3.4276568815        1.5656877083      -12.2693971899  CLST          89          1.0000000000
       267        89  TIP3  H2            3.5851133025        0.2227036439      -12.5164217472  CLST          89          1.0000000000
       268        90  TIP3  OH2           5.6218276427       11.1333708312       -5.4080021349  CLST          90          1.0000000000
       269        90  TIP3  H1            5.3614418221       11.8989828733       -4.8304327791  CLST          90          1.0000000000
       270        90  TIP3  H2            5.7330901309       11.6648779887       -6.2563889654  CLST          90          1.0000000000
       271        91  TIP3  OH2           5.9963006917       -8.0270242971      -12.3014011802  CLST          91          1.0000000000
       272        91  TIP3  H1            6.2856011406       -8.9891624537      -12.3355076293  CLST          91          1.0000000000
       273        91  TIP3  H2            6.8719913631       -7.5975856387      -12.1321073916  CLST          91          1.0000000000
       274        92  TIP3  OH2           9.7488744917       11.5609544864        2.4458538016  CLST          92          1.0000000000
       275        92  TIP3  H1           10.1534763761       11.5677907886        3.3384898852  CLST          92          1.0000000000
       276        92  TIP3  H2            9.8528270089       12.5152914422        2.2490545494  CLST          92          1.0000000000
       277        93  TIP3  OH2          -8.7929341804        7.1889063856        2.7001596440  CLST          93          1.0000000000
       278        93  TIP3  H1           -8.6495046127        8.1178298020        2.9546107830  CLST          93          1.0000000000
       279        93  TIP3  H2           -7.8640486562        6.9378581743        2.5348566266  CLST          93          1.0000000000
       280        94  TIP3  OH2         -14.1700935946        6.6330779567        6.5573428065  CLST          94          1.0000000000
       281        94  TIP3  H1          -13.3486189108        7.0971501415        6.2107250182  CLST          94          1.0000000000
       282        94  TIP3  H2          -14.4761314634        6.3474781824        5.6773142300  CLST          94          1.0000000000
       283        95  TIP3  OH2           9.7537518070        5.8408293205       -1.8574285474  CLST          95          1.0000000000
       284        95  TIP3  H1            9.9191959972        6.1775559330       -0.9458428725  CLST          95          1.0000000000
       285        95  TIP3  H2           10.1304391843        4.9265419488       -1.7113937803  CLST          95          1.0000000000
       286        96  TIP3  OH2           9.5518761010      -10.9951868638       11.2204959647  CLST          96          1.0000000000
       287        96  TIP3  H1           10.3394324712      -11.3061310492       10.7321736367  CLST          96          1.0000000000
       288        96  TIP3  H2            9.1186798492      -11.8163917490       11.4804377380  CLST          96          1.0000000000
       289        97  TIP3  OH2          -7.6960281478        6.9328190760        8.5210244474  CLST          97          1.0000000000
       290        97  TIP3  H1           -7.4052494062        6.0219949707        8.8793895660  CLST          97          1.0000000000
       291        97  TIP3  H2           -8.6720762141        6.7065632307        8.4308258259  CLST          97          1.0000000000
       292        98  TIP3  OH2           6.0131808388        0.6069710145       -3.4779135396  CLST          98          1.0000000000
       293        98  TIP3  H1            6.6885230668        0.3347637619       -2.7951024733  CLST          98          1.0000000000
       294        98  TIP3  H2            5.3414600855       -0.0550990247       -3.1812549416  CLST          98          1.0000000000
       295        99  TIP3  OH2          -6.8414550168      -11.4064517161        4.9097173279  CLST          99          1.0000000000
       296        99  TIP3  H1           -6.9843506118      -10.9606581237        5.7687807195  CLST          99          1.0000000000
       297        99  TIP3  H2           -6.0819555712      -11.9775082642        5.1834969953  CLST          99          1.0000000000
       298       100  TIP3  OH2           2.2938033984        0.4761125534       -9.1536474023  CLST         100          1.0000000000
       299       100  TIP3  H1            2.6152648663        0.5131131924      -10.0976688130  CLST         100          1.0000000000
       300       100  TIP3  H2            2.8251588846        1.2211505266       -8.8438272909  CLST         100          1.0000000000
       301       101  TIP3  OH2          12.7401909731       -6.8691390212        3.8792758016  CLST         101          1.0000000000
       302       101  TIP3  H1           12.7487256726       -7.4206152700        4.7382098810  CLST         101          1.0000000000
       303       101  TIP3  H2           13.5199437726       -6.5256901568        3.8030772306  CLST         101          1.0000000000
       304       102  TIP3  OH2         -12.1213115842       10.3529544427        1.3403603170  CLST         102          1.0000000000
       305       102  TIP3  H1          -12.8230305342       10.4195440819        2.0442331266  CLST         102          1.0000000000
       306       102  TIP3  H2          -12.5876039057        9.6335435300        0.8464474512  CLST         102          1.0000000000
       307       103  TIP3  OH2          -0.5644884131       -9.2712084507        7.7105401988  CLST         103          1.0000000000
       308       103  TIP3  H1            0.0622166132       -9.6319399826        8.3971670058  CLST         103          1.0000000000
       309       103  TIP3  H2           -1.2672713297       -9.9578501647        7.7672210133  CLST         103          1.0000000000
       310       104  TIP3  OH2          -4.3474101212      -12.1251528579        9.9561232330  CLST         104          1.0000000000
       311       104  TIP3  H1           -4.9657478349      -11.9582514902       10.7028290736  CLST         104          1.0000000000
       312       104  TIP3  H2           -4.9934256246      -12.3454523947        9.2567044335  CLST         104          1.0000000000
       313       105  TIP3  OH2          -5.1885052587       10.6323058752      -11.5286777404  CLST         105          1.0000000000
       314       105  TIP3  H1           -4.8439575770       11.1683937974      -12.2944866842  CLST         105          1.0000000000
       315       105  TIP3  H2           -5.7901329547       10.0445095282      -12.0326161341  CLST         105          1.0000000000
       316       106  TIP3  OH2           7.4861008745       -8.0767624526       -1.3210847926  CLST         106          1.0000000000
       317       106  TIP3  H1            8.2704362179       -7.5976277092       -1.6358386494  CLST         106          1.0000000000
       318       106  TIP3  H2            7.7319383878       -8.9779554659       -1.6327446330  CLST         106          1.0000000000
       319       107  TIP3  OH2          -8.4477991607       -4.7359310655        5.1462443499  CLST         107          1.0000000000
       320       107  TIP3  H1           -9.1455016987       -4.4159567449        4.5452684389  CLST         107          1.0000000000
       321       107  TIP3  H2           -7.6285193322       -4.3512436927        4.7542437324  CLST         107          1.0000000000
       322       108  TIP3  OH2         -10.4848720292        2.0667788958        9.5415205632  CLST         108          1.0000000000
       323       108  TIP3  H1           -9.5139991503        1.8260013104        9.3969827484  CLST         108          1.0000000000
       324       108  TIP3  H2          -10.7912117793        1.2031896355        9.9527866722  CLST         108          1.0000000000
       325       109  TIP3  OH2           2.3458591249        7.0921631711        8.7853379170  CLST         109          1.0000000000
       326       109  TIP3  H1            1.5659262912        6.6184792784        9.1179649094  CLST         109          1.0000000000
       327       109  TIP3  H2            3.0084647191        6.3534624108        8.6739949085  CLST         109          1.0000000000
       328       110  TIP3  OH2           1.6759767812       12.4357596775      -11.1794213970  CLST         110          1.0000000000
       329       110  TIP3  H1            2.1961315850       13.1861823892      -11.0361651162  CLST         110          1.0000000000
       330       110  TIP3  H2            1.3249718023       12.2554308394      -10.2717144608  CLST         110          1.0000000000
       331       111  TIP3  OH2          11.8546196429      -11.6857949343        9.5136793361  CLST         111          1.0000000000
       332       111  TIP3  H1           12.6234890328      -12.1305014551        9.8321132597  CLST         111          1.0000000000
       333       111  TIP3  H2           11.5892656348      -12.2756227617        8.7819319242  CLST         111          1.0000000000
       334       112  TIP3  OH2           6.4538198491       -0.1461821330        1.7570868794  CLST         112          1.0000000000
       335       112  TIP3  H1            6.8510173166        0.7568686687        1.8341116894  CLST         112          1.0000000000
       336       112  TIP3  H2            6.4759939401       -0.4440738232        2.6940010433  CLST         112          1.0000000000
       337       113  TIP3  OH2         -12.8722472465        1.0137011576       -0.0191984024  CLST         113          1.0000000000
       338       113  TIP3  H1          -13.4874137751        0.2093222130       -0.1576867361  CLST         113          1.0000000000
       339       113  TIP3  H2          -12.3624178959        0.9730784881       -0.8641681785  CLST         113          1.0000000000
       340       114  TIP3  OH2         -13.9048248341        3.5331564660       -0.2289296293  CLST         114          1.0000000000
       341       114  TIP3  H1          -13.7030129574        2.5608107093       -0.1700062419  CLST         114          1.0000000000
       342       114  TIP3  H2          -13.6092624380        3.6381587052       -1.1655457005  CLST         114          1.0000000000
       343       115  TIP3  OH2          -8.8226557406        0.3047548195      -10.8204105448  CLST         115          1.0000000000
       344       115  TIP3  H1           -8.1753146012        0.6492948750      -11.4893799010  CLST         115          1.0000000000
       345       115  TIP3  H2           -9.2659073416        1.1641259905      -10.7368569063  CLST         115          1.0000000000
       346       116  TIP3  OH2           6.9247818244       -5.6934809669        2.1375628050  CLST         116          1.0000000000
       347       116  TIP3  H1            7.3831483140       -6.0277769132        1.3418074392  CLST         116          1.0000000000
       348       116  TIP3  H2            7.2837639814       -4.7761652244        2.1126272530  CLST         116          1.0000000000
       349       117  TIP3  OH2          -0.7980976925        0.0920485281       12.4916305492  CLST         117          1.0000000000
       350       117  TIP3  H1           -0.4908130454       -0.7983633915       12.7309781025  CLST         117          1.0000000000
       351       117  TIP3  H2           -0.2260139682        0.5119327255       13.1538410081  CLST         117          1.0000000000
       352       118  TIP3  OH2           0.1547926649       -9.5614602461        4.9306151700  CLST         118          1.0000000000
       353       118  TIP3  H1           -0.1547055791       -9.1908523130        5.7897284879  CLST         118          1.0000000000
       354       118  TIP3  H2           -0.1371486476       -8.8053385869        4.3391843151  CLST         118          1.0000000000
       355       119  TIP3  OH2          -9.2705914160      -10.4006572434       -8.7249402439  CLST         119          1.0000000000
       356       119  TIP3  H1           -9.4534108124      -10.7896807349       -9.6153050351  CLST         119          1.0000000000
       357       119  TIP3  H2           -9.0881229410       -9.4727745848       -8.9667151706  CLST         119          1.0000000000
       358       120  TIP3  OH2           9.5546494421       -8.0178482055        1.2766838201  CLST         120          1.0000000000
       359       120  TIP3  H1            8.7043498303       -8.5128155462        1.2816342661  CLST         120          1.0000000000
       360       120  TIP3  H2            9.3423767387       -7.3676704900        0.5550355236  CLST         120          1.0000000000
       361       121  TIP3  OH2          -5.6786949433       -0.2892753401       -7.9669186776  CLST         121          1.0000000000
       362       121  TIP3  H1           -5.7277534190       -0.0078542595       -8.9007447184  CLST         121          1.0000000000
       363       121  TIP3  H2           -4.9521620781       -0.9716724437       -8.0325483044  CLST         121          1.0000000000
       364       122  TIP3  OH2          10.4578224714       12.1186669670        5.2200813204  CLST         122          1.0000000000
       365       122  TIP3  H1            9.5266693835       12.4158447737        5.3788913020  CLST         122          1.0000000000
       366       122  TIP3  H2           10.9629989014       12.6194981113        5.8938974355  CLST         122          1.0000000000
       367       123  TIP3  OH2          -7.3448074057       -5.5388712962      -11.1787060622  CLST         123          1.0000000000
       368       123  TIP3  H1           -6.9151065036       -6.3349200163      -11.5268550881  CLST         123          1.0000000000
       369       123  TIP3  H2           -6.8457198694       -5.4089111373      -10.3572784684  CLST         123          1.0000000000
       370       124  TIP3  OH2          -5.9970615008       -8.6161321696      -10.7607197667  CLST         124          1.0000000000
       371       124  TIP3  H1           -5.2415685766       -8.9349000253      -10.1833812730  CLST         124          1.0000000000
       372       124  TIP3  H2           -6.5858103416       -8.2637032357      -10.0417087954  CLST         124          1.0000000000
       373       125  TIP3  OH2         -13.4879476685        4.1111076913        8.0711517704  CLST         125          1.0000000000
       374       125  TIP3  H1          -12.9862027705        3.6265042120        7.3892206577  CLST         125          1.0000000000
       375       125  TIP3  H2          -13.7566323193        4.9180265259        7.5885677612  CLST         125          1.0000000000
       376       126  TIP3  OH2          -7.0059553611      -10.6783451945      -12.1963582471  CLST         126          1.0000000000
       377       126  TIP3  H1           -6.1638313969      -11.1432429279      -11.9256083651  CLST         126          1.0000000000
       378       126  TIP3  H2           -6.7715605943       -9.8212896384      -11.7556656460  CLST         126          1.0000000000
       379       127  TIP3  OH2          -7.3342441210      -11.5765331090       -7.1139749662  CLST         127          1.0000000000
       380       127  TIP3  H1           -7.8764011043      -12.3034548905       -6.8086111318  CLST         127          1.0000000000
       381       127  TIP3  H2           -7.9312259884      -11.1624566676       -7.7746841657  CLST         127          1.0000000000
       382       128  TIP3  OH2           9.8915760993        0.7389870945       -2.4438625263  CLST         128          1.0000000000
       383       128  TIP3  H1            9.0307212280        0.3243141442       -2.1784481616  CLST         128          1.0000000000
       384       128  TIP3  H2            9.5762804804        1.5404532478       -2.9468377677  CLST         128          1.0000000000
       385       129  TIP3  OH2          -7.8506596919        9.5829167908        1.0751650544  CLST         129          1.0000000000
       386       129  TIP3  H1           -6.9492632245        9.9975348117        1.2985127783  CLST         129          1.0000000000
       387       129  TIP3  H2           -7.4443927960        8.8210850575        0.5819824031  CLST         129          1.0000000000
       388       130  TIP3  OH2          -4.0300091865        3.9928125526        9.8180856237  CLST         130          1.0000000000
       389       130  TIP3  H1           -3.5696507120        4.8452589583        9.9956712968  CLST         130          1.0000000000
       390       130  TIP3  H2           -3.6868772418        3.4709722650       10.5936287955  CLST         130          1.0000000000
       391       131  TIP3  OH2           7.8032824146       -3.8061623181       -9.9342750296  CLST         131          1.0000000000
       392       131  TIP3  H1            7.8005818719       -2.9902877323       -9.3229828667  CLST         131          1.0000000000
       393       131  TIP3  H2            6.8138688216       -3.9601080474       -9.7794989631  CLST         131          1.0000000000
       394       132  TIP3  OH2         -11.6047482180       11.3333092681       12.2813101550  CLST         132          1.0000000000
       395       132  TIP3  H1          -11.0916590554       12.0851517221       11.9258169774  CLST         132          1.0000000000
       396       132  TIP3  H2          -12.0348993444       11.6761266414       12.9997430038  CLST         132          1.0000000000
       397       133  TIP3  OH2          10.3402682060        9.5240844591        8.6010738898  CLST         133          1.0000000000
       398       133  TIP3  H1           10.1268520523        9.5749606463        9.5562343510  CLST         133          1.0000000000
       399       133  TIP3  H2           11.3279987181        9.6755899199        8.7115192026  CLST         133          1.0000000000
       400       134  TIP3  OH2          -7.7094799121        5.8378236124       -6.0210406071  CLST         134          1.0000000000
       401       134  TIP3  H1           -8.6729304590        5.7320442498       -5.8948251440  CLST         134          1.0000000000
       402       134  TIP3  H2           -7.4382016986        5.8856778454       -5.0738301493  CLST         134          1.0000000000
       403       135  TIP3  OH2          10.8723203840      -11.2936808123      -13.2858633984  CLST         135          1.0000000000
       404       135  TIP3  H1           10.8592777088      -10.6011767063      -12.5919568264  CLST         135          1.0000000000
       405       135  TIP3  H2           10.8331685817      -10.6694982861      -13.9944101685  CLST         135          1.0000000000
       406       136  TIP3  OH2          -4.2942053581        1.9216833389       -7.0867075913  CLST         136          1.0000000000
       407       136  TIP3  H1           -4.8002563129        1.0877332096       -7.3114208482  CLST         136          1.0000000000
       408       136  TIP3  H2           -5.0601822068        2.4871857561       -6.8391975622  CLST         136          1.0000000000
       409       137  TIP3  OH2          12.8813494913       10.2290802080        9.1107703675  CLST         137          1.0000000000
       410       137  TIP3  H1           13.1687795416       10.2312992107       10.0530774677  CLST         137          1.0000000000
       411       137  TIP3  H2           13.4208266622        9.4707939429        8.8003873082  CLST         137          1.0000000000
       412       138  TIP3  OH2          -0.8187960358      -10.0055501692        1.5412007696  CLST         138          1.0000000000
       413       138  TIP3  H1           -0.9670876634       -9.4531940755        0.7494155687  CLST         138          1.0000000000
       414       138  TIP3  H2           -0.8225976169       -9.3486094454        2.2657508444  CLST         138          1.0000000000
       415       139  TIP3  OH2          -9.5886391596      -10.6941588646        4.5712673565  CLST         139          1.0000000000
       416       139  TIP3  H1           -9.9985033577      -10.7269179120        3.6830833607  CLST         139          1.0000000000
       417       139  TIP3  H2           -8.8097308161      -11.2750500424        4.4797563425  CLST         139          1.0000000000
       418       140  TIP3  OH2          -7.0205855205        3.4170956066       -0.4464572902  CLST         140          1.0000000000
       419       140  TIP3  H1           -6.1930532823        3.8676788362       -0.1625093112  CLST         140          1.0000000000
       420       140  TIP3  H2           -7.6235069281        4.1807970010       -0.6023221398  CLST         140          1.0000000000
       421       141  TIP3  OH2           2.0400821081       -4.5012684536       -3.6555415436  CLST         141          1.0000000000
       422       141  TIP3  H1            1.8382041621       -3.5843274565       -3.3717745243  CLST         141          1.0000000000
       423       141  TIP3  H2            2.7291852923       -4.2021803023       -4.2964071898  CLST         141          1.0000000000
       424       142  TIP3  OH2         -11.6838919137       -0.0265222862        4.7523726422  CLST         142          1.0000000000
       425       142  TIP3  H1          -11.4798915522        0.6398868309        5.4480630299  CLST         142          1.0000000000
       426       142  TIP3  H2          -12.5639721853        0.3042628773        4.5077946625  CLST         142          1.0000000000
       427       143  TIP3  OH2           9.3511082323       -5.7644802326       -8.3443859732  CLST         143          1.0000000000
       428       143  TIP3  H1            9.4830930656       -5.2106653250       -9.1368659935  CLST         143          1.0000000000
       429       143  TIP3  H2           10.1439639292       -6.3390863446       -8.3867923065  CLST         143          1.0000000000
       430       144  TIP3  OH2           3.3326398461       -2.8965814606        9.1422594450  CLST         144          1.0000000000
       431       144  TIP3  H1            2.4457159334       -2.4877480312        9.3507164651  CLST         144          1.0000000000
       432       144  TIP3  H2            3.7448585741       -2.0679008320        8.8012422365  CLST         144          1.0000000000
       433       145  TIP3  OH2         -10.2162830461       13.3582922244        3.1899402976  CLST         145          1.0000000000
       434       145  TIP3  H1          -10.5816366366       13.5691064265        2.2995392211  CLST         145          1.0000000000
       435       145  TIP3  H2          -10.0487798052       12.3988177441        2.9943478178  CLST         145          1.0000000000
       436       146  TIP3  OH2           9.1981837788        2.6849859174       -4.1656378582  CLST         146          1.0000000000
       437       146  TIP3  H1            9.0747794231        3.6843619453       -4.1683583218  CLST         146          1.0000000000
       438       146  TIP3  H2            8.4730193781        2.5204472541       -4.8214668581  CLST         146          1.0000000000
       439       147  TIP3  OH2         -11.0593239822       -0.2907591630       -4.1595600648  CLST         147          1.0000000000
       440       147  TIP3  H1          -10.1245581524       -0.6105346261       -4.2518674139  CLST         147          1.0000000000
       441       147  TIP3  H2          -11.3941142267       -0.6036204528       -5.0457533945  CLST         147          1.0000000000
       442       148  TIP3  OH2          -7.9872492845        1.3015839461        8.9799278910  CLST         148          1.0000000000
       443       148  TIP3  H1           -7.8902951549        0.9095844707        8.0764610524  CLST         148          1.0000000000
       444       148  TIP3  H2           -7.0227584791        1.5770136999        9.0662688699  CLST         148          1.0000000000
       445       149  TIP3  OH2           8.6400294948       -2.8706931337        0.8347511577  CLST         149          1.0000000000
       446       149  TIP3  H1            9.2284936937       -2.0959912365        0.6115138596  CLST         149          1.0000000000
       447       149  TIP3  H2            8.4140582710       -2.6714452683        1.7607627049  CLST         149          1.0000000000
       448       150  TIP3  OH2          -2.2045461556      -11.4645507102        8.5114439057  CLST         150          1.0000000000
       449       150  TIP3  H1           -3.0385689072      -11.6146883024        9.0494854724  CLST         150          1.0000000000
       450       150  TIP3  H2           -1.5790398411      -11.8869556113        9.1848883722  CLST         150          1.0000000000
       451       151  TIP3  OH2          -9.1432371625       -6.4774367517       -4.9020622559  CLST         151          1.0000000000
       452       151  TIP3  H1           -8.1862621291       -6.5607166176       -4.6040608582  CLST         151          1.0000000000
       453       151  TIP3  H2           -9.1163881864       -7.2733965917       -5.5043140237  CLST         151          1.0000000000
       454       152  TIP3  OH2           3.8270327024       -2.0073888237        4.9577671963  CLST         152          1.0000000000
       455       152  TIP3  H1            4.2503792195       -2.8660996103        5.2093327708  CLST         152          1.0000000000
       456       152  TIP3  H2            3.5073200454       -2.3497516723        4.0836432990  CLST         152          1.0000000000
       457       153  TIP3  OH2          -2.7240823165        4.8259754853      -14.2042381494  CLST         153          1.0000000000
       458       153  TIP3  H1           -1.8345772043        5.1940916022      -14.0362395155  CLST         153          1.0000000000
       459       153  TIP3  H2           -2.5470252486        4.0168631407      -13.7121921068  CLST         153          1.0000000000
       460       154  TIP3  OH2           4.5499614458       -6.8877253574        2.0547235308  CLST         154          1.0000000000
       461       154  TIP3  H1            5.5191750441       -6.6631508086        2.0919871357  CLST         154          1.0000000000
       462       154  TIP3  H2            4.2672118612       -6.2951548696        1.3271219109  CLST         154          1.0000000000
       463       155  TIP3  OH2           9.4422836173       -2.7630520746       10.2804145226  CLST         155          1.0000000000
       464       155  TIP3  H1            8.7303021305       -3.2409691067        9.7562754383  CLST         155          1.0000000000
       465       155  TIP3  H2           10.0117944681       -3.4886752832       10.3881070886  CLST         155          1.0000000000
       466       156  TIP3  OH2          -2.2218523541       11.3019367103       11.5211520608  CLST         156          1.0000000000
       467       156  TIP3  H1           -3.0185955348       11.8476106182       11.5344510867  CLST         156          1.0000000000
       468       156  TIP3  H2           -2.6620761159       10.4719846400       11.2490200661  CLST         156          1.0000000000
       469       157  TIP3  OH2           3.9045554035       -0.7310105856        7.4723670070  CLST         157          1.0000000000
       470       157  TIP3  H1            4.8487576580       -0.5061665799        7.6124185796  CLST         157          1.0000000000
       471       157  TIP3  H2            3.9643752265       -1.3309400024        6.6927173358  CLST         157          1.0000000000
       472       158  TIP3  OH2          10.5875789972        9.0955633464       13.2676292719  CLST         158          1.0000000000
       473       158  TIP3  H1            9.9529794556        8.4087228345       13.5489226953  CLST         158          1.0000000000
       474       158  TIP3  H2            9.9561390023        9.8251140776       13.1655389862  CLST         158          1.0000000000
       475       159  TIP3  OH2           0.5719130907      -12.2747255701        4.3517793393  CLST         159          1.0000000000
       476       159  TIP3  H1           -0.1683774940      -12.5551007136        4.9711169660  CLST         159          1.0000000000
       477       159  TIP3  H2            0.5833990393      -11.3518026473        4.7428904125  CLST         159          1.0000000000
       478       160  TIP3  OH2           7.4588696143       -3.5802398585        8.5147766940  CLST         160          1.0000000000
       479       160  TIP3  H1            7.2661891672       -3.9298291336        7.6164330763  CLST         160          1.0000000000
       480       160  TIP3  H2            7.0397295297       -2.6859767442        8.3389745908  CLST         160          1.0000000000
       481       161  TIP3  OH2          -2.4791297436       -2.3701312006        7.8601380909  CLST         161          1.0000000000
       482       161  TIP3  H1           -2.2294298073       -1.6192531579        8.4629993461  CLST         161          1.0000000000
       483       161  TIP3  H2           -3.3255629184       -2.5815105053        8.3317168123  CLST         161          1.0000000000
       484       162  TIP3  OH2          -0.7706981372        3.6146634504      -10.6501736979  CLST         162          1.0000000000
       485       162  TIP3  H1           -0.6610736120        4.1371886444      -11.4634252258  CLST         162          1.0000000000
       486       162  TIP3  H2           -0.5540070548        4.2683752602       -9.9626303098  CLST         162          1.0000000000
       487       163  TIP3  OH2         -10.0765459279        9.1617847042       11.2136544619  CLST         163          1.0000000000
       488       163  TIP3  H1          -10.7317374347        8.4078236027       11.3280736197  CLST         163          1.0000000000
       489       163  TIP3  H2          -10.5192855909        9.8822782490       11.6988017959  CLST         163          1.0000000000
       490       164  TIP3  OH2           4.0684964117      -10.3526363241       13.0350383328  CLST         164          1.0000000000
       491       164  TIP3  H1            4.6650287606       -9.6763620222       12.6041801754  CLST         164          1.0000000000
       492       164  TIP3  H2            4.7998495999      -10.9096546576       13.3342814150  CLST         164          1.0000000000
       493       165  TIP3  OH2         -12.1482113954       -5.4217727269        3.6050093974  CLST         165          1.0000000000
       494       165  TIP3  H1          -11.9130729441       -5.6124908376        4.5648934336  CLST         165          1.0000000000
       495       165  TIP3  H2          -13.0035460613       -5.7337907696        3.5087125246  CLST         165          1.0000000000
       496       166  TIP3  OH2          -1.5724103848       -6.4492841182      -10.4237791606  CLST         166          1.0000000000
       497       166  TIP3  H1           -0.7184792114       -6.9051257925      -10.4534837074  CLST         166          1.0000000000
       498       166  TIP3  H2           -2.2354872796       -7.1494033754      -10.3824924691  CLST         166          1.0000000000
       499       167  TIP3  OH2           8.1088761362       10.6618844577       -0.8818423528  CLST         167          1.0000000000
       500       167  TIP3  H1            8.5942424339       10.2376715505       -0.1115968537  CLST         167          1.0000000000
       501       167  TIP3  H2            8.4238890370        9.9672524310       -1.5265346507  CLST         167          1.0000000000
       502       168  TIP3  OH2          -0.7190071908      -13.3836667667        2.0947461383  CLST         168          1.0000000000
       503       168  TIP3  H1           -0.2571343208      -13.0518652816        2.9011766814  CLST         168          1.0000000000
       504       168  TIP3  H2            0.0330327842      -13.8001943013        1.6294809934  CLST         168          1.0000000000
       505       169  TIP3  OH2           5.1435924640        4.0160809966        3.2519465397  CLST         169          1.0000000000
       506       169  TIP3  H1            4.3342297130        3.5011776464        3.3872590382  CLST         169          1.0000000000
       507       169  TIP3  H2            4.9730703128        4.4836722195        2.3857718083  CLST         169          1.0000000000
       508       170  TIP3  OH2          -1.1313770948        4.2409045656        1.4284828791  CLST         170          1.0000000000
       509       170  TIP3  H1           -1.8365301218        4.9197501836        1.3165156711  CLST         170          1.0000000000
       510       170  TIP3  H2           -1.5866215356        3.3814201094        1.4336707994  CLST         170          1.0000000000
       511       171  TIP3  OH2          -3.0364502500        1.3752631319        7.3831113595  CLST         171          1.0000000000
       512       171  TIP3  H1           -2.5135313520        1.2756642542        6.5551955826  CLST         171          1.0000000000
       513       171  TIP3  H2           -2.2661255791        1.5677793282        7.9679302191  CLST         171          1.0000000000
       514       172  TIP3  OH2          -6.4421421952      -13.0924120039        8.0630600320  CLST         172          1.0000000000
       515       172  TIP3  H1           -7.0255190597      -13.7057465705        7.6403003834  CLST         172          1.0000000000
       516       172  TIP3  H2           -5.7405735326      -12.9574925241        7.3443615642  CLST         172          1.0000000000
       517       173  TIP3  OH2          10.1618185488      -12.5886860964        1.8404308400  CLST         173          1.0000000000
       518       173  TIP3  H1           10.4434761841      -12.5992239224        0.8823360060  CLST         173          1.0000000000
       519       173  TIP3  H2            9.3474986996      -12.0852075880        1.6822264578  CLST         173          1.0000000000
       520       174  TIP3  OH2           0.0138591192        5.4793594187        9.7944427451  CLST         174          1.0000000000
       521       174  TIP3  H1           -0.3195619943        5.0213221211       10.5959089885  CLST         174          1.0000000000
       522       174  TIP3  H2           -0.6433518821        6.2048181077        9.7699779893  CLST         174          1.0000000000
       523       175  TIP3  OH2          -5.8380872097       10.3676975523       -3.5419157897  CLST         175          1.0000000000
       524       175  TIP3  H1           -5.3504628132        9.9906283304       -4.3017607430  CLST         175          1.0000000000
       525       175  TIP3  H2           -6.7147699601       10.2545784963       -4.0481516226  CLST         175          1.0000000000
       526       176  TIP3  OH2           6.7427406083        9.2305540103       -7.7715788983  CLST         176          1.0000000000
       527       176  TIP3  H1            7.0393599017       10.1076266384       -8.1409189873  CLST         176          1.0000000000
       528       176  TIP3  H2            6.5159255324        9.5159249590       -6.8634675322  CLST         176          1.0000000000
       529       177  TIP3  OH2          -3.7897014871      -11.3612954502       -1.5593801968  CLST         177          1.0000000000
       530       177  TIP3  H1           -2.9765699540      -11.7495487613       -1.1808284250  CLST         177          1.0000000000
       531       177  TIP3  H2           -4.3236997471      -11.2273742388       -0.7239511354  CLST         177          1.0000000000
       532       178  TIP3  OH2          10.7571323702       -9.0086190342      -11.4273538126  CLST         178          1.0000000000
       533       178  TIP3  H1           10.9647926136       -8.8171529551      -10.4824867117  CLST         178          1.0000000000
       534       178  TIP3  H2           10.6934069413       -8.0660097222      -11.6943085197  CLST         178          1.0000000000
       535       179  TIP3  OH2           6.5507362519       -0.9802220245        8.3951569330  CLST         179          1.0000000000
       536       179  TIP3  H1            6.1743881296       -0.2938043303        9.0085408496  CLST         179          1.0000000000
       537       179  TIP3  H2            7.4596035727       -0.6206845124        8.3390497013  CLST         179          1.0000000000
       538       180  TIP3  OH2          -7.5502943563        8.1821585757        5.9690268746  CLST         180          1.0000000000
       539       180  TIP3  H1           -7.2951776945        8.0206351082        6.9144193332  CLST         180          1.0000000000
       540       180  TIP3  H2           -8.4252819399        8.5634017745        6.1981147092  CLST         180          1.0000000000
       541       181  TIP3  OH2           5.9791888635      -12.9568716176       -0.4107213263  CLST         181          1.0000000000
       542       181  TIP3  H1            6.7834707624      -13.2039711187       -0.8577307252  CLST         181          1.0000000000
       543       181  TIP3  H2            6.2347203476      -13.0251445742        0.5376833008  CLST         181          1.0000000000
       544       182  TIP3  OH2          -1.6962005534       10.4533212091      -10.3450226816  CLST         182          1.0000000000
       545       182  TIP3  H1           -1.2027082123       11.0948418570       -9.7954284164  CLST         182          1.0000000000
       546       182  TIP3  H2           -2.4424912442       10.2371083137       -9.7554795589  CLST         182          1.0000000000
       547       183  TIP3  OH2          -5.3561325451        3.6192121843      -12.2493788789  CLST         183          1.0000000000
       548       183  TIP3  H1           -5.0056353767        3.5495185445      -11.3243294851  CLST         183          1.0000000000
       549       183  TIP3  H2           -6.1801198169        3.0951747431      -12.1732748553  CLST         183          1.0000000000
       550       184  TIP3  OH2           2.9924773533        8.2641770597       -2.4361698371  CLST         184          1.0000000000
       551       184  TIP3  H1            3.3141539857        7.6136836760       -1.7717477323  CLST         184          1.0000000000
       552       184  TIP3  H2            2.0324727747        8.0554660743       -2.2870907214  CLST         184          1.0000000000
       553       185  TIP3  OH2           7.4924892276        4.7577750626       12.1748041779  CLST         185          1.0000000000
       554       185  TIP3  H1            7.7106670826        3.7754101982       12.1179217631  CLST         185          1.0000000000
       555       185  TIP3  H2            6.9327479233        4.7804842056       12.9900910855  CLST         185          1.0000000000
       556       186  TIP3  OH2           3.9165225879        5.9041429785       -5.1781775194  CLST         186          1.0000000000
       557       186  TIP3  H1            4.0334614505        6.8609728064       -4.9612875315  CLST         186          1.0000000000
       558       186  TIP3  H2            3.8147124875        5.9897870781       -6.1488363935  CLST         186          1.0000000000
       559       187  TIP3  OH2           4.0995637893        1.6832795722       -5.5149774899  CLST         187          1.0000000000
       560       187  TIP3  H1            4.1167992271        1.7011318798       -4.5278062729  CLST         187          1.0000000000
       561       187  TIP3  H2            3.6432363833        0.7905815964       -5.5959726283  CLST         187          1.0000000000
       562       188  TIP3  OH2          -4.6448291206       -1.5342670746        4.8763709952  CLST         188          1.0000000000
       563       188  TIP3  H1           -4.6036155574       -0.7138900091        4.3260128066  CLST         188          1.0000000000
       564       188  TIP3  H2           -4.8594919386       -1.1430622587        5.7707352732  CLST         188          1.0000000000
       565       189  TIP3  OH2          -5.0726871074        3.5329472648      -15.1031839626  CLST         189          1.0000000000
       566       189  TIP3  H1           -5.1525235497        3.0776502792      -14.2536606806  CLST         189          1.0000000000
       567       189  TIP3  H2           -4.3257606842        4.1147274587      -14.8591285352  CLST         189          1.0000000000
       568       190  TIP3  OH2           7.2538548726       -5.7274805702        5.3035218827  CLST         190          1.0000000000
       569       190  TIP3  H1            7.0512815482       -5.4474078692        4.3776538512  CLST         190          1.0000000000
       570       190  TIP3  H2            8.1954433044       -5.9219694040        5.1255883820  CLST         190          1.0000000000
       571       191  TIP3  OH2         -10.9239809047       -4.8632085510       -6.5797715783  CLST         191          1.0000000000
       572       191  TIP3  H1          -10.5487714121       -4.3716417646       -7.3376359811  CLST         191          1.0000000000
       573       191  TIP3  H2          -10.1007093001       -4.9822608725       -6.0687594950  CLST         191          1.0000000000
       574       192  TIP3  OH2           8.9207484936       14.3127397154        1.9036364071  CLST         192          1.0000000000
       575       192  TIP3  H1            8.3685789504       14.0837486254        2.6668015288  CLST         192          1.0000000000
       576       192  TIP3  H2            9.0566748916       15.2471834329        2.0438728382  CLST         192          1.0000000000
       577       193  TIP3  OH2           6.1425737610      -12.1455449705       11.7953931170  CLST         193          1.0000000000
       578       193  TIP3  H1            7.0071811546      -12.4899637644       11.5059610443  CLST         193          1.0000000000
       579       193  TIP3  H2            5.7422788657      -11.9177896872       10.9515725444  CLST         193          1.0000000000
       580       194  TIP3  OH2          -6.2820243739       -4.4711384491       11.1481715627  CLST         194          1.0000000000
       581       194  TIP3  H1           -6.9672284839       -4.4276935069       11.8053000331  CLST         194          1.0000000000
       582       194  TIP3  H2           -6.8489093808       -4.7493518214       10.3902566008  CLST         194          1.0000000000
       583       195  TIP3  OH2          -7.3889234393        9.0712334261       10.2447467367  CLST         195          1.0000000000
       584       195  TIP3  H1           -8.3436058751        9.0751895478       10.4878708786  CLST         195          1.0000000000
       585       195  TIP3  H2           -7.3647850023        8.1511957751        9.8633917891  CLST         195          1.0000000000
       586       196  TIP3  OH2           5.9787792850      -12.3272645283       -5.9597382654  CLST         196          1.0000000000
       587       196  TIP3  H1            6.4481071134      -11.5920139103       -6.3903967063  CLST         196          1.0000000000
       588       196  TIP3  H2            5.2078809946      -11.8246587369       -5.6146804633  CLST         196          1.0000000000
       589       197  TIP3  OH2           2.1889135027       -9.1630322458       -2.7819665008  CLST         197          1.0000000000
       590       197  TIP3  H1            1.9932283239       -8.2512975579       -2.3685948428  CLST         197          1.0000000000
       591       197  TIP3  H2            3.1463305925       -9.0803515642       -2.7166202878  CLST         197          1.0000000000
       592       198  TIP3  OH2          10.8890310320        1.9698502447        4.6307055484  CLST         198          1.0000000000
       593       198  TIP3  H1           10.0744846402        1.4801637412        4.4774482693  CLST         198          1.0000000000
       594       198  TIP3  H2           10.5801012622        2.8523265910        4.2830079725  CLST         198          1.0000000000
       595       199  TIP3  OH2          -0.0192565814        8.4028849786       -5.8532107549  CLST         199          1.0000000000
       596       199  TIP3  H1           -0.8696374466        8.6749029780       -5.4390018729  CLST         199          1.0000000000
       597       199  TIP3  H2           -0.0602649307        7.4405034063       -5.6485313798  CLST         199          1.0000000000
       598       200  TIP3  OH2          -7.6926489820       11.8157316349       11.0014183594  CLST         200          1.0000000000
       599       200  TIP3  H1           -7.8677611316       10.9127572264       10.6512748494  CLST         200          1.0000000000
       600       200  TIP3  H2           -7.1922156582       12.1887032658       10.2433120443  CLST         200          1.0000000000
       601       201  TIP3  OH2           4.5304856357        0.9247640501       -0.0915394088  CLST         201          1.0000000000
       602       201  TIP3  H1            4.3101639537        1.6325860919        0.5262618318  CLST         201          1.0000000000
       603       201  TIP3  H2            4.9054251691        0.2911589732        0.5493551968  CLST         201          1.0000000000
       604       202  TIP3  OH2          -1.9706757237       -4.1782921653      -12.4052716124  CLST         202          1.0000000000
       605       202  TIP3  H1           -1.7828584341       -4.8130306461      -11.6952937525  CLST         202          1.0000000000
       606       202  TIP3  H2           -2.5100393824       -3.5285133674      -11.9046684649  CLST         202          1.0000000000
       607       203  TIP3  OH2          -0.6941365628       11.2941063966        7.5420647037  CLST         203          1.0000000000
       608       203  TIP3  H1            0.1442231441       10.9471877445        7.9074483399  CLST         203          1.0000000000
       609       203  TIP3  H2           -1.3365561607       10.8935205808        8.1649974000  CLST         203          1.0000000000
       610       204  TIP3  OH2          -5.4114049538        6.3983721392      -13.3345741013  CLST         204          1.0000000000
       611       204  TIP3  H1           -4.6403558118        6.3838803302      -13.9309876476  CLST         204          1.0000000000
       612       204  TIP3  H2           -5.4769256634        5.4205306681      -13.2144979790  CLST         204          1.0000000000
       613       205  TIP3  OH2          -2.3532079848        7.0727007531       -2.6116155780  CLST         205          1.0000000000
       614       205  TIP3  H1           -2.3046331688        7.7899722803       -3.3072639061  CLST         205          1.0000000000
       615       205  TIP3  H2           -1.3744481745        6.8922548012       -2.5639197002  CLST         205          1.0000000000
       616       206  TIP3  OH2           5.0028192720      -11.0065389605       -9.8618476997  CLST         206          1.0000000000
       617       206  TIP3  H1            4.8547479016      -11.9359363142       -9.5310752415  CLST         206          1.0000000000
       618       206  TIP3  H2            5.8040857224      -10.7880855592       -9.3057166047  CLST         206          1.0000000000
       619       207  TIP3  OH2          12.8814341417       10.1208052585       12.2230149129  CLST         207          1.0000000000
       620       207  TIP3  H1           12.0641198423        9.7384194800       12.6253654107  CLST         207          1.0000000000
       621       207  TIP3  H2           13.5260729907        9.8621388032       12.7859810505  CLST         207          1.0000000000
       622       208  TIP3  OH2         -11.5580175603        2.2315804789        6.8178099101  CLST         208          1.0000000000
       623       208  TIP3  H1          -11.1300930273        2.1154557017        7.6973332968  CLST         208          1.0000000000
       624       208  TIP3  H2          -11.1026940179        3.0265483194        6.4677319002  CLST         208          1.0000000000
       625       209  TIP3  OH2           4.5118607095       -9.2068831398        7.3687665331  CLST         209          1.0000000000
       626       209  TIP3  H1            4.1867767875       -9.5512482119        6.4971976792  CLST         209          1.0000000000
       627       209  TIP3  H2            3.6472632894       -8.7533598697        7.5889396368  CLST         209          1.0000000000
       628       210  TIP3  OH2          12.1996584406      -11.1640992214        5.4290260308  CLST         210          1.0000000000
       629       210  TIP3  H1           12.5682433720      -11.2764452984        4.5242173463  CLST         210          1.0000000000
       630       210  TIP3  H2           12.4329175668      -10.2096954476        5.5865283103  CLST         210          1.0000000000
       631       211  TIP3  OH2          -0.3515416778       -9.2023447646       12.1849163506  CLST         211          1.0000000000
       632       211  TIP3  H1            0.1679819382       -9.7814845329       12.7958510106  CLST         211          1.0000000000
       633       211  TIP3  H2           -1.1725826709       -9.7774576933       12.1956568004  CLST         211          1.0000000000
       634       212  TIP3  OH2         -12.3447445018        3.4302408828       -2.5314443433  CLST         212          1.0000000000
       635       212  TIP3  H1          -11.7408395416        4.1188613958       -2.9285909226  CLST         212          1.0000000000
       636       212  TIP3  H2          -11.6900882786        2.7226431372       -2.3085380377  CLST         212          1.0000000000
       637       213  TIP3  OH2          -9.4726373958      -11.4927663582      -11.5992305278  CLST         213          1.0000000000
       638       213  TIP3  H1           -9.7803117923      -11.7393982339      -12.3888387472  CLST         213          1.0000000000
       639       213  TIP3  H2           -8.5182123540      -11.1822607669      -11.8265998618  CLST         213          1.0000000000
       640       214  TIP3  OH2          -6.4630485191        2.2698346498       -5.4535365461  CLST         214          1.0000000000
       641       214  TIP3  H1           -6.2020864581        1.4371996051       -4.9871889299  CLST         214          1.0000000000
       642       214  TIP3  H2           -7.1459353463        2.6112934951       -4.8132008856  CLST         214          1.0000000000
       643       215  TIP3  OH2         -11.8053752718      -12.8721944436        5.6947461316  CLST         215          1.0000000000
       644       215  TIP3  H1          -11.0355349572      -12.3369283364        5.4646090739  CLST         215          1.0000000000
       645       215  TIP3  H2          -11.8832496585      -13.2402883192        4.7769732442  CLST         215          1.0000000000
       646       216  TIP3  OH2         -11.9725083380       -2.2989817801        8.0253877155  CLST         216          1.0000000000
       647       216  TIP3  H1          -11.0585433090       -1.9535587876        8.1481144393  CLST         216          1.0000000000
       648       216  TIP3  H2          -11.7458775341       -3.2480186686        8.2068310246  CLST         216          1.0000000000
       649       217  TIP3  OH2           7.5717162672       -0.2805618977       -1.5489232871  CLST         217          1.0000000000
       650       217  TIP3  H1            7.7788486394       -1.2203380179       -1.7302343349  CLST         217          1.0000000000
       651       217  TIP3  H2            7.0747557798       -0.3592533365       -0.7061306793  CLST         217          1.0000000000
       652       218  TIP3  OH2          -8.2207842912       -3.9425412577        9.1106139958  CLST         218          1.0000000000
       653       218  TIP3  H1           -8.5480526857       -3.0375414798        8.8239208889  CLST         218          1.0000000000
       654       218  TIP3  H2           -7.7641559492       -4.2167541420        8.2869786289  CLST         218          1.0000000000
       655       219  TIP3  OH2         -12.4521810067       -4.5641441045       -2.6674067088  CLST         219          1.0000000000
       656       219  TIP3  H1          -12.5713275853       -3.6097171870       -2.8659233849  CLST         219          1.0000000000
       657       219  TIP3  H2          -12.6139290084       -4.8935286948       -3.5715277720  CLST         219          1.0000000000
       658       220  TIP3  OH2           6.4176215393        6.8780723188        7.7892460703  CLST         220          1.0000000000
       659       220  TIP3  H1            5.9946980686        6.8940548549        6.8939324177  CLST         220          1.0000000000
       660       220  TIP3  H2            5.7506925694        6.2326441708        8.1484389275  CLST         220          1.0000000000
       661       221  TIP3  OH2         -10.3580900412       -7.0558708331       10.3356037974  CLST         221          1.0000000000
       662       221  TIP3  H1           -9.4327196248       -7.3014038517       10.2890701240  CLST         221          1.0000000000
       663       221  TIP3  H2          -10.6975460420       -7.9598865384       10.1371284493  CLST         221          1.0000000000
       664       222  TIP3  OH2          -6.8615188639       -0.7574074659      -13.6980068476  CLST         222          1.0000000000
       665       222  TIP3  H1           -6.3587196384       -1.5847799568      -13.3926936045  CLST         222          1.0000000000
       666       222  TIP3  H2           -7.7096368559       -1.2047845723      -13.8377039587  CLST         222          1.0000000000
       667       223  TIP3  OH2           2.7716573044      -10.8087195747      -11.6319508996  CLST         223          1.0000000000
       668       223  TIP3  H1            2.2758014419      -11.6900272413      -11.5025726598  CLST         223          1.0000000000
       669       223  TIP3  H2            3.5765614212      -10.9310084633      -11.0998488072  CLST         223          1.0000000000
       670       224  TIP3  OH2           7.5830495711        4.7904357701        0.6274110896  CLST         224          1.0000000000
       671       224  TIP3  H1            8.3156886713        5.4367792372        0.5706431425  CLST         224          1.0000000000
       672       224  TIP3  H2            7.5693566333        4.3246116812       -0.2441556524  CLST         224          1.0000000000
       673       225  TIP3  OH2          -0.3386965721        4.6084049649       -1.2545466766  CLST         225          1.0000000000
       674       225  TIP3  H1           -0.4240869384        4.5121905349       -0.2769413944  CLST         225          1.0000000000
       675       225  TIP3  H2           -0.4263491011        3.6208813365       -1.4294111399  CLST         225          1.0000000000
       676       226  TIP3  OH2          -5.6801648958       -4.3767023471        7.5038773320  CLST         226          1.0000000000
       677       226  TIP3  H1           -5.7086352830       -5.3633998049        7.6367467432  CLST         226          1.0000000000
       678       226  TIP3  H2           -5.6361512011       -4.3442396818        6.5206985809  CLST         226          1.0000000000
       679       227  TIP3  OH2          11.6781399912       -4.1620507845       -9.9190551716  CLST         227          1.0000000000
       680       227  TIP3  H1           11.6994892836       -3.5920205534       -9.1030517439  CLST         227          1.0000000000
       681       227  TIP3  H2           11.5007200935       -3.4638194555      -10.5684310443  CLST         227          1.0000000000
       682       228  TIP3  OH2           3.5280991986       12.4199551631        3.2301595614  CLST         228          1.0000000000
       683       228  TIP3  H1            2.6685641942       12.0971961181        3.6536788114  CLST         228          1.0000000000
       684       228  TIP3  H2            3.1578055692       12.7399757588        2.4418640016  CLST         228          1.0000000000
       685       229  TIP3  OH2         -11.5317749816      -13.0533079441        2.8897866052  CLST         229          1.0000000000
       686       229  TIP3  H1          -11.4404600033      -13.6099770227        2.1530799969  CLST         229          1.0000000000
       687       229  TIP3  H2          -11.2369330347      -12.2072899905        2.4384189977  CLST         229          1.0000000000
       688       230  TIP3  OH2          12.2598825519        6.2040846987       -3.4110005202  CLST         230          1.0000000000
       689       230  TIP3  H1           12.9960031599        6.1248720661       -2.7871384830  CLST         230          1.0000000000
       690       230  TIP3  H2           11.9848957928        5.2610418225       -3.3744349563  CLST         230          1.0000000000
       691       231  TIP3  OH2           7.1502961860        3.3743152199        4.9115986488  CLST         231          1.0000000000
       692       231  TIP3  H1            7.5391453911        4.2603298129        5.1223551058  CLST         231          1.0000000000
       693       231  TIP3  H2            6.3502886038        3.7065382107        4.4239879746  CLST         231          1.0000000000
       694       232  TIP3  OH2         -10.3289158229        9.0304452106        7.4979195597  CLST         232          1.0000000000
       695       232  TIP3  H1          -10.8027971713        9.6044910146        8.1655381924  CLST         232          1.0000000000
       696       232  TIP3  H2          -10.1764257117        8.2426534683        8.0699405950  CLST         232          1.0000000000
       697       233  TIP3  OH2           3.5888830796       -5.3140387150        8.0296823533  CLST         233          1.0000000000
       698       233  TIP3  H1            4.1705439174       -5.6817579916        8.7393920694  CLST         233          1.0000000000
       699       233  TIP3  H2            3.4838609210       -4.3955447409        8.4506863606  CLST         233          1.0000000000
       700       234  TIP3  OH2          -3.6520677980        8.5756445346       -0.5297543662  CLST         234          1.0000000000
       701       234  TIP3  H1           -3.1493576626        8.4083874476       -1.3597910794  CLST         234          1.0000000000
       702       234  TIP3  H2           -3.6506733790        9.5615052353       -0.5862437786  CLST         234          1.0000000000
       703       235  TIP3  OH2          -1.9358412093       -4.0851725313       -9.0918656807  CLST         235          1.0000000000
       704       235  TIP3  H1           -1.8474078598       -4.9740402542       -9.5398017373  CLST         235          1.0000000000
       705       235  TIP3  H2           -0.9719125021       -3.8735733650       -9.0533961493  CLST         235          1.0000000000
       706       236  TIP3  OH2          -0.3609792725      -13.6748910784       -2.9983660692  CLST         236          1.0000000000
       707       236  TIP3  H1            0.1643584666      -12.9586599560       -2.5476297701  CLST         236          1.0000000000
       708       236  TIP3  H2           -0.9825369992      -13.7862116747       -2.2520492790  CLST         236          1.0000000000
       709       237  TIP3  OH2          -3.6394459243       -5.1513868050       10.8969603922  CLST         237          1.0000000000
       710       237  TIP3  H1           -4.5120270293       -4.8011450912       11.2133923361  CLST         237          1.0000000000
       711       237  TIP3  H2           -4.0383085433       -5.6867173001       10.1747109163  CLST         237          1.0000000000
       712       238  TIP3  OH2           0.6827799969        4.7458501283        7.2694028196  CLST         238          1.0000000000
       713       238  TIP3  H1            0.0012663535        5.3180056241        6.8302761837  CLST         238          1.0000000000
       714       238  TIP3  H2            0.5419457139        5.0189880902        8.2187307722  CLST         238          1.0000000000
       715       239  TIP3  OH2         -14.0731111589        5.9578602496        3.5115250703  CLST         239          1.0000000000
       716       239  TIP3  H1          -14.3130670449        6.4717151887        2.7232537275  CLST         239          1.0000000000
       717       239  TIP3  H2          -13.3844910602        5.4079697037        3.0896234479  CLST         239          1.0000000000
       718       240  TIP3  OH2         -14.1325055723        8.8795073298       -0.2451873213  CLST         240          1.0000000000
       719       240  TIP3  H1          -14.8309890696        9.1252690110        0.3448509931  CLST         240          1.0000000000
       720       240  TIP3  H2          -14.0228811373        7.9022002263        0.0297639470  CLST         240          1.0000000000
       721       241  TIP3  OH2          -7.6702163508       -7.8016934208       -8.5815531169  CLST         241          1.0000000000
       722       241  TIP3  H1           -7.8589083937       -7.9612219286       -7.6293887153  CLST         241          1.0000000000
       723       241  TIP3  H2           -7.6007660213       -6.8142846550       -8.5494271595  CLST         241          1.0000000000
       724       242  TIP3  OH2           6.0491773692       -5.7077563398        9.6819307596  CLST         242          1.0000000000
       725       242  TIP3  H1            6.4496435580       -4.8549673634        9.3810892662  CLST         242          1.0000000000
       726       242  TIP3  H2            6.8052966903       -6.3103508820        9.4273901621  CLST         242          1.0000000000
       727       243  TIP3  OH2          -6.6041150523       -7.2291067700       -4.3073144935  CLST         243          1.0000000000
       728       243  TIP3  H1           -6.5211597288       -7.8397931992       -5.0580081083  CLST         243          1.0000000000
       729       243  TIP3  H2           -6.3865703453       -7.9032196624       -3.6151234066  CLST         243          1.0000000000
       730       244  TIP3  OH2           4.8846921490        5.7858104071        5.4665900703  CLST         244          1.0000000000
       731       244  TIP3  H1            5.0897139112        5.5033068410        4.5483292194  CLST         244          1.0000000000
       732       244  TIP3  H2            4.2589558554        5.0543421269        5.6788988575  CLST         244          1.0000000000
       733       245  TIP3  OH2          -7.0532822301        3.6823989582       -7.7302025591  CLST         245          1.0000000000
       734       245  TIP3  H1           -6.9440603276        3.0330578472       -6.9974541910  CLST         245          1.0000000000
       735       245  TIP3  H2           -7.3149098172        4.4429034939       -7.1478455376  CLST         245          1.0000000000
       736       246  TIP3  OH2           1.9830901976       -6.6152987111       -1.8603852253  CLST         246          1.0000000000
       737       246  TIP3  H1            1.6808243307       -5.9354082159       -2.5181959103  CLST         246          1.0000000000
       738       246  TIP3  H2            2.9486684674       -6.5092043115       -1.9874426143  CLST         246          1.0000000000
       739       247  TIP3  OH2           6.0235798004        8.0129250888        0.5585519628  CLST         247          1.0000000000
       740       247  TIP3  H1            6.5456731675        7.8647509880       -0.2666184926  CLST         247          1.0000000000
       741       247  TIP3  H2            5.4883119611        8.7975816909        0.3143470760  CLST         247          1.0000000000
       742       248  TIP3  OH2          -2.4771575863        8.3370133382      -11.9526595843  CLST         248          1.0000000000
       743       248  TIP3  H1           -2.3014334141        8.7410441232      -12.8144595927  CLST         248          1.0000000000
       744       248  TIP3  H2           -1.9649347207        8.9619823360      -11.3914841794  CLST         248          1.0000000000
       745       249  TIP3  OH2           8.9331820419        4.7078959637       -7.9023193187  CLST         249          1.0000000000
       746       249  TIP3  H1            8.2727007576        5.4371862975       -7.8482230542  CLST         249          1.0000000000
       747       249  TIP3  H2            8.4041105335        4.0455771742       -7.4074365582  CLST         249          1.0000000000
       748       250  TIP3  OH2          -7.5484597929        9.6562680405       -5.3770974332  CLST         250          1.0000000000
       749       250  TIP3  H1           -7.9989954553        8.8526844559       -5.6626929185  CLST         250          1.0000000000
       750       250  TIP3  H2           -7.3489846062       10.1021370474       -6.2266819998  CLST         250          1.0000000000
       751       251  TIP3  OH2          -3.6261437468       12.4522081655        3.0028094445  CLST         251          1.0000000000
       752       251  TIP3  H1           -2.9088594572       12.7472652235        2.4980333761  CLST         251          1.0000000000
       753       251  TIP3  H2           -3.1383103385       12.3197829176        3.8586654560  CLST         251          1.0000000000
       754       252  TIP3  OH2           5.8807406080        5.2306529628       14.6317624779  CLST         252          1.0000000000
       755       252  TIP3  H1            5.7106923493        6.1333493908       14.3232751985  CLST         252          1.0000000000
       756       252  TIP3  H2            5.5449529787        5.3560311645       15.4976711231  CLST         252          1.0000000000
       757       253  TIP3  OH2           6.0112454831       13.9304334586        3.2944533117  CLST         253          1.0000000000
       758       253  TIP3  H1            5.2539382368       13.3120148379        3.4083501473  CLST         253          1.0000000000
       759       253  TIP3  H2            6.0679577836       13.9114635530        2.3313437848  CLST         253          1.0000000000
       760       254  TIP3  OH2          -4.1677954069        8.1255218045        3.0735286216  CLST         254          1.0000000000
       761       254  TIP3  H1           -4.6558328010        8.5627629555        2.3353091303  CLST         254          1.0000000000
       762       254  TIP3  H2           -4.8369005231        7.5007650094        3.4058451316  CLST         254          1.0000000000
       763       255  TIP3  OH2          -7.1201488042       10.4729731293        4.2546638558  CLST         255          1.0000000000
       764       255  TIP3  H1           -8.0092643189       10.8652275317        4.3707727503  CLST         255          1.0000000000
       765       255  TIP3  H2           -7.1695735296        9.7457965252        4.9168732166  CLST         255          1.0000000000
       766       256  TIP3  OH2          11.4583208075        3.7878547380       -1.3505589532  CLST         256          1.0000000000
       767       256  TIP3  H1           11.7762882721        2.8927903187       -1.6120618706  CLST         256          1.0000000000
       768       256  TIP3  H2           11.5744224466        3.7213078328       -0.3891879900  CLST         256          1.0000000000
       769       257  TIP3  OH2          -8.4628112069       -1.1990166362       -4.9817686595  CLST         257          1.0000000000
       770       257  TIP3  H1           -7.5832006486       -0.8563583246       -4.6637859921  CLST         257          1.0000000000
       771       257  TIP3  H2           -8.4607679833       -0.9504728633       -5.9234680814  CLST         257          1.0000000000
       772       258  TIP3  OH2          -5.3178138373       10.2121084111        7.8335999420  CLST         258          1.0000000000
       773       258  TIP3  H1           -5.0813784944       10.7846882033        7.0510050534  CLST         258          1.0000000000
       774       258  TIP3  H2           -6.0826027566       10.7646790634        8.1363457816  CLST         258          1.0000000000
       775       259  TIP3  OH2          10.1469283800        6.1361536774        0.9703896492  CLST         259          1.0000000000
       776       259  TIP3  H1           11.0318097491        6.5738087333        0.8716857444  CLST         259          1.0000000000
       777       259  TIP3  H2            9.8698882513        6.6406815913        1.7649493361  CLST         259          1.0000000000
       778       260  TIP3  OH2          -4.9802125646        7.7141895690        8.8851599432  CLST         260          1.0000000000
       779       260  TIP3  H1           -5.0649676868        8.6083652203        8.4629081333  CLST         260          1.0000000000
       780       260  TIP3  H2           -5.6945693888        7.2475026636        8.4143338396  CLST         260          1.0000000000
       781       261  TIP3  OH2           0.7722099766       -4.2969206945       12.3612465518  CLST         261          1.0000000000
       782       261  TIP3  H1            0.2971781582       -5.2080219063       12.3462532703  CLST         261          1.0000000000
       783       261  TIP3  H2            1.5061566543       -4.5559584484       12.9438088727  CLST         261          1.0000000000
       784       262  TIP3  OH2         -11.0657563342        4.8175993992        6.0160182629  CLST         262          1.0000000000
       785       262  TIP3  H1          -10.2120756982        4.6966087777        5.4959227749  CLST         262          1.0000000000
       786       262  TIP3  H2          -11.5921302353        5.0983799591        5.2333188463  CLST         262          1.0000000000
       787       263  TIP3  OH2           1.7308487686        0.8616918810        6.6447166915  CLST         263          1.0000000000
       788       263  TIP3  H1            2.4297671003        1.4587766102        6.9714023346  CLST         263          1.0000000000
       789       263  TIP3  H2            2.1931371056        0.0275002399        6.9081363767  CLST         263          1.0000000000
       790       264  TIP3  OH2           5.2278998127       -4.1976815552       -9.6214666024  CLST         264          1.0000000000
       791       264  TIP3  H1            5.2746802114       -5.1324392455       -9.9329234303  CLST         264          1.0000000000
       792       264  TIP3  H2            4.3143015413       -4.0332489945      -10.0053681748  CLST         264          1.0000000000
       793       265  TIP3  OH2           7.5670107010        4.9570912958      -10.2249715526  CLST         265          1.0000000000
       794       265  TIP3  H1            7.6862007116        5.9289458108      -10.3289661533  CLST         265          1.0000000000
       795       265  TIP3  H2            8.3736448591        4.7281866215       -9.7144526491  CLST         265          1.0000000000
       796       266  TIP3  OH2          -8.0034550408       -8.8472511583        0.1461621362  CLST         266          1.0000000000
       797       266  TIP3  H1           -7.6900957186       -9.1990708676        0.9996511427  CLST         266          1.0000000000
       798       266  TIP3  H2           -8.1640578402       -7.9035904100        0.3451942589  CLST         266          1.0000000000
       799       267  TIP3  OH2           1.2307066948        2.6177542826       -5.1740905273  CLST         267          1.0000000000
       800       267  TIP3  H1            1.2393628012        3.4638694472       -4.6558162692  CLST         267          1.0000000000
       801       267  TIP3  H2            2.1745777130        2.3790399555       -5.0501719850  CLST         267          1.0000000000
       802       268  TIP3  OH2           5.1234854327       -4.5353886212       -6.8418778120  CLST         268          1.0000000000
       803       268  TIP3  H1            5.1675534759       -4.1578283596       -7.7543634035  CLST         268          1.0000000000
       804       268  TIP3  H2            4.7464513065       -5.4174156906       -7.0653270975  CLST         268          1.0000000000
       805       269  TIP3  OH2           5.5113393945       10.8072242423       -0.0672801944  CLST         269          1.0000000000
       806       269  TIP3  H1            6.4117101190       10.7098866725       -0.4938576106  CLST         269          1.0000000000
       807       269  TIP3  H2            5.7319193637       11.6698490795        0.3848080046  CLST         269          1.0000000000
       808       270  TIP3  OH2           1.2680600611        9.3145171762       -7.9400684206  CLST         270          1.0000000000
       809       270  TIP3  H1            1.1871415802        8.4515773425       -8.3836262393  CLST         270          1.0000000000
       810       270  TIP3  H2            0.8406113268        9.0154173347       -7.0491360301  CLST         270          1.0000000000
       811       271  TIP3  OH2          -6.4343175329       -9.0909872852       -2.2006548020  CLST         271          1.0000000000
       812       271  TIP3  H1           -5.7661912600       -8.6957038644       -1.6047674830  CLST         271          1.0000000000
       813       271  TIP3  H2           -7.1412648952       -9.1762958209       -1.4986333930  CLST         271          1.0000000000
       814       272  TIP3  OH2           9.4659366844       -8.2261423343        5.8299275696  CLST         272          1.0000000000
       815       272  TIP3  H1            8.5011710247       -8.3046235770        6.0074166663  CLST         272          1.0000000000
       816       272  TIP3  H2            9.4835269993       -7.7108487102        4.9822052884  CLST         272          1.0000000000
       817       273  TIP3  OH2         -13.9482304834        9.4412328804        3.2121266983  CLST         273          1.0000000000
       818       273  TIP3  H1          -14.6856349769        9.5902440169        3.8726557317  CLST         273          1.0000000000
       819       273  TIP3  H2          -13.4340691623        8.8496282127        3.7982016013  CLST         273          1.0000000000
       820       274  TIP3  OH2           4.1121703957       13.0349194521       -4.0384022835  CLST         274          1.0000000000
       821       274  TIP3  H1            3.9889379648       12.3240779140       -3.3131520793  CLST         274          1.0000000000
       822       274  TIP3  H2            3.6866262228       13.7454435342       -3.6120602680  CLST         274          1.0000000000
       823       275  TIP3  OH2           8.7891401145      -11.1238297424        5.9478054659  CLST         275          1.0000000000
       824       275  TIP3  H1            9.3956426474      -10.3536670544        5.9991476022  CLST         275          1.0000000000
       825       275  TIP3  H2            9.3659496690      -11.8249913155        5.5706615018  CLST         275          1.0000000000
       826       276  TIP3  OH2          -0.1826208633       -5.9376470925        1.4433823413  CLST         276          1.0000000000
       827       276  TIP3  H1           -0.6956067920       -6.0048165027        0.6127444341  CLST         276          1.0000000000
       828       276  TIP3  H2           -0.7127968556       -5.2749644260        1.9728501635  CLST         276          1.0000000000
       829       277  TIP3  OH2           6.5302572687        6.4099016436       -6.9083315496  CLST         277          1.0000000000
       830       277  TIP3  H1            5.6747939078        6.0402320352       -7.2107700083  CLST         277          1.0000000000
       831       277  TIP3  H2            6.5566361396        7.2783919789       -7.3482057930  CLST         277          1.0000000000
       832       278  TIP3  OH2          -0.6965966729       -7.5271141438        3.5014886097  CLST         278          1.0000000000
       833       278  TIP3  H1           -0.3930484452       -6.9318186271        2.7523859011  CLST         278          1.0000000000
       834       278  TIP3  H2           -0.9750889002       -6.8332875659        4.1494615629  CLST         278          1.0000000000
       835       279  TIP3  OH2         -13.5936719410        6.4856623622        0.3893110971  CLST         279          1.0000000000
       836       279  TIP3  H1          -13.6259656637        5.5530179926        0.0732102403  CLST         279          1.0000000000
       837       279  TIP3  H2          -12.6483213917        6.5415715900        0.6743173264  CLST         279          1.0000000000
       838       280  TIP3  OH2          -3.3319224877      -10.0745759038        5.4772184695  CLST         280          1.0000000000
       839       280  TIP3  H1           -3.4307534696       -9.2580539351        6.0070815631  CLST         280          1.0000000000
       840       280  TIP3  H2           -3.6385997504       -9.6279036331        4.6533640587  CLST         280          1.0000000000
       841       281  TIP3  OH2           8.1392805881        7.7831197478      -10.6535837052  CLST         281          1.0000000000
       842       281  TIP3  H1            8.5133540711        8.6999587437      -10.6114140763  CLST         281          1.0000000000
       843       281  TIP3  H2            7.1697745711        7.9853961258      -10.6236439826  CLST         281          1.0000000000
       844       282  TIP3  OH2          -7.7684351336      -11.8821757370        9.9907712605  CLST         282          1.0000000000
       845       282  TIP3  H1           -8.3884787395      -11.4186987739        9.4127753933  CLST         282          1.0000000000
       846       282  TIP3  H2           -7.2661126084      -12.4065861638        9.3075746279  CLST         282          1.0000000000
       847       283  TIP3  OH2           4.4798067763        8.6288175007       -4.7274631656  CLST         283          1.0000000000
       848       283  TIP3  H1            4.6912366902        9.5782088077       -4.9202620989  CLST         283          1.0000000000
       849       283  TIP3  H2            3.8344159212        8.7145454302       -3.9820098929  CLST         283          1.0000000000
       850       284  TIP3  OH2          11.9117413611        8.3551722944       -1.4231486479  CLST         284          1.0000000000
       851       284  TIP3  H1           11.5983073982        7.6241525870       -1.9952204597  CLST         284          1.0000000000
       852       284  TIP3  H2           11.1273600209        8.9255108566       -1.5244899945  CLST         284          1.0000000000
       853       285  TIP3  OH2          -5.3158405872        1.8884974871        8.8958349416  CLST         285          1.0000000000
       854       285  TIP3  H1           -4.6676238691        1.6475171110        8.1859237474  CLST         285          1.0000000000
       855       285  TIP3  H2           -4.7874548984        2.6574635595        9.2435411488  CLST         285          1.0000000000
       856       286  TIP3  OH2           2.9023290408        5.7841465951       -0.5620477351  CLST         286          1.0000000000
       857       286  TIP3  H1            2.0318997070        5.4858101904       -0.2252794316  CLST         286          1.0000000000
       858       286  TIP3  H2            3.4373798007        5.5234886371        0.2385987103  CLST         286          1.0000000000
       859       287  TIP3  OH2          -4.3180601027        9.2578502739       11.1780746294  CLST         287          1.0000000000
       860       287  TIP3  H1           -4.6478384597       10.0334586611       11.6900852591  CLST         287          1.0000000000
       861       287  TIP3  H2           -5.1780082458        8.8941229355       10.8692225126  CLST         287          1.0000000000
       862       288  TIP3  OH2           5.6216731154        3.4257589907       -9.4905285740  CLST         288          1.0000000000
       863       288  TIP3  H1            5.5792234438        2.7605842959      -10.1632775245  CLST         288          1.0000000000
       864       288  TIP3  H2            6.3637753275        4.0140553729       -9.8830916323  CLST         288          1.0000000000
       865       289  TIP3  OH2          -7.0410543581       -5.0689012233       -8.2370499617  CLST         289          1.0000000000
       866       289  TIP3  H1           -7.8459967882       -4.4600796178       -8.2007802663  CLST         289          1.0000000000
       867       289  TIP3  H2           -6.3717975422       -4.4797555250       -7.9135420934  CLST         289          1.0000000000
       868       290  TIP3  OH2           2.1945279728      -12.0300952362       11.2439275811  CLST         290          1.0000000000
       869       290  TIP3  H1            2.7607354059      -12.7872872367       11.4176629844  CLST         290          1.0000000000
       870       290  TIP3  H2            2.5138109158      -11.4343514508       11.9430133974  CLST         290          1.0000000000
       871       291  TIP3  OH2         -10.2807640251       -3.5431115033        2.8731088544  CLST         291          1.0000000000
       872       291  TIP3  H1          -10.9430711448       -4.0919565540        3.3716452659  CLST         291          1.0000000000
       873       291  TIP3  H2          -10.6252641386       -3.7662541254        1.9993002282  CLST         291          1.0000000000
       874       292  TIP3  OH2          12.1146356585        3.4706835697       -4.6750191170  CLST         292          1.0000000000
       875       292  TIP3  H1           11.2379342095        3.0416643881       -4.7078150350  CLST         292          1.0000000000
       876       292  TIP3  H2           11.9241461322        4.2495772161       -5.2583962317  CLST         292          1.0000000000
       877       293  TIP3  OH2           9.0535467402       10.5865475595       11.1749234556  CLST         293          1.0000000000
       878       293  TIP3  H1            8.5757975506       11.3166192688       11.5884876960  CLST         293          1.0000000000
       879       293  TIP3  H2            9.2155798799       11.0701850488       10.3159592852  CLST         293          1.0000000000
       880       294  TIP3  OH2           4.1431742607        4.5443558444       -2.4964585734  CLST         294          1.0000000000
       881       294  TIP3  H1            3.6154688445        5.1097021757       -1.8600205559  CLST         294          1.0000000000
       882       294  TIP3  H2            4.4471478792        5.1612762082       -3.1884860199  CLST         294          1.0000000000
       883       295  TIP3  OH2          -2.3954753773      -13.4889663633       -8.6873859777  CLST         295          1.0000000000
       884       295  TIP3  H1           -3.1389563239      -13.5721419831       -8.0556640270  CLST         295          1.0000000000
       885       295  TIP3  H2           -1.6773814029      -13.5018095907       -8.0173158778  CLST         295          1.0000000000
       886       296  TIP3  OH2          -1.5718454906       11.5393512621      -13.0196247735  CLST         296          1.0000000000
       887       296  TIP3  H1           -0.6065889742       11.4602036330      -13.1753257112  CLST         296          1.0000000000
       888       296  TIP3  H2           -1.5739529204       11.2334887449      -12.0851594531  CLST         296          1.0000000000
       889       297  TIP3  OH2           8.0930176620       -0.4631563529       11.3538706292  CLST         297          1.0000000000
       890       297  TIP3  H1            8.7005212776       -1.1942824958       11.1036387378  CLST         297          1.0000000000
       891       297  TIP3  H2            7.2784790685       -0.9848832486       11.5214067386  CLST         297          1.0000000000
       892       298  TIP3  OH2           1.0295206039       -1.3471166239       -7.4595494209  CLST         298          1.0000000000
       893       298  TIP3  H1            1.4265115858       -0.6472425130       -8.0589273582  CLST         298          1.0000000000
       894       298  TIP3  H2            0.9399775297       -2.0369007171       -8.2001672450  CLST         298          1.0000000000
       895       299  TIP3  OH2           2.9948645075       10.2276516300       12.7439196929  CLST         299          1.0000000000
       896       299  TIP3  H1            2.2270477733       10.7148530506       12.3159740436  CLST         299          1.0000000000
       897       299  TIP3  H2            2.4881864984        9.4468380105       12.8559092262  CLST         299          1.0000000000
       898       300  TIP3  OH2         -10.7957990402        5.2093971830       -3.6820160557  CLST         300          1.0000000000
       899       300  TIP3  H1          -10.9600260771        5.5317345516       -4.5903025775  CLST         300          1.0000000000
       900       300  TIP3  H2          -10.8098011570        6.1061146660       -3.2448173407  CLST         300          1.0000000000
       901       301  TIP3  OH2           9.6438833699       -8.2427414960       11.3440876630  CLST         301          1.0000000000
       902       301  TIP3  H1            9.3607208794       -7.8410478178       12.2071106265  CLST         301          1.0000000000
       903       301  TIP3  H2            9.5056902934       -9.2017641703       11.5801636911  CLST         301          1.0000000000
       904       302  TIP3  OH2           7.8007785534       12.8072718329        5.4330075240  CLST         302          1.0000000000
       905       302  TIP3  H1            7.1338502570       13.4339269727        5.0587598859  CLST         302          1.0000000000
       906       302  TIP3  H2            7.1119987737       12.1690142338        5.7220832302  CLST         302          1.0000000000
       907       303  TIP3  OH2         -10.8936921989        1.3312793196       -1.9903817279  CLST         303          1.0000000000
       908       303  TIP3  H1          -10.0279781917        1.0155700757       -1.6355608551  CLST         303          1.0000000000
       909       303  TIP3  H2          -10.9688573449        0.7797304484       -2.8190896316  CLST         303          1.0000000000
       910       304  TIP3  OH2          -8.0259662855        1.1924362043      -14.9157280496  CLST         304          1.0000000000
       911       304  TIP3  H1           -7.6202897710        0.4035273520      -14.4650547889  CLST         304          1.0000000000
       912       304  TIP3  H2           -7.5509936123        1.2702506424      -15.7299262964  CLST         304          1.0000000000
       913       305  TIP3  OH2           3.4448006301       -3.8661099205       13.9025525088  CLST         305          1.0000000000
       914       305  TIP3  H1            4.2962730583       -3.9284653264       13.4430978069  CLST         305          1.0000000000
       915       305  TIP3  H2            3.5093809893       -2.9328588024       14.1369460594  CLST         305          1.0000000000
       916       306  TIP3  OH2           8.8327986262      -11.9819455278      -11.2165789419  CLST         306          1.0000000000
       917       306  TIP3  H1            9.3789339941      -12.0007014886      -12.0192928711  CLST         306          1.0000000000
       918       306  TIP3  H2            9.1259110618      -12.7255983272      -10.7414832397  CLST         306          1.0000000000
       919       307  TIP3  OH2           9.1931805864        7.8879490697       -7.6054586656  CLST         307          1.0000000000
       920       307  TIP3  H1            8.2701343958        8.2177540559       -7.6630808707  CLST         307          1.0000000000
       921       307  TIP3  H2            9.5012827199        8.2371190771       -6.7533209517  CLST         307          1.0000000000
       922       308  TIP3  OH2         -10.8592239863       -4.7864017293        8.8153049835  CLST         308          1.0000000000
       923       308  TIP3  H1          -10.9404395703       -5.4480150988        9.5684384609  CLST         308          1.0000000000
       924       308  TIP3  H2           -9.9372972796       -4.4814838407        9.0578201287  CLST         308          1.0000000000
       925       309  TIP3  OH2          -1.9621297143       -0.5033547663        5.5234907640  CLST         309          1.0000000000
       926       309  TIP3  H1           -2.7925761487       -0.7359656092        5.0483429681  CLST         309          1.0000000000
       927       309  TIP3  H2           -2.1541565962       -1.0313380722        6.3323388304  CLST         309          1.0000000000
       928       310  TIP3  OH2          -5.0058925835       -0.5684584285        7.3017804890  CLST         310          1.0000000000
       929       310  TIP3  H1           -4.1588512817       -0.1262275728        7.5289266757  CLST         310          1.0000000000
       930       310  TIP3  H2           -5.0798687936       -1.1982218805        8.0685644338  CLST         310          1.0000000000
       931       311  TIP3  OH2          -7.2280001985        8.3778517301      -12.2811898263  CLST         311          1.0000000000
       932       311  TIP3  H1           -6.7688048965        7.6192994373      -12.7341504793  CLST         311          1.0000000000
       933       311  TIP3  H2           -7.2422071309        8.0355868606      -11.3806178459  CLST         311          1.0000000000
       934       312  TIP3  OH2           6.4813156353       -0.9020355432       -6.2718790351  CLST         312          1.0000000000
       935       312  TIP3  H1            6.0755065351       -0.1246589335       -5.8422487046  CLST         312          1.0000000000
       936       312  TIP3  H2            6.3355517088       -1.5594983249       -5.5661414194  CLST         312          1.0000000000
       937       313  TIP3  OH2          -8.9171784257      -10.7306462830        7.0842138284  CLST         313          1.0000000000
       938       313  TIP3  H1           -8.3849760999       -9.9031069314        7.0811234724  CLST         313          1.0000000000
       939       313  TIP3  H2           -9.3585337676      -10.6101737939        6.1970952491  CLST         313          1.0000000000
       940       314  TIP3  OH2          -1.5026860062      -12.1291818396      -10.8216398395  CLST         314          1.0000000000
       941       314  TIP3  H1           -1.3025795342      -11.3773203600      -10.2028590336  CLST         314          1.0000000000
       942       314  TIP3  H2           -1.9506963754      -12.6957536266      -10.1236992461  CLST         314          1.0000000000
       943       315  TIP3  OH2          -1.4376583300       -0.6782679313       -6.3688533870  CLST         315          1.0000000000
       944       315  TIP3  H1           -0.5503009557       -1.0686073038       -6.5922919715  CLST         315          1.0000000000
       945       315  TIP3  H2           -1.2154286256       -0.2987078735       -5.4712808023  CLST         315          1.0000000000
       946       316  TIP3  OH2         -13.3638194902       -3.8633780088       -5.4294653855  CLST         316          1.0000000000
       947       316  TIP3  H1          -12.5755653218       -4.4053288558       -5.6587562236  CLST         316          1.0000000000
       948       316  TIP3  H2          -12.9620590621       -3.0156808929       -5.7100485003  CLST         316          1.0000000000
       949       317  TIP3  OH2          -6.1139401795       -0.0667764111       -3.8068149931  CLST         317          1.0000000000
       950       317  TIP3  H1           -5.2213397825       -0.0998422615       -3.3499801941  CLST         317          1.0000000000
       951       317  TIP3  H2           -6.5570643057        0.4249749286       -3.0699617747  CLST         317          1.0000000000
       952       318  TIP3  OH2          -3.9646918114       -9.5859438692       -9.3888326536  CLST         318          1.0000000000
       953       318  TIP3  H1           -4.2345970757       -9.6815930997       -8.4248203801  CLST         318          1.0000000000
       954       318  TIP3  H2           -2.9913390693       -9.6986734748       -9.2354095111  CLST         318          1.0000000000
       955       319  TIP3  OH2           5.6254576566       10.8164734405        8.6972035905  CLST         319          1.0000000000
       956       319  TIP3  H1            6.2265901629       10.1499106069        8.3160389827  CLST         319          1.0000000000
       957       319  TIP3  H2            6.2431920272       11.1332012768        9.3666164389  CLST         319          1.0000000000
       958       320  TIP3  OH2         -10.6433643392        1.0538602361      -14.5782323985  CLST         320          1.0000000000
       959       320  TIP3  H1           -9.7568605525        1.2309066769      -14.9749349845  CLST         320          1.0000000000
       960       320  TIP3  H2          -10.3610101688        0.2218529039      -14.1227770465  CLST         320          1.0000000000
       961       321  TIP3  OH2          -9.9340492935       10.2426360123       -9.7383269121  CLST         321          1.0000000000
       962       321  TIP3  H1          -10.8073260630        9.9543096347       -9.7031293357  CLST         321          1.0000000000
       963       321  TIP3  H2           -9.8289209745       10.1506014302      -10.7349501755  CLST         321          1.0000000000
       964       322  TIP3  OH2         -12.7332228330       -1.6962606702       -2.4827764218  CLST         322          1.0000000000
       965       322  TIP3  H1          -12.2502172690       -1.1503690142       -3.1631647858  CLST         322          1.0000000000
       966       322  TIP3  H2          -11.9485557769       -1.9451108232       -1.9456280924  CLST         322          1.0000000000
       967       323  TIP3  OH2          -1.0755882846        3.9955215449        4.2438829493  CLST         323          1.0000000000
       968       323  TIP3  H1           -0.7416797203        3.1068524854        4.4960792126  CLST         323          1.0000000000
       969       323  TIP3  H2           -1.0262880124        3.9172415497        3.2636374364  CLST         323          1.0000000000
       970       324  TIP3  OH2         -11.0177284576        6.3527063971        1.4930817619  CLST         324          1.0000000000
       971       324  TIP3  H1          -10.9892484209        5.4733516390        1.9352734976  CLST         324          1.0000000000
       972       324  TIP3  H2          -10.3294143446        6.7862869514        2.0876796230  CLST         324          1.0000000000
       973       325  TIP3  OH2          -4.5589482568        0.8671040377        3.6090339913  CLST         325          1.0000000000
       974       325  TIP3  H1           -5.5629001627        0.9018848044        3.5985539304  CLST         325          1.0000000000
       975       325  TIP3  H2           -4.3454784145        1.7023244854        3.1956270395  CLST         325          1.0000000000
       976       326  TIP3  OH2           9.1077163075        8.6728195382       -2.7134641203  CLST         326          1.0000000000
       977       326  TIP3  H1            8.8727478757        7.7461282475       -2.4515085383  CLST         326          1.0000000000
       978       326  TIP3  H2            8.4555359877        8.7160973168       -3.4524107500  CLST         326          1.0000000000
       979       327  TIP3  OH2          10.3978187664       -3.6824844912      -13.0881329359  CLST         327          1.0000000000
       980       327  TIP3  H1           10.1794455633       -3.2033674589      -13.8353452097  CLST         327          1.0000000000
       981       327  TIP3  H2           10.0526546518       -3.0788507137      -12.3610066193  CLST         327          1.0000000000
       982       328  TIP3  OH2           2.1788432056        6.9642727912       -9.7847265212  CLST         328          1.0000000000
       983       328  TIP3  H1            2.2732873105        6.1041444307       -9.3257451088  CLST         328          1.0000000000
       984       328  TIP3  H2            3.1284617093        7.0423163557       -9.9981642309  CLST         328          1.0000000000
       985       329  TIP3  OH2           1.4069018490      -11.7057668931       -2.2918298080  CLST         329          1.0000000000
       986       329  TIP3  H1            1.5281224441      -10.7983240364       -2.7062651979  CLST         329          1.0000000000
       987       329  TIP3  H2            2.2779562924      -11.6850346682       -1.8091576332  CLST         329          1.0000000000
       988       330  TIP3  OH2          -9.3926841011       -0.9687277729        3.4264959807  CLST         330          1.0000000000
       989       330  TIP3  H1           -9.7164162950       -1.9063555069        3.2998708461  CLST         330          1.0000000000
       990       330  TIP3  H2          -10.1367007565       -0.5935510244        3.9455033667  CLST         330          1.0000000000
       991       331  TIP3  OH2          12.3817143403        9.7371801079       -9.0888115114  CLST         331          1.0000000000
       992       331  TIP3  H1           13.0992574523        9.8641631890       -9.6434298761  CLST         331          1.0000000000
       993       331  TIP3  H2           12.4005301964        8.7586810766       -8.9277932723  CLST         331          1.0000000000
       994       332  TIP3  OH2          11.3004445618       -1.3161076082       -4.5315109446  CLST         332          1.0000000000
       995       332  TIP3  H1           12.1190050590       -1.6004063781       -5.0189144641  CLST         332          1.0000000000
       996       332  TIP3  H2           11.6478399012       -0.4848077366       -4.1676901067  CLST         332          1.0000000000
       997       333  TIP3  OH2          10.5762960152      -14.2529009408        8.0209893139  CLST         333          1.0000000000
       998       333  TIP3  H1            9.6493597470      -14.2692883401        8.2422665185  CLST         333          1.0000000000
       999       333  TIP3  H2           10.5570812892      -14.2740809654        7.0536537574  CLST         333          1.0000000000
      1000       334  TIP3  OH2         -10.6190428740       -9.6938729398        9.1534860882  CLST         334          1.0000000000
      1001       334  TIP3  H1          -11.5198576589       -9.8052911743        8.7752847498  CLST         334          1.0000000000
      1002       334  TIP3  H2          -10.1746309570      -10.2159965718        8.4458273649  CLST         334          1.0000000000
      1003       335  TIP3  OH2           6.7904018925      -10.0652914230        1.4459811057  CLST         335          1.0000000000
      1004       335  TIP3  H1            6.8235179659      -10.3652283739        2.3829270524  CLST         335          1.0000000000
      1005       335  TIP3  H2            5.8243170042       -9.8654695429        1.3819685802  CLST         335          1.0000000000
      1006       336  TIP3  OH2          -9.3134660138       -3.7505681684       -3.6350104324  CLST         336          1.0000000000
      1007       336  TIP3  H1           -8.9104528977       -4.4707921083       -4.1424669753  CLST         336          1.0000000000
      1008       336  TIP3  H2           -8.7970293469       -2.9809347008       -3.9221274357  CLST         336          1.0000000000
      1009       337  TIP3  OH2          -1.5228347207       -4.9754187031        8.0319152487  CLST         337          1.0000000000
      1010       337  TIP3  H1           -1.0543294483       -4.8348171939        8.8789960913  CLST         337          1.0000000000
      1011       337  TIP3  H2           -1.8302674912       -4.0214170537        7.9424178792  CLST         337          1.0000000000
      1012       338  TIP3  OH2          -0.4637860605        2.7162950988       10.7447344627  CLST         338          1.0000000000
      1013       338  TIP3  H1           -0.5389927840        2.7457535370        9.7640744238  CLST         338          1.0000000000
      1014       338  TIP3  H2           -0.1084495630        1.8212484662       10.8150916358  CLST         338          1.0000000000
      1015       339  TIP3  OH2           7.9530830594        7.9630730268        2.8262576575  CLST         339          1.0000000000
      1016       339  TIP3  H1            7.6061952343        8.6877694864        3.4315969324  CLST         339          1.0000000000
      1017       339  TIP3  H2            7.2378123227        7.9376853224        2.1386784607  CLST         339          1.0000000000
      1018       340  TIP3  OH2          -4.6529246391      -11.7230365940      -11.1853773919  CLST         340          1.0000000000
      1019       340  TIP3  H1           -4.3313619667      -10.9694869503      -10.6378491770  CLST         340          1.0000000000
      1020       340  TIP3  H2           -4.2269418469      -12.4554690455      -10.7174922568  CLST         340          1.0000000000
      1021       341  TIP3  OH2          -6.7460104228        4.6437554517        9.3451256887  CLST         341          1.0000000000
      1022       341  TIP3  H1           -5.7967489694        4.4127351759        9.4600440216  CLST         341          1.0000000000
      1023       341  TIP3  H2           -7.2038023801        3.9153030330        9.7770887412  CLST         341          1.0000000000
      1024       342  TIP3  OH2          -4.4827890875      -11.0170921138       13.9780017916  CLST         342          1.0000000000
      1025       342  TIP3  H1           -5.1979695424      -10.9888288235       13.3220542555  CLST         342          1.0000000000
      1026       342  TIP3  H2           -4.9250273352      -10.7268715306       14.7347930265  CLST         342          1.0000000000
      1027       343  TIP3  OH2           1.3676915783       -8.9281164636       -9.9026652828  CLST         343          1.0000000000
      1028       343  TIP3  H1            1.2349823097       -8.0269409991      -10.3167806580  CLST         343          1.0000000000
      1029       343  TIP3  H2            1.8956621025       -9.3493536759      -10.6163632554  CLST         343          1.0000000000
      1030       344  TIP3  OH2           5.5033572006       -3.9752974487        6.3902093224  CLST         344          1.0000000000
      1031       344  TIP3  H1            4.8184393228       -4.5092667334        6.8553525343  CLST         344          1.0000000000
      1032       344  TIP3  H2            6.1050064287       -4.6944188373        6.0760176396  CLST         344          1.0000000000
      1033       345  TIP3  OH2          13.1632598253        7.2701514578        8.8351873519  CLST         345          1.0000000000
      1034       345  TIP3  H1           12.5710909049        6.7745997923        8.2670164195  CLST         345          1.0000000000
      1035       345  TIP3  H2           12.5913225988        7.3584370838        9.6539134845  CLST         345          1.0000000000
      1036       346  TIP3  OH2           9.4575892065        9.2242599885        0.9196824947  CLST         346          1.0000000000
      1037       346  TIP3  H1            9.7773452878       10.0014474270        1.4395265289  CLST         346          1.0000000000
      1038       346  TIP3  H2            9.0742467989        8.6917768075        1.6603017148  CLST         346          1.0000000000
      1039       347  TIP3  OH2          -4.9183177753        2.8730775461       -9.6498309582  CLST         347          1.0000000000
      1040       347  TIP3  H1           -5.6679268798        3.3302835629       -9.1950512571  CLST         347          1.0000000000
      1041       347  TIP3  H2           -4.2947521166        2.8946305299       -8.8856322157  CLST         347          1.0000000000
      1042       348  TIP3  OH2          -1.2759262725        6.1442101491        5.8287100552  CLST         348          1.0000000000
      1043       348  TIP3  H1           -1.3837451512        5.2548072956        5.3433357607  CLST         348          1.0000000000
      1044       348  TIP3  H2           -0.8826910615        6.5802085765        5.0169885900  CLST         348          1.0000000000
      1045       349  TIP3  OH2          -4.0974462045        5.0307601254       -2.5649451125  CLST         349          1.0000000000
      1046       349  TIP3  H1           -3.8293515310        4.9240098868       -3.5151186076  CLST         349          1.0000000000
      1047       349  TIP3  H2           -3.4262372080        5.7692123040       -2.4226139762  CLST         349          1.0000000000
      1048       350  TIP3  OH2          -2.5772496934        8.8614472953        5.2820770265  CLST         350          1.0000000000
      1049       350  TIP3  H1           -3.1433350560        8.6301088981        4.5080817579  CLST         350          1.0000000000
      1050       350  TIP3  H2           -2.5504296969        8.0389761062        5.7827984999  CLST         350          1.0000000000
      1051       351  TIP3  OH2           4.8588675929       -7.5559828674       -7.6830616172  CLST         351          1.0000000000
      1052       351  TIP3  H1            4.1120182140       -8.1848907624       -7.6080847208  CLST         351          1.0000000000
      1053       351  TIP3  H2            4.8286386436       -7.3706811037       -8.6622137769  CLST         351          1.0000000000
      1054       352  TIP3  OH2         -10.3545909625      -10.9873712704        1.6768064677  CLST         352          1.0000000000
      1055       352  TIP3  H1           -9.3818125578      -11.0603370780        1.6045738475  CLST         352          1.0000000000
      1056       352  TIP3  H2          -10.5840311456      -10.3115471398        0.9995594754  CLST         352          1.0000000000
      1057       353  TIP3  OH2          10.8597744464       -8.1036314493       -8.6224226276  CLST         353          1.0000000000
      1058       353  TIP3  H1            9.8977709550       -8.2834344471       -8.7305378409  CLST         353          1.0000000000
      1059       353  TIP3  H2           11.1004531263       -8.5746511154       -7.8268621060  CLST         353          1.0000000000
      1060       354  TIP3  OH2           6.8393309872      -10.5982894276        4.0608004434  CLST         354          1.0000000000
      1061       354  TIP3  H1            7.4820676280      -10.8603250113        4.7846184472  CLST         354          1.0000000000
      1062       354  TIP3  H2            6.5170939442       -9.7856524983        4.5413269316  CLST         354          1.0000000000
      1063       355  TIP3  OH2          -7.1871304845        9.0574412556       -8.8267008555  CLST         355          1.0000000000
      1064       355  TIP3  H1           -6.4092360390        9.6229445337       -8.9868899851  CLST         355          1.0000000000
      1065       355  TIP3  H2           -7.9073574068        9.6218721014       -9.1798332271  CLST         355          1.0000000000
      1066       356  TIP3  OH2          12.4925826882        0.9764005484       -1.9985711639  CLST         356          1.0000000000
      1067       356  TIP3  H1           11.5398848200        0.7348260906       -2.1680388229  CLST         356          1.0000000000
      1068       356  TIP3  H2           12.6768509855        0.4429938596       -1.2096948508  CLST         356          1.0000000000
      1069       357  TIP3  OH2          -0.6512350336       -0.5439144507       -1.8315171707  CLST         357          1.0000000000
      1070       357  TIP3  H1            0.1464405785       -1.0528963544       -2.1325142005  CLST         357          1.0000000000
      1071       357  TIP3  H2           -0.8607164978       -0.1847296784       -2.7230974708  CLST         357          1.0000000000
      1072       358  TIP3  OH2          -5.5692215248        7.0158232477       -7.6120873158  CLST         358          1.0000000000
      1073       358  TIP3  H1           -6.3122778506        7.4428341186       -8.1079107862  CLST         358          1.0000000000
      1074       358  TIP3  H2           -6.1406663275        6.6055319172       -6.9160402161  CLST         358          1.0000000000
      1075       359  TIP3  OH2          -5.1169877278       12.1566121583        6.0846616771  CLST         359          1.0000000000
      1076       359  TIP3  H1           -5.4673542443       11.8884525938        5.2162358805  CLST         359          1.0000000000
      1077       359  TIP3  H2           -4.1864826520       12.3642243590        5.8654562993  CLST         359          1.0000000000
      1078       360  TIP3  OH2          -6.9076123749        5.8494106732       -3.3126410632  CLST         360          1.0000000000
      1079       360  TIP3  H1           -7.1499109868        6.6922455115       -2.8827475656  CLST         360          1.0000000000
      1080       360  TIP3  H2           -6.0094435977        5.7095927822       -2.9280340758  CLST         360          1.0000000000
      1081       361  TIP3  OH2          -1.6100128560       -0.9647456232        9.9384070439  CLST         361          1.0000000000
      1082       361  TIP3  H1           -1.5709194521       -0.4419155932       10.7753388519  CLST         361          1.0000000000
      1083       361  TIP3  H2           -1.7202510083       -1.8718350100       10.3208868485  CLST         361          1.0000000000
      1084       362  TIP3  OH2         -10.5945574427        2.7987090279        0.5019560671  CLST         362          1.0000000000
      1085       362  TIP3  H1          -10.6454189632        3.2866405567       -0.3421959894  CLST         362          1.0000000000
      1086       362  TIP3  H2          -11.3022606925        2.1377564885        0.3594232696  CLST         362          1.0000000000
      1087       363  TIP3  OH2          10.5617184126        2.6460621523       10.1631333297  CLST         363          1.0000000000
      1088       363  TIP3  H1           10.6411120480        1.7487051275        9.7840800967  CLST         363          1.0000000000
      1089       363  TIP3  H2           11.3536958998        2.6774352876       10.6958401672  CLST         363          1.0000000000
      1090       364  TIP3  OH2           7.6237731895       -5.6191712738       -6.2646466636  CLST         364          1.0000000000
      1091       364  TIP3  H1            6.8355019512       -5.1920460571       -6.6926081313  CLST         364          1.0000000000
      1092       364  TIP3  H2            8.2553731110       -5.6102062336       -7.0434026666  CLST         364          1.0000000000
      1093       365  TIP3  OH2          -6.1584439994       -6.7830460715        2.6495179790  CLST         365          1.0000000000
      1094       365  TIP3  H1           -6.4860465556       -6.0507998206        2.1233110051  CLST         365          1.0000000000
      1095       365  TIP3  H2           -6.9784124902       -7.3347770600        2.7796921628  CLST         365          1.0000000000
      1096       366  TIP3  OH2           1.9095522519       -1.4299103050       -2.9544822986  CLST         366          1.0000000000
      1097       366  TIP3  H1            2.8521406267       -1.4419679514       -2.6184404671  CLST         366          1.0000000000
      1098       366  TIP3  H2            2.0479050221       -0.9639695883       -3.8125128293  CLST         366          1.0000000000
      1099       367  TIP3  OH2          -5.2070142850       11.7276520855       12.4007206986  CLST         367          1.0000000000
      1100       367  TIP3  H1           -6.1816581275       11.6758297963       12.3029470103  CLST         367          1.0000000000
      1101       367  TIP3  H2           -5.0333753008       12.5197979548       12.8126677597  CLST         367          1.0000000000
      1102       368  TIP3  OH2          -2.6030460824        6.5472632865        1.0740635874  CLST         368          1.0000000000
      1103       368  TIP3  H1           -2.7941677166        7.2520258414        0.3970779550  CLST         368          1.0000000000
      1104       368  TIP3  H2           -2.7072393110        7.1439723136        1.8552485595  CLST         368          1.0000000000
      1105       369  TIP3  OH2         -11.5604553854       -1.7658606221       -6.4750051039  CLST         369          1.0000000000
      1106       369  TIP3  H1          -10.6315735701       -2.0539242397       -6.3960479324  CLST         369          1.0000000000
      1107       369  TIP3  H2          -11.7416225631       -2.1986295654       -7.3580858325  CLST         369          1.0000000000
      1108       370  TIP3  OH2         -12.0875313323        5.5707039303      -11.6011455606  CLST         370          1.0000000000
      1109       370  TIP3  H1          -12.4584069129        4.9892630026      -12.3064522178  CLST         370          1.0000000000
      1110       370  TIP3  H2          -12.6913980193        5.6655213862      -10.9677195201  CLST         370          1.0000000000
      1111       371  TIP3  OH2           2.1720483561        7.9399175634        5.8355613004  CLST         371          1.0000000000
      1112       371  TIP3  H1            2.0410888427        7.6060394905        6.7472477706  CLST         371          1.0000000000
      1113       371  TIP3  H2            3.1450515092        7.9087113111        5.7952274353  CLST         371          1.0000000000
      1114       372  TIP3  OH2           8.1323347660       -7.3986529084        9.0333650931  CLST         372          1.0000000000
      1115       372  TIP3  H1            8.6420927256       -7.3541486500        8.2140394498  CLST         372          1.0000000000
      1116       372  TIP3  H2            8.8362463320       -7.6706462510        9.6765822467  CLST         372          1.0000000000
      1117       373  TIP3  OH2          11.0381316834       -0.4431956917        6.4656984465  CLST         373          1.0000000000
      1118       373  TIP3  H1           11.2173099276        0.3367996190        5.9238207218  CLST         373          1.0000000000
      1119       373  TIP3  H2           10.2776714756       -0.8374161219        6.0645076081  CLST         373          1.0000000000
      1120       374  TIP3  OH2          -9.3809624215        4.7266048520      -12.2157316933  CLST         374          1.0000000000
      1121       374  TIP3  H1           -9.6740756573        5.2907450601      -12.9303487552  CLST         374          1.0000000000
      1122       374  TIP3  H2          -10.2099982281        4.8293916271      -11.7018051202  CLST         374          1.0000000000
      1123       375  TIP3  OH2           9.8088284916       -5.4369136522       -2.7901614189  CLST         375          1.0000000000
      1124       375  TIP3  H1           10.3487329741       -5.1013172165       -3.5443647942  CLST         375          1.0000000000
      1125       375  TIP3  H2            9.9138741301       -6.4011765984       -2.9725328333  CLST         375          1.0000000000
      1126       376  TIP3  OH2          -2.2284207439      -11.1630652953       12.0600054006  CLST         376          1.0000000000
      1127       376  TIP3  H1           -2.8236317295      -11.5474013282       12.7535106741  CLST         376          1.0000000000
      1128       376  TIP3  H2           -2.9345599613      -10.9165171082       11.4397871429  CLST         376          1.0000000000
      1129       377  TIP3  OH2         -10.0424285091       12.9537610085       10.4158593877  CLST         377          1.0000000000
      1130       377  TIP3  H1           -9.1622063172       12.4996833691       10.5617932510  CLST         377          1.0000000000
      1131       377  TIP3  H2           -9.8655440982       13.3677646855        9.5461332384  CLST         377          1.0000000000
      1132       378  TIP3  OH2           2.0792797380       -7.9601738479        7.2866977652  CLST         378          1.0000000000
      1133       378  TIP3  H1            2.1345453528       -7.0655041307        7.6411375498  CLST         378          1.0000000000
      1134       378  TIP3  H2            1.4469752917       -8.4314720843        7.8427460130  CLST         378          1.0000000000
      1135       379  TIP3  OH2          -9.4212861560        9.3206396785       -1.1465054843  CLST         379          1.0000000000
      1136       379  TIP3  H1           -8.9911187158        9.3856419019       -0.2721842944  CLST         379          1.0000000000
      1137       379  TIP3  H2           -9.5647965704       10.2655097345       -1.3817101343  CLST         379          1.0000000000
      1138       380  TIP3  OH2           2.9756600921       -4.1971835796      -11.2237322254  CLST         380          1.0000000000
      1139       380  TIP3  H1            2.5303473531       -3.3979593801      -11.6522657531  CLST         380          1.0000000000
      1140       380  TIP3  H2            3.4471919260       -4.5295957726      -12.0134477446  CLST         380          1.0000000000
      1141       381  TIP3  OH2          10.0818158242        4.1895411473        3.3493724693  CLST         381          1.0000000000
      1142       381  TIP3  H1            9.4313559440        4.8129869956        3.7715310332  CLST         381          1.0000000000
      1143       381  TIP3  H2           10.7556569631        4.8759653975        3.1299082707  CLST         381          1.0000000000
      1144       382  TIP3  OH2           1.9347802268       -5.3599461078        5.6618398910  CLST         382          1.0000000000
      1145       382  TIP3  H1            2.5801419462       -5.3422948732        6.4083627034  CLST         382          1.0000000000
      1146       382  TIP3  H2            2.5025630233       -5.9843792750        5.1237535620  CLST         382          1.0000000000
      1147       383  TIP3  OH2          10.1731454980        8.9426661436        4.7442011928  CLST         383          1.0000000000
      1148       383  TIP3  H1            9.3513976625        8.9966576714        4.2140856719  CLST         383          1.0000000000
      1149       383  TIP3  H2           10.2185409040        9.8913496326        4.9994872814  CLST         383          1.0000000000
      1150       384  TIP3  OH2          -3.2891553753       -1.7255746511       -8.2646214442  CLST         384          1.0000000000
      1151       384  TIP3  H1           -2.8427784919       -2.6113026112       -8.2805408671  CLST         384          1.0000000000
      1152       384  TIP3  H2           -2.7283420750       -1.2864182681       -7.5648191381  CLST         384          1.0000000000
      1153       385  TIP3  OH2           3.6993853779      -11.7427778392       -0.6928044976  CLST         385          1.0000000000
      1154       385  TIP3  H1            4.6424218283      -12.1344295272       -0.5947289873  CLST         385          1.0000000000
      1155       385  TIP3  H2            3.8610234927      -10.9064085421       -0.1878713740  CLST         385          1.0000000000
      1156       386  TIP3  OH2          -4.2825492598        9.3470154909       -6.1324906738  CLST         386          1.0000000000
      1157       386  TIP3  H1           -4.6966590581        8.5005040779       -6.4144047647  CLST         386          1.0000000000
      1158       386  TIP3  H2           -4.2915109805        9.7814172896       -7.0159238181  CLST         386          1.0000000000
      1159       387  TIP3  OH2          -9.8177310115       10.6145963226        2.7636018039  CLST         387          1.0000000000
      1160       387  TIP3  H1          -10.6401918013       10.3671964784        2.2573635087  CLST         387          1.0000000000
      1161       387  TIP3  H2           -9.1434470468       10.3180020968        2.0896556987  CLST         387          1.0000000000
      1162       388  TIP3  OH2          -1.7631890453      -12.3256373566        5.9686243761  CLST         388          1.0000000000
      1163       388  TIP3  H1           -2.3068103402      -11.5412046847        5.6938160601  CLST         388          1.0000000000
      1164       388  TIP3  H2           -1.7644211830      -12.1512586628        6.9454253733  CLST         388          1.0000000000
      1165       389  TIP3  OH2          -8.1513092581        3.3707483717       -3.6312658893  CLST         389          1.0000000000
      1166       389  TIP3  H1           -7.5826146016        4.1759319550       -3.5319843650  CLST         389          1.0000000000
      1167       389  TIP3  H2           -8.9668109736        3.7929415689       -3.2720095313  CLST         389          1.0000000000
      1168       390  TIP3  OH2          -5.8624075792       -3.9873638631        4.5435123993  CLST         390          1.0000000000
      1169       390  TIP3  H1           -5.4904267105       -3.0546982661        4.4865731656  CLST         390          1.0000000000
      1170       390  TIP3  H2           -5.0524648044       -4.4501080250        4.3275002287  CLST         390          1.0000000000
      1171       391  TIP3  OH2          -8.7978498695       -8.8667758102       -6.1900684731  CLST         391          1.0000000000
      1172       391  TIP3  H1           -9.1672638250       -9.5821274084       -6.7476918381  CLST         391          1.0000000000
      1173       391  TIP3  H2           -8.1007065695       -9.3817573079       -5.7144184777  CLST         391          1.0000000000
      1174       392  TIP3  OH2           0.9562794468       -1.9274956820       10.0504678824  CLST         392          1.0000000000
      1175       392  TIP3  H1            0.5534685603       -2.8148856585        9.9902756650  CLST         392          1.0000000000
      1176       392  TIP3  H2            0.1179919066       -1.4243541786        9.8470080809  CLST         392          1.0000000000
      1177       393  TIP3  OH2          10.8956030624      -12.2979629220       -0.7986620497  CLST         393          1.0000000000
      1178       393  TIP3  H1           11.2160015867      -11.3444741414       -0.7227431074  CLST         393          1.0000000000
      1179       393  TIP3  H2           11.7047647778      -12.6152480260       -1.2066864724  CLST         393          1.0000000000
      1180       394  TIP3  OH2           0.4915685116       11.9210028885       -8.5610169055  CLST         394          1.0000000000
      1181       394  TIP3  H1            0.8892375277       12.1554327115       -7.6899076328  CLST         394          1.0000000000
      1182       394  TIP3  H2            0.7400408560       10.9618367539       -8.4595390007  CLST         394          1.0000000000
      1183       395  TIP3  OH2           6.9033081189        7.5119325541       -4.4756930734  CLST         395          1.0000000000
      1184       395  TIP3  H1            6.0610498026        8.0220339145       -4.6144521497  CLST         395          1.0000000000
      1185       395  TIP3  H2            6.7938304957        6.8597140107       -5.2138205952  CLST         395          1.0000000000
      1186       396  TIP3  OH2          -1.0497033824       -9.9678259956       -9.0141816414  CLST         396          1.0000000000
      1187       396  TIP3  H1           -1.0725710170       -9.9565910083       -7.9965300490  CLST         396          1.0000000000
      1188       396  TIP3  H2           -0.1545635494       -9.5734376288       -9.1748546254  CLST         396          1.0000000000
      1189       397  TIP3  OH2          11.3762532769        7.1529142670       -8.9415334299  CLST         397          1.0000000000
      1190       397  TIP3  H1           11.3486508855        6.3455727257       -8.3750352029  CLST         397          1.0000000000
      1191       397  TIP3  H2           10.5407039946        7.5610277040       -8.5674766828  CLST         397          1.0000000000
      1192       398  TIP3  OH2          10.6244298687        7.7876394166       -4.9179713436  CLST         398          1.0000000000
      1193       398  TIP3  H1           10.3842205219        8.4055629788       -4.1874127632  CLST         398          1.0000000000
      1194       398  TIP3  H2           11.3078170538        7.2614399561       -4.3981350456  CLST         398          1.0000000000
      1195       399  TIP3  OH2           1.7440175207       11.0950736207        4.8875578822  CLST         399          1.0000000000
      1196       399  TIP3  H1            1.2524467977       10.3008625556        5.1679545729  CLST         399          1.0000000000
      1197       399  TIP3  H2            2.3480145121       11.1323925521        5.6709586984  CLST         399          1.0000000000
      1198       400  TIP3  OH2           3.9917069721       -2.9126166471       -5.0012493802  CLST         400          1.0000000000
      1199       400  TIP3  H1            4.7405917605       -2.9036944488       -4.3758289305  CLST         400          1.0000000000
      1200       400  TIP3  H2            4.3989051020       -3.4187654847       -5.7578934425  CLST         400          1.0000000000
      1201       401  TIP3  OH2         -15.3624740036       10.0312450132        5.5064195159  CLST         401          1.0000000000
      1202       401  TIP3  H1          -14.7407522325       10.5547331602        6.0636674307  CLST         401          1.0000000000
      1203       401  TIP3  H2          -15.5916672308        9.4032568979        6.2199388544  CLST         401          1.0000000000
      1204       402  TIP3  OH2           1.9213234235       -1.6109660091       12.8803920953  CLST         402          1.0000000000
      1205       402  TIP3  H1            1.8290889323       -2.5653103884       13.0436173794  CLST         402          1.0000000000
      1206       402  TIP3  H2            1.7513620730       -1.6712665584       11.9121539839  CLST         402          1.0000000000
      1207       403  TIP3  OH2          -1.9884283949       -6.9998253893       -0.8077089338  CLST         403          1.0000000000
      1208       403  TIP3  H1           -2.1627376059       -6.5084872804       -1.5414618578  CLST         403          1.0000000000
      1209       403  TIP3  H2           -1.7119257010       -7.8849484486       -1.2201371135  CLST         403          1.0000000000
      1210       404  TIP3  OH2          -4.8490172973       -2.3599877396        9.3004001165  CLST         404          1.0000000000
      1211       404  TIP3  H1           -5.1289776366       -2.6380529593       10.1963313036  CLST         404          1.0000000000
      1212       404  TIP3  H2           -5.2241964159       -3.1312287211        8.8012843690  CLST         404          1.0000000000
      1213       405  TIP3  OH2         -11.9626829929        7.2297278171       11.2948380699  CLST         405          1.0000000000
      1214       405  TIP3  H1          -11.9325308351        6.2623774637       11.1009874028  CLST         405          1.0000000000
      1215       405  TIP3  H2          -12.8190483154        7.3606661432       11.5819707298  CLST         405          1.0000000000
      1216       406  TIP3  OH2           1.0787283613        7.8791596849      -12.1579651877  CLST         406          1.0000000000
      1217       406  TIP3  H1            0.8570968233        8.8294961132      -12.2963428349  CLST         406          1.0000000000
      1218       406  TIP3  H2            1.3524287433        7.8152629727      -11.2205399426  CLST         406          1.0000000000
      1219       407  TIP3  OH2          10.3745321945      -13.4028112644        5.1411105383  CLST         407          1.0000000000
      1220       407  TIP3  H1           10.2527234237      -13.5241811040        4.1900057543  CLST         407          1.0000000000
      1221       407  TIP3  H2           11.2685889090      -13.0045051947        5.1550206513  CLST         407          1.0000000000
      1222       408  TIP3  OH2          -2.9880692845      -11.6046296302        1.9210724071  CLST         408          1.0000000000
      1223       408  TIP3  H1           -2.1655780643      -11.0585537254        1.7989791143  CLST         408          1.0000000000
      1224       408  TIP3  H2           -2.5686414518      -12.4071629049        2.2940673952  CLST         408          1.0000000000
      1225       409  TIP3  OH2           1.1785679356       -9.6225424338        9.6735784461  CLST         409          1.0000000000
      1226       409  TIP3  H1            0.7871207395       -9.1360502615       10.4288274520  CLST         409          1.0000000000
      1227       409  TIP3  H2            1.6200909018      -10.3459955889       10.1674283484  CLST         409          1.0000000000
      1228       410  TIP3  OH2           9.7779148590       -7.0894058639       -5.2390383483  CLST         410          1.0000000000
      1229       410  TIP3  H1            8.8559202435       -6.8449743670       -5.4820575774  CLST         410          1.0000000000
      1230       410  TIP3  H2           10.2014581747       -6.2767611502       -5.5987280508  CLST         410          1.0000000000
      1231       411  TIP3  OH2          -9.9533211384       -2.2516609666       -1.2621183657  CLST         411          1.0000000000
      1232       411  TIP3  H1           -9.1936780139       -2.3607214526       -0.6981753126  CLST         411          1.0000000000
      1233       411  TIP3  H2           -9.8728620011       -2.9681142998       -1.9166583394  CLST         411          1.0000000000
      1234       412  TIP3  OH2           6.7543112735      -10.5435218076      -12.0208680523  CLST         412          1.0000000000
      1235       412  TIP3  H1            5.9778642277      -10.8716366356      -11.5363013204  CLST         412          1.0000000000
      1236       412  TIP3  H2            7.4537127727      -11.2012040195      -11.7378372268  CLST         412          1.0000000000
      1237       413  TIP3  OH2           6.9737374191       13.0668080438        0.2786030829  CLST         413          1.0000000000
      1238       413  TIP3  H1            7.4890967075       12.3820869540       -0.2128587015  CLST         413          1.0000000000
      1239       413  TIP3  H2            7.7463345084       13.5792551445        0.6162847150  CLST         413          1.0000000000
      1240       414  TIP3  OH2           1.4418861562       -2.3990524937      -12.3885157383  CLST         414          1.0000000000
      1241       414  TIP3  H1            0.5136609487       -2.0909072407      -12.1730086963  CLST         414          1.0000000000
      1242       414  TIP3  H2            1.4359890249       -2.5495803734      -13.3339681180  CLST         414          1.0000000000
      1243       415  TIP3  OH2           4.1083750235        5.3503001092       -8.3128274264  CLST         415          1.0000000000
      1244       415  TIP3  H1            3.4504727891        4.6631499454       -7.9940380800  CLST         415          1.0000000000
      1245       415  TIP3  H2            4.6796019438        4.6475656312       -8.7803591349  CLST         415          1.0000000000
      1246       416  TIP3  OH2           5.5728972041       12.3675999624       -7.7654561859  CLST         416          1.0000000000
      1247       416  TIP3  H1            5.0949460794       13.0350226166       -8.2043802702  CLST         416          1.0000000000
      1248       416  TIP3  H2            6.4394093104       12.3169672668       -8.2543191715  CLST         416          1.0000000000
      1249       417  TIP3  OH2          12.6793212244      -11.2031207382        2.6735735593  CLST         417          1.0000000000
      1250       417  TIP3  H1           11.8335773009      -11.5425328006        2.3325626696  CLST         417          1.0000000000
      1251       417  TIP3  H2           12.8725846354      -10.4270447184        2.1173687073  CLST         417          1.0000000000
      1252       418  TIP3  OH2          -9.1889326444       -1.6606441521        8.3054944252  CLST         418          1.0000000000
      1253       418  TIP3  H1           -8.7820641387       -1.3064946360        7.4746230426  CLST         418          1.0000000000
      1254       418  TIP3  H2           -8.8436758536       -1.0096409991        8.9452914567  CLST         418          1.0000000000
      1255       419  TIP3  OH2          14.9697785788        0.3615484911       -6.1250157339  CLST         419          1.0000000000
      1256       419  TIP3  H1           14.4535637963        0.8118924604       -5.3776428416  CLST         419          1.0000000000
      1257       419  TIP3  H2           15.7299262964        0.9082379081       -5.8857664463  CLST         419          1.0000000000
      1258       420  TIP3  OH2          -8.1989965296       -8.2374363681        3.5533216964  CLST         420          1.0000000000
      1259       420  TIP3  H1           -8.9913342243       -7.7043875974        3.2729151395  CLST         420          1.0000000000
      1260       420  TIP3  H2           -8.5974317564       -9.1257587490        3.4484198643  CLST         420          1.0000000000
      1261       421  TIP3  OH2           3.5016141122       -6.2825360504      -13.3402629081  CLST         421          1.0000000000
      1262       421  TIP3  H1            4.4216005138       -6.5915934474      -13.2547940684  CLST         421          1.0000000000
      1263       421  TIP3  H2            3.0578089674       -7.1867945048      -13.3918468659  CLST         421          1.0000000000
      1264       422  TIP3  OH2          -1.8594261457       -9.4781693282       -1.7587312830  CLST         422          1.0000000000
      1265       422  TIP3  H1           -1.2413386627      -10.1953624511       -1.9777905257  CLST         422          1.0000000000
      1266       422  TIP3  H2           -2.7139163122       -9.9870531836       -1.7978110583  CLST         422          1.0000000000
      1267       423  TIP3  OH2           1.7672543287        4.8556812547       -3.8825025873  CLST         423          1.0000000000
      1268       423  TIP3  H1            2.5888111418        5.1981985877       -4.3354719606  CLST         423          1.0000000000
      1269       423  TIP3  H2            2.2157255449        4.3444741462       -3.1625937737  CLST         423          1.0000000000
      1270       424  TIP3  OH2          -9.0460270806        4.3850416489        4.4068520872  CLST         424          1.0000000000
      1271       424  TIP3  H1           -9.0038895603        3.7410956662        3.6700178934  CLST         424          1.0000000000
      1272       424  TIP3  H2           -8.2510241608        4.9126409628        4.2210678391  CLST         424          1.0000000000
      1273       425  TIP3  OH2           8.1653062886      -12.6675990416        8.3550849487  CLST         425          1.0000000000
      1274       425  TIP3  H1            8.3131273509      -12.6237787563        7.3915281288  CLST         425          1.0000000000
      1275       425  TIP3  H2            7.8587299494      -11.7351094957        8.4309138855  CLST         425          1.0000000000
      1276       426  TIP3  OH2           8.2633977795        2.1892379623        8.3419660095  CLST         426          1.0000000000
      1277       426  TIP3  H1            9.1604579856        1.9206776672        8.6067778176  CLST         426          1.0000000000
      1278       426  TIP3  H2            8.4622803742        3.1357573979        8.1156279573  CLST         426          1.0000000000
      1279       427  TIP3  OH2          11.5023566592        7.5865570595       10.9629381998  CLST         427          1.0000000000
      1280       427  TIP3  H1           11.2440632985        8.0087767485       11.8080572708  CLST         427          1.0000000000
      1281       427  TIP3  H2           10.6694570470        7.0985005199       10.7424822045  CLST         427          1.0000000000
      1282       428  TIP3  OH2          12.4817852942        7.7072964926        1.1764950437  CLST         428          1.0000000000
      1283       428  TIP3  H1           12.2864660878        8.3510536761        0.4391463149  CLST         428          1.0000000000
      1284       428  TIP3  H2           13.3808850377        7.5492158885        0.9066142642  CLST         428          1.0000000000
      1285       429  TIP3  OH2          11.8830636867       -9.8240326882       -0.7593543170  CLST         429          1.0000000000
      1286       429  TIP3  H1           12.4055086209       -9.3593859850       -0.0488830077  CLST         429          1.0000000000
      1287       429  TIP3  H2           11.6487697827       -9.0618998722       -1.3258534907  CLST         429          1.0000000000
      1288       430  TIP3  OH2           9.7518071842       -6.6681408855        3.5377005831  CLST         430          1.0000000000
      1289       430  TIP3  H1            9.7424614427       -7.2729180940        2.7325731484  CLST         430          1.0000000000
      1290       430  TIP3  H2           10.6491837988       -6.3084752450        3.4189162974  CLST         430          1.0000000000
      1291       431  TIP3  OH2         -12.7056546198        9.3711983582       -2.5961820931  CLST         431          1.0000000000
      1292       431  TIP3  H1          -13.5603066574        9.7466414946       -2.8013337370  CLST         431          1.0000000000
      1293       431  TIP3  H2          -13.0074699162        8.9834965878       -1.7221375270  CLST         431          1.0000000000
      1294       432  TIP3  OH2           5.4141514039        8.4442750278      -10.0600680286  CLST         432          1.0000000000
      1295       432  TIP3  H1            5.5802891299        8.8202424657       -9.1605752424  CLST         432          1.0000000000
      1296       432  TIP3  H2            4.7097661444        9.0825562845      -10.2828494114  CLST         432          1.0000000000
      1297       433  TIP3  OH2          -0.7709029090        8.1156272045        7.7785614915  CLST         433          1.0000000000
      1298       433  TIP3  H1           -1.5859056288        8.6144770872        8.0180035973  CLST         433          1.0000000000
      1299       433  TIP3  H2           -1.1029291692        7.5134137674        7.0843502665  CLST         433          1.0000000000
      1300       434  TIP3  OH2          -7.3127598823        0.6500885260        3.8501010093  CLST         434          1.0000000000
      1301       434  TIP3  H1           -7.7421791815        1.3329655313        3.2687065709  CLST         434          1.0000000000
      1302       434  TIP3  H2           -8.0394866393       -0.0492378756        3.6847951864  CLST         434          1.0000000000
      1303       435  TIP3  OH2           9.8794901433       -0.3837219902       -7.1987264641  CLST         435          1.0000000000
      1304       435  TIP3  H1            9.4598545082       -0.1666217565       -6.3514576948  CLST         435          1.0000000000
      1305       435  TIP3  H2           10.6290413621        0.2083069296       -7.1873740037  CLST         435          1.0000000000
      1306       436  TIP3  OH2           3.6866386769       10.5517753543       -9.0403867729  CLST         436          1.0000000000
      1307       436  TIP3  H1            3.9145497758       11.0949006241       -8.2577727357  CLST         436          1.0000000000
      1308       436  TIP3  H2            2.8879695847       10.1059316013       -8.6908818356  CLST         436          1.0000000000
      1309       437  TIP3  OH2          -8.4672067175       -0.8707775005       -7.9609340233  CLST         437          1.0000000000
      1310       437  TIP3  H1           -8.6551083239       -0.4884889812       -8.8540788428  CLST         437          1.0000000000
      1311       437  TIP3  H2           -7.5321972426       -0.5694173894       -7.8316322172  CLST         437          1.0000000000
      1312       438  TIP3  OH2          -3.2814697182        5.4653010655       -8.0544127059  CLST         438          1.0000000000
      1313       438  TIP3  H1           -4.1584434146        5.9606374604       -7.9737686598  CLST         438          1.0000000000
      1314       438  TIP3  H2           -3.1534446230        5.7859586194       -8.9849778862  CLST         438          1.0000000000
      1315       439  TIP3  OH2          14.3770166309        1.5682263198       -4.0524960698  CLST         439          1.0000000000
      1316       439  TIP3  H1           13.7888269267        2.3089648173       -4.2993176766  CLST         439          1.0000000000
      1317       439  TIP3  H2           13.9245236161        1.3091914628       -3.2157754828  CLST         439          1.0000000000
      1318       440  TIP3  OH2           1.2169047472      -12.9330234863      -11.2110339899  CLST         440          1.0000000000
      1319       440  TIP3  H1            0.2768837788      -12.6172289924      -11.2414972871  CLST         440          1.0000000000
      1320       440  TIP3  H2            1.1405935165      -13.8581740393      -11.0746324090  CLST         440          1.0000000000
      1321       441  TIP3  OH2          -1.5368386127       -4.2611376635        3.1724905077  CLST         441          1.0000000000
      1322       441  TIP3  H1           -1.7510984432       -3.3567732870        3.3686919667  CLST         441          1.0000000000
      1323       441  TIP3  H2           -1.3608097487       -4.6528271845        4.0702387966  CLST         441          1.0000000000
      1324       442  TIP3  OH2           3.2504409164       -9.8635125535       -7.9954838587  CLST         442          1.0000000000
      1325       442  TIP3  H1            3.9221048916      -10.2131145455       -8.6340987002  CLST         442          1.0000000000
      1326       442  TIP3  H2            2.5284858130       -9.5812916045       -8.6119505970  CLST         442          1.0000000000
      1327       443  TIP3  OH2           1.2686359866       10.3612576445      -12.9167462275  CLST         443          1.0000000000
      1328       443  TIP3  H1            1.6180764637       11.2148710398      -12.5492166727  CLST         443          1.0000000000
      1329       443  TIP3  H2            2.0846041407        9.8864444774      -13.0061981316  CLST         443          1.0000000000
      1330       444  TIP3  OH2          -7.9292352221        1.2782787460       -1.7684894791  CLST         444          1.0000000000
      1331       444  TIP3  H1           -7.9990775284        2.0447704459       -2.3924464304  CLST         444          1.0000000000
      1332       444  TIP3  H2           -7.4476761373        1.7940866661       -1.0705063264  CLST         444          1.0000000000
      1333       445  TIP3  OH2         -11.4648112541       -5.2888071677        6.1727620667  CLST         445          1.0000000000
      1334       445  TIP3  H1          -11.4456651485       -4.3229136014        5.9264676622  CLST         445          1.0000000000
      1335       445  TIP3  H2          -11.3863121840       -5.1842632383        7.1548803669  CLST         445          1.0000000000
      1336       446  TIP3  OH2          -2.9235402283        4.7131240288       -5.3520235955  CLST         446          1.0000000000
      1337       446  TIP3  H1           -2.9838772802        4.9398313151       -6.3203736503  CLST         446          1.0000000000
      1338       446  TIP3  H2           -2.0063699302        5.0944896622       -5.2243007669  CLST         446          1.0000000000
      1339       447  TIP3  OH2          -5.0699685981      -12.6810671035       -3.8123578357  CLST         447          1.0000000000
      1340       447  TIP3  H1           -5.2062283924      -13.5556180074       -3.5622275944  CLST         447          1.0000000000
      1341       447  TIP3  H2           -4.6285201039      -12.3120451723       -2.9934986412  CLST         447          1.0000000000
      1342       448  TIP3  OH2           7.2942388356        9.6707429185        4.7717105584  CLST         448          1.0000000000
      1343       448  TIP3  H1            7.5380380119        9.6003499797        5.7408253024  CLST         448          1.0000000000
      1344       448  TIP3  H2            6.5418769491       10.3285791903        4.8886290677  CLST         448          1.0000000000
      1345       449  TIP3  OH2           4.2304117998        5.1349695943        8.4074327654  CLST         449          1.0000000000
      1346       449  TIP3  H1            4.8350408521        4.5444735857        8.9313197649  CLST         449          1.0000000000
      1347       449  TIP3  H2            4.0314860156        4.6350017465        7.6000534213  CLST         449          1.0000000000
      1348       450  TIP3  OH2          -4.0960340612        0.4401041039       -1.9531018378  CLST         450          1.0000000000
      1349       450  TIP3  H1           -3.9342525604        1.2805258455       -2.4074061789  CLST         450          1.0000000000
      1350       450  TIP3  H2           -3.2341803236        0.3315698975       -1.5281775806  CLST         450          1.0000000000
      1351       451  TIP3  OH2          13.7558321407       -1.8348476346       -5.8353176909  CLST         451          1.0000000000
      1352       451  TIP3  H1           14.3274041314       -2.4301516537       -5.4176131433  CLST         451          1.0000000000
      1353       451  TIP3  H2           14.4263331447       -1.0449482171       -5.9734351602  CLST         451          1.0000000000
      1354       452  TIP3  OH2           8.4072466130        4.9688337164        8.0182961143  CLST         452          1.0000000000
      1355       452  TIP3  H1            7.6756297677        5.6485007249        8.0161380951  CLST         452          1.0000000000
      1356       452  TIP3  H2            9.0826058629        5.5061812420        7.5414496862  CLST         452          1.0000000000
      1357       453  TIP3  OH2           6.9810808848        2.8021392994       -6.0068484468  CLST         453          1.0000000000
      1358       453  TIP3  H1            6.2579259332        2.5291783412       -5.4027482617  CLST         453          1.0000000000
      1359       453  TIP3  H2            6.4640808865        2.6793058246       -6.8233114490  CLST         453          1.0000000000
      1360       454  TIP3  OH2           1.1576223339        5.4673122780        1.8887434919  CLST         454          1.0000000000
      1361       454  TIP3  H1            0.2334021884        5.1595513006        1.6863368601  CLST         454          1.0000000000
      1362       454  TIP3  H2            0.9296325038        6.0936131118        2.6227129246  CLST         454          1.0000000000
      1363       455  TIP3  OH2          -1.1615912943        0.7898198168      -10.3833872508  CLST         455          1.0000000000
      1364       455  TIP3  H1           -1.8985184637        1.1935212307       -9.8819609671  CLST         455          1.0000000000
      1365       455  TIP3  H2           -0.6118681436        1.6064671083      -10.2939866436  CLST         455          1.0000000000
      1366       456  TIP3  OH2           5.2688612777       11.3638568681        5.1977370495  CLST         456          1.0000000000
      1367       456  TIP3  H1            4.6074988899       11.5037959169        4.4798058631  CLST         456          1.0000000000
      1368       456  TIP3  H2            4.6544341224       11.2632107555        5.9678423588  CLST         456          1.0000000000
      1369       457  TIP3  OH2          -4.8759459230       -7.6713517018        4.8187452885  CLST         457          1.0000000000
      1370       457  TIP3  H1           -5.5819191277       -8.0039385239        5.3961519709  CLST         457          1.0000000000
      1371       457  TIP3  H2           -5.3739636670       -7.1698953543        4.1172578335  CLST         457          1.0000000000
      1372       458  TIP3  OH2           7.9371753574       -6.4273293442      -11.3175158970  CLST         458          1.0000000000
      1373       458  TIP3  H1            8.8888426663       -6.3001830475      -11.5953108430  CLST         458          1.0000000000
      1374       458  TIP3  H2            7.8500230656       -5.5559063406      -10.8551112591  CLST         458          1.0000000000
      1375       459  TIP3  OH2           6.5592941625       -9.9116703739       -7.8316959274  CLST         459          1.0000000000
      1376       459  TIP3  H1            6.1076902172       -9.1060525612       -7.4795991429  CLST         459          1.0000000000
      1377       459  TIP3  H2            7.2525525801       -9.4441221140       -8.3871533567  CLST         459          1.0000000000
      1378       460  TIP3  OH2           9.2513292843       -2.1116122260       -2.8266474615  CLST         460          1.0000000000
      1379       460  TIP3  H1            9.8690275565       -2.6370369189       -2.2860812277  CLST         460          1.0000000000
      1380       460  TIP3  H2            9.9189735966       -1.5799877232       -3.3352020846  CLST         460          1.0000000000
      1381       461  TIP3  OH2          -1.2624523892      -12.8026031831       -5.3735742467  CLST         461          1.0000000000
      1382       461  TIP3  H1           -0.4728036839      -12.8191566620       -5.9461470096  CLST         461          1.0000000000
      1383       461  TIP3  H2           -0.9406991050      -13.2082222951       -4.5196969511  CLST         461          1.0000000000
      1384       462  TIP3  OH2           0.0006295659        5.4479424268      -12.6925347814  CLST         462          1.0000000000
      1385       462  TIP3  H1            0.3846975491        6.4041062428      -12.5968609675  CLST         462          1.0000000000
      1386       462  TIP3  H2            0.7301908552        5.0349356231      -13.0386478417  CLST         462          1.0000000000
      1387       463  TIP3  OH2          -1.7582037205        1.8108932083       -7.8272086250  CLST         463          1.0000000000
      1388       463  TIP3  H1           -1.5451869544        0.8856579145       -7.5615352876  CLST         463          1.0000000000
      1389       463  TIP3  H2           -2.6851939434        1.8639960587       -7.4801818443  CLST         463          1.0000000000
      1390       464  TIP3  OH2          -6.5461349820        6.1820622520        4.2542130884  CLST         464          1.0000000000
      1391       464  TIP3  H1           -6.2093927556        5.5705559049        4.8986074954  CLST         464          1.0000000000
      1392       464  TIP3  H2           -7.0406971215        6.8208435309        4.8401849339  CLST         464          1.0000000000
      1393       465  TIP3  OH2          -4.6388855257      -12.5348707229        6.3446192937  CLST         465          1.0000000000
      1394       465  TIP3  H1           -3.7768990143      -13.0148976248        6.2987787361  CLST         465          1.0000000000
      1395       465  TIP3  H2           -4.2745932144      -11.6201791098        6.3339324635  CLST         465          1.0000000000
      1396       466  TIP3  OH2          -2.4225889703        9.1766863621       -4.3051881419  CLST         466          1.0000000000
      1397       466  TIP3  H1           -3.0849862793        9.3215842687       -5.0519323283  CLST         466          1.0000000000
      1398       466  TIP3  H2           -2.5736281666        9.9711075938       -3.7690366264  CLST         466          1.0000000000
      1399       467  TIP3  OH2           8.2539741387        5.9947749921        4.6499934958  CLST         467          1.0000000000
      1400       467  TIP3  H1            8.6605826694        6.5309456770        5.3606461893  CLST         467          1.0000000000
      1401       467  TIP3  H2            8.0368974044        6.7124053902        3.9977147881  CLST         467          1.0000000000
      1402       468  TIP3  OH2          -0.5093886722      -12.3766264111       10.4138934410  CLST         468          1.0000000000
      1403       468  TIP3  H1           -0.9950693459      -11.9453958293       11.1536878081  CLST         468          1.0000000000
      1404       468  TIP3  H2            0.4351663162      -12.2316434161       10.6262852181  CLST         468          1.0000000000
      1405       469  TIP3  OH2           5.4721698893        8.3748584670       14.2205502334  CLST         469          1.0000000000
      1406       469  TIP3  H1            6.3497316829        8.5938381483       13.8847618002  CLST         469          1.0000000000
      1407       469  TIP3  H2            5.0397369409        9.0747980752       13.7141037570  CLST         469          1.0000000000
      1408       470  TIP3  OH2         -11.2017100252       12.7703698847        0.6014358964  CLST         470          1.0000000000
      1409       470  TIP3  H1          -11.3334782814       13.0011361533       -0.2936045487  CLST         470          1.0000000000
      1410       470  TIP3  H2          -11.4421784610       11.8163437164        0.6711815594  CLST         470          1.0000000000
      1411       471  TIP3  OH2          -4.3608313992        9.6174980715       -8.9790750034  CLST         471          1.0000000000
      1412       471  TIP3  H1           -4.6558651079        8.6817424305       -8.9703823530  CLST         471          1.0000000000
      1413       471  TIP3  H2           -4.5582693599        9.8626048824       -9.9159619165  CLST         471          1.0000000000
      1414       472  TIP3  OH2         -11.8353905415        3.8666289615        2.9066753681  CLST         472          1.0000000000
      1415       472  TIP3  H1          -12.1663559478        3.0493766497        3.3577282685  CLST         472          1.0000000000
      1416       472  TIP3  H2          -11.8659229271        3.4558800901        2.0154911158  CLST         472          1.0000000000
      1417       473  TIP3  OH2           5.3527503097        0.7858215180       10.1478515178  CLST         473          1.0000000000
      1418       473  TIP3  H1            5.8251610218        1.6498290100       10.0635629184  CLST         473          1.0000000000
      1419       473  TIP3  H2            4.6609601879        1.0821717151       10.7502668265  CLST         473          1.0000000000
      1420       474  TIP3  OH2           1.3302582635        1.7214554758        1.4178795438  CLST         474          1.0000000000
      1421       474  TIP3  H1            0.3767828616        1.5263174842        1.5279742913  CLST         474          1.0000000000
      1422       474  TIP3  H2            1.6386484099        0.8812019222        1.0795237523  CLST         474          1.0000000000
      1423       475  TIP3  OH2           6.0883568186       -8.6239353715       12.0313472651  CLST         475          1.0000000000
      1424       475  TIP3  H1            6.9223144211       -8.1779197642       11.7666284376  CLST         475          1.0000000000
      1425       475  TIP3  H2            6.2134033517       -9.3845020012       11.4172493772  CLST         475          1.0000000000
      1426       476  TIP3  OH2         -11.5802543849       -9.0490566102       -0.0937457230  CLST         476          1.0000000000
      1427       476  TIP3  H1          -12.0873922857       -8.2975446878       -0.5174657390  CLST         476          1.0000000000
      1428       476  TIP3  H2          -10.8472878573       -8.9188376040       -0.7190120276  CLST         476          1.0000000000
      1429       477  TIP3  OH2         -12.5667437145        3.6437762683      -13.5005392352  CLST         477          1.0000000000
      1430       477  TIP3  H1          -12.7712920872        2.7287056716      -13.3328027092  CLST         477          1.0000000000
      1431       477  TIP3  H2          -11.9431844356        3.4392658442      -14.2037364738  CLST         477          1.0000000000
      1432       478  TIP3  OH2          -3.9840179109        6.5503688868      -10.6693448785  CLST         478          1.0000000000
      1433       478  TIP3  H1           -4.6048908425        6.5372242895      -11.4337015460  CLST         478          1.0000000000
      1434       478  TIP3  H2           -3.3446038838        7.1883782530      -11.1073377568  CLST         478          1.0000000000
      1435       479  TIP3  OH2           7.8510603697       -1.5033356577       -8.6007723874  CLST         479          1.0000000000
      1436       479  TIP3  H1            8.6151926500       -1.1960775578       -8.0318257664  CLST         479          1.0000000000
      1437       479  TIP3  H2            7.1338459980       -1.1730422286       -8.0033719069  CLST         479          1.0000000000
      1438       480  TIP3  OH2          -6.1105825286        7.5614905502       -0.0588488047  CLST         480          1.0000000000
      1439       480  TIP3  H1           -5.2252202470        7.9070530132       -0.3568120169  CLST         480          1.0000000000
      1440       480  TIP3  H2           -5.8715673416        6.6254363787        0.1022041595  CLST         480          1.0000000000
      1441       481  TIP3  OH2          -3.0019749338        2.3634103722       11.9446751564  CLST         481          1.0000000000
      1442       481  TIP3  H1           -2.0470173925        2.2352309543       11.7763781668  CLST         481          1.0000000000
      1443       481  TIP3  H2           -3.2050551362        1.5262413594       12.3433908954  CLST         481          1.0000000000
      1444       482  TIP3  OH2          -7.9313362510       11.5558250917       -7.5293960220  CLST         482          1.0000000000
      1445       482  TIP3  H1           -8.6634734299       11.4971165999       -8.1519551036  CLST         482          1.0000000000
      1446       482  TIP3  H2           -7.2103171677       11.8324298802       -8.1461933331  CLST         482          1.0000000000
      1447       483  TIP3  OH2           6.2961179317       -5.8142533027       12.6363362628  CLST         483          1.0000000000
      1448       483  TIP3  H1            5.8769690988       -6.6598996434       12.8693808624  CLST         483          1.0000000000
      1449       483  TIP3  H2            6.0585020989       -5.7450073986       11.6824473164  CLST         483          1.0000000000
      1450       484  TIP3  OH2           6.7989499614       -2.9828288234        3.0178811692  CLST         484          1.0000000000
      1451       484  TIP3  H1            5.8558995379       -3.2950726867        3.0556841838  CLST         484          1.0000000000
      1452       484  TIP3  H2            6.6995561403       -2.1990551215        3.6223419865  CLST         484          1.0000000000
      1453       485  TIP3  OH2         -11.7315015376        4.4736328889       10.0555207934  CLST         485          1.0000000000
      1454       485  TIP3  H1          -11.3018306855        3.5757791335        9.8467975702  CLST         485          1.0000000000
      1455       485  TIP3  H2          -12.5590948335        4.3019587508        9.5122089515  CLST         485          1.0000000000
      1456       486  TIP3  OH2           8.4777849100       -7.2072091443       13.6936727293  CLST         486          1.0000000000
      1457       486  TIP3  H1            8.7759271314       -6.9383623779       14.4996044676  CLST         486          1.0000000000
      1458       486  TIP3  H2            7.8909550303       -6.4687480145       13.4262582310  CLST         486          1.0000000000
      1459       487  TIP3  OH2          12.3011548488       -8.4520918077        6.0469051718  CLST         487          1.0000000000
      1460       487  TIP3  H1           11.3226010435       -8.4192372776        5.8950241735  CLST         487          1.0000000000
      1461       487  TIP3  H2           12.2405771885       -8.5210402102        7.0537645208  CLST         487          1.0000000000
      1462       488  TIP3  OH2          15.1415337755        8.3764425499        7.7220382786  CLST         488          1.0000000000
      1463       488  TIP3  H1           15.7299262964        7.7217584932        7.3478268839  CLST         488          1.0000000000
      1464       488  TIP3  H2           14.5222757446        7.7993782831        8.2510830309  CLST         488          1.0000000000
      1465       489  TIP3  OH2          -6.2004637975      -10.7528377119       11.7398624693  CLST         489          1.0000000000
      1466       489  TIP3  H1           -6.3174120465       -9.8933156060       11.3518006286  CLST         489          1.0000000000
      1467       489  TIP3  H2           -6.9951931022      -11.2013354334       11.2514394549  CLST         489          1.0000000000
      1468       490  TIP3  OH2           6.8241185668      -13.0391428623        2.3363096723  CLST         490          1.0000000000
      1469       490  TIP3  H1            6.4951398702      -12.2160797453        2.7247964237  CLST         490          1.0000000000
      1470       490  TIP3  H2            7.1823320372      -13.5044937861        3.0825795169  CLST         490          1.0000000000
      1471       491  TIP3  OH2           3.0873125300       -9.2554144732        5.0290397527  CLST         491          1.0000000000
      1472       491  TIP3  H1            2.2316492638       -9.1714753230        5.5117221382  CLST         491          1.0000000000
      1473       491  TIP3  H2            2.7091437329       -9.4890316842        4.1567602653  CLST         491          1.0000000000
      1474       492  TIP3  OH2          -0.5999042442       -6.5013998776       12.2588869787  CLST         492          1.0000000000
      1475       492  TIP3  H1           -0.4248990960       -7.4954179270       12.2588473976  CLST         492          1.0000000000
      1476       492  TIP3  H2           -1.5520272487       -6.5258426317       12.3794459149  CLST         492          1.0000000000
      1477       493  TIP3  OH2           3.4073570829       10.6677827623        7.0999117058  CLST         493          1.0000000000
      1478       493  TIP3  H1            4.1313826548       10.5925131836        7.7898797970  CLST         493          1.0000000000
      1479       493  TIP3  H2            2.6497474451       10.3527262521        7.6880084245  CLST         493          1.0000000000
      1480       494  TIP3  OH2          -9.2186169110        5.4438719453       -0.7958956707  CLST         494          1.0000000000
      1481       494  TIP3  H1           -9.6272197900        5.9193674852       -1.5407732485  CLST         494          1.0000000000
      1482       494  TIP3  H2           -9.6012555816        5.9141433156       -0.0215057550  CLST         494          1.0000000000
      1483       495  TIP3  OH2           5.0690840538       -6.8128153945       -1.9741046877  CLST         495          1.0000000000
      1484       495  TIP3  H1            5.7769327054       -6.3365274022       -2.4942807361  CLST         495          1.0000000000
      1485       495  TIP3  H2            5.7254915760       -7.4031441034       -1.5239270565  CLST         495          1.0000000000
      1486       496  TIP3  OH2         -12.8755343470      -10.7026013518        7.5470991611  CLST         496          1.0000000000
      1487       496  TIP3  H1          -13.5125893411      -11.3796313327        7.7370674841  CLST         496          1.0000000000
      1488       496  TIP3  H2          -12.5416191114      -11.2035242536        6.7795105980  CLST         496          1.0000000000
      1489       497  TIP3  OH2          -9.6894953486      -13.4838328279       -7.3064736669  CLST         497          1.0000000000
      1490       497  TIP3  H1          -10.1719288468      -14.2487604286       -7.4144960276  CLST         497          1.0000000000
      1491       497  TIP3  H2           -9.9481886898      -12.7812914800       -7.8824260290  CLST         497          1.0000000000
      1492       498  TIP3  OH2          -5.6321128219        0.5163118941      -11.2208629621  CLST         498          1.0000000000
      1493       498  TIP3  H1           -5.8550554526        0.6989865896      -12.1507759690  CLST         498          1.0000000000
      1494       498  TIP3  H2           -5.4532838875        1.3786528818      -10.8091891288  CLST         498          1.0000000000
      1495       499  TIP3  OH2          11.5913362364        6.6212619514        3.6469017782  CLST         499          1.0000000000
      1496       499  TIP3  H1           11.9273807023        7.0996033626        2.8677820951  CLST         499          1.0000000000
      1497       499  TIP3  H2           11.3324840092        7.3479033240        4.2361485077  CLST         499          1.0000000000
      1498       500  TIP3  OH2           2.3483087206       -8.7225192552      -13.3060243262  CLST         500          1.0000000000
      1499       500  TIP3  H1            1.6561403722       -9.3345631971      -13.5891477329  CLST         500          1.0000000000
      1500       500  TIP3  H2            2.8507458866       -9.4149876704      -12.8051921195  CLST         500          1.0000000000
      1501       501  TIP3  OH2           1.3278296479      -11.0650965535       14.0005760406  CLST         501          1.0000000000
      1502       501  TIP3  H1            1.2574907431      -11.9913807964       14.0888010683  CLST         501          1.0000000000
      1503       501  TIP3  H2            2.2526053009      -10.8296122783       14.0197703379  CLST         501          1.0000000000
      1504       502  TIP3  OH2           6.1897074067        3.7544971798        9.7353939884  CLST         502          1.0000000000
      1505       502  TIP3  H1            6.6262039695        4.1469749167       10.5274124180  CLST         502          1.0000000000
      1506       502  TIP3  H2            6.9607937013        3.2652268279        9.3674584142  CLST         502          1.0000000000
      1507       503  TIP3  OH2          10.3298381298       -0.7742204668        0.2623786875  CLST         503          1.0000000000
      1508       503  TIP3  H1           11.0904381459       -0.4813753264        0.7953038801  CLST         503          1.0000000000
      1509       503  TIP3  H2           10.0460451286        0.0619581114       -0.1468121564  CLST         503          1.0000000000
      1510       504  TIP3  OH2           8.3214868230      -13.8628360759       10.8205496028  CLST         504          1.0000000000
      1511       504  TIP3  H1            8.6821441540      -13.5879900580        9.9581909825  CLST         504          1.0000000000
      1512       504  TIP3  H2            7.9192678386      -14.6753089334       10.5246024173  CLST         504          1.0000000000
      1513       505  TIP3  OH2           3.5245898190      -10.8367776855       -5.5547076954  CLST         505          1.0000000000
      1514       505  TIP3  H1            3.4857239917      -10.2422495926       -6.3548307361  CLST         505          1.0000000000
      1515       505  TIP3  H2            2.7064162738      -10.5567479470       -5.1137637869  CLST         505          1.0000000000
      1516       506  TIP3  OH2          -9.1614351794       -3.4143825771       -8.1116907692  CLST         506          1.0000000000
      1517       506  TIP3  H1           -8.9034433792       -2.4416317187       -8.0578439197  CLST         506          1.0000000000
      1518       506  TIP3  H2           -9.8086217345       -3.3771979131       -8.8333934445  CLST         506          1.0000000000
      1519       507  TIP3  OH2          11.1794688331        9.7958319202      -12.8586411606  CLST         507          1.0000000000
      1520       507  TIP3  H1           11.6375647122        9.6906281717      -13.6290229754  CLST         507          1.0000000000
      1521       507  TIP3  H2           11.0549822460        8.8315210569      -12.5757672023  CLST         507          1.0000000000
      1522       508  TIP3  OH2           9.1778115843       12.2336498234        8.7795421825  CLST         508          1.0000000000
      1523       508  TIP3  H1            9.0874554173       12.0537748562        7.8217258599  CLST         508          1.0000000000
      1524       508  TIP3  H2           10.0548806103       12.6585030668        8.7027186627  CLST         508          1.0000000000
      1525       509  TIP3  OH2          -0.8670608499       -1.5482752878      -11.3606629751  CLST         509          1.0000000000
      1526       509  TIP3  H1           -1.8192689448       -1.7584195064      -11.5278787935  CLST         509          1.0000000000
      1527       509  TIP3  H2           -1.0003459921       -0.6462818259      -10.9258329831  CLST         509          1.0000000000
      1528       510  TIP3  OH2           8.1350329858        2.2587123856       11.5521134504  CLST         510          1.0000000000
      1529       510  TIP3  H1            8.0660440304        1.2557014221       11.5900098672  CLST         510          1.0000000000
      1530       510  TIP3  H2            9.0141087468        2.3062602434       11.1029555038  CLST         510          1.0000000000
      1531       511  TIP3  OH2          -8.7509120381       -5.9151048373       -0.7062506083  CLST         511          1.0000000000
      1532       511  TIP3  H1           -9.6202700274       -6.0905579694       -1.1187668129  CLST         511          1.0000000000
      1533       511  TIP3  H2           -8.5183992736       -5.1010106689       -1.1382796690  CLST         511          1.0000000000
      1534       512  TIP3  OH2          10.1117498594        7.0016513721        6.8863177060  CLST         512          1.0000000000
      1535       512  TIP3  H1           10.0999937478        7.5947375779        7.6640439572  CLST         512          1.0000000000
      1536       512  TIP3  H2           10.3926253829        7.6770938951        6.2215443354  CLST         512          1.0000000000
      1537       513  TIP3  OH2         -11.7964117269       10.4613647411        9.3458740127  CLST         513          1.0000000000
      1538       513  TIP3  H1          -11.3797722784       11.2786700139        9.7042870963  CLST         513          1.0000000000
      1539       513  TIP3  H2          -11.8282342561        9.9691601590       10.1965502615  CLST         513          1.0000000000
      1540       514  TIP3  OH2          -4.8275372299        4.9680387824        0.3142031685  CLST         514          1.0000000000
      1541       514  TIP3  H1           -4.0478735392        5.4864855744        0.6542484086  CLST         514          1.0000000000
      1542       514  TIP3  H2           -4.5559839041        4.8834566132       -0.6269781088  CLST         514          1.0000000000
      1543       515  TIP3  OH2          -0.7259216265        0.9816115887       -4.3012166651  CLST         515          1.0000000000
      1544       515  TIP3  H1           -1.5205286009        1.5542445589       -4.4913279233  CLST         515          1.0000000000
      1545       515  TIP3  H2           -0.0119668736        1.5671826539       -4.6839021249  CLST         515          1.0000000000
      1546       516  TIP3  OH2          -7.2071116017       -8.5623359070        6.4221367245  CLST         516          1.0000000000
      1547       516  TIP3  H1           -7.4475105763       -8.7236200731        5.4829946260  CLST         516          1.0000000000
      1548       516  TIP3  H2           -7.7708638867       -7.7236965169        6.5392700981  CLST         516          1.0000000000
      1549       517  TIP3  OH2           0.6184221211       11.0803722920       11.5051725522  CLST         517          1.0000000000
      1550       517  TIP3  H1            0.4473154053       10.6834655596       10.6404890437  CLST         517          1.0000000000
      1551       517  TIP3  H2           -0.3095195028       11.4103248285       11.6219109902  CLST         517          1.0000000000
      1552       518  TIP3  OH2         -11.6440779256       -3.4348821900      -11.4662815550  CLST         518          1.0000000000
      1553       518  TIP3  H1          -12.1960276171       -3.2178830353      -12.2038981800  CLST         518          1.0000000000
      1554       518  TIP3  H2          -10.7991963345       -3.5485683716      -11.9321247334  CLST         518          1.0000000000
      1555       519  TIP3  OH2           2.0526171483        3.3634741954        3.3378339460  CLST         519          1.0000000000
      1556       519  TIP3  H1            1.9587687236        4.2191144917        2.8365642853  CLST         519          1.0000000000
      1557       519  TIP3  H2            1.6902885159        2.7835065467        2.5917132254  CLST         519          1.0000000000
      1558       520  TIP3  OH2         -10.2672167290        6.2228867385        8.1859519813  CLST         520          1.0000000000
      1559       520  TIP3  H1          -10.4796345551        5.6284541975        7.4087497322  CLST         520          1.0000000000
      1560       520  TIP3  H2          -10.8656068473        5.7703003401        8.8371400715  CLST         520          1.0000000000
      1561       521  TIP3  OH2           8.3625071272       -8.8525166733       -9.5757431229  CLST         521          1.0000000000
      1562       521  TIP3  H1            8.5814482595       -9.4922941078      -10.2887848415  CLST         521          1.0000000000
      1563       521  TIP3  H2            8.2188906835       -8.0431279984      -10.1210653661  CLST         521          1.0000000000
      1564       522  TIP3  OH2          -5.6225112021       -7.1295475214        8.1230223937  CLST         522          1.0000000000
      1565       522  TIP3  H1           -6.2196799585       -7.8138347032        7.7807774591  CLST         522          1.0000000000
      1566       522  TIP3  H2           -4.7628228604       -7.5717059004        8.2080658249  CLST         522          1.0000000000
      1567       523  TIP3  OH2          -4.1223983556       12.1284750926      -13.7319915503  CLST         523          1.0000000000
      1568       523  TIP3  H1           -3.1844742146       11.8885807526      -13.4600493053  CLST         523          1.0000000000
      1569       523  TIP3  H2           -3.9097830938       12.8024595748      -14.3412381672  CLST         523          1.0000000000
      1570       524  TIP3  OH2           6.9916894711        3.8416820782       -1.8256465205  CLST         524          1.0000000000
      1571       524  TIP3  H1            7.0899604890        2.9492942621       -2.2108278375  CLST         524          1.0000000000
      1572       524  TIP3  H2            6.0479033569        4.0025161951       -2.0458256121  CLST         524          1.0000000000
      1573       525  TIP3  OH2           0.4339718843        6.9408779997       -2.5413826291  CLST         525          1.0000000000
      1574       525  TIP3  H1            0.9562827380        6.5584837619       -3.2802236620  CLST         525          1.0000000000
      1575       525  TIP3  H2            0.2735811442        6.0574867492       -2.0984975424  CLST         525          1.0000000000
      1576       526  TIP3  OH2           7.0308792487       -5.5892232715       -3.6318806364  CLST         526          1.0000000000
      1577       526  TIP3  H1            7.1485511485       -5.8136400058       -4.5863825950  CLST         526          1.0000000000
      1578       526  TIP3  H2            7.9557558634       -5.4581100047       -3.3359972735  CLST         526          1.0000000000
      1579       527  TIP3  OH2           0.3246422811        7.2021136679        3.9139068898  CLST         527          1.0000000000
      1580       527  TIP3  H1            1.0022619847        7.0176945800        4.6106413074  CLST         527          1.0000000000
      1581       527  TIP3  H2            0.3483286670        8.1765494168        3.9894233565  CLST         527          1.0000000000
      1582       528  TIP3  OH2          -2.8639648829        9.8744740352        8.8271483586  CLST         528          1.0000000000
      1583       528  TIP3  H1           -3.3956352486        9.3804622952        9.5029840015  CLST         528          1.0000000000
      1584       528  TIP3  H2           -3.6349598547       10.3736570164        8.4549120602  CLST         528          1.0000000000
      1585       529  TIP3  OH2          -5.9551399335       12.3095127452       -9.4265846511  CLST         529          1.0000000000
      1586       529  TIP3  H1           -5.0977861761       12.1350272400       -9.0364851748  CLST         529          1.0000000000
      1587       529  TIP3  H2           -5.6700723123       12.3241490027      -10.3590949445  CLST         529          1.0000000000
      1588       530  TIP3  OH2          -4.3944827151       -5.6295822476      -13.1516950268  CLST         530          1.0000000000
      1589       530  TIP3  H1           -4.3421992803       -6.6413571325      -13.1234672020  CLST         530          1.0000000000
      1590       530  TIP3  H2           -3.4881917642       -5.3881494205      -13.3625621124  CLST         530          1.0000000000
      1591       531  TIP3  OH2         -11.5452921420       -0.2814145213       10.4668028008  CLST         531          1.0000000000
      1592       531  TIP3  H1          -12.3404922170       -0.1647115611       10.9445693099  CLST         531          1.0000000000
      1593       531  TIP3  H2          -11.7727780260       -0.9180021519        9.7794163209  CLST         531          1.0000000000
      1594       532  TIP3  OH2         -12.1031892467       -3.1237803683       -8.7342631447  CLST         532          1.0000000000
      1595       532  TIP3  H1          -12.9510791619       -3.4292879127       -8.4665028349  CLST         532          1.0000000000
      1596       532  TIP3  H2          -12.0939167195       -3.3199387498       -9.7206483195  CLST         532          1.0000000000
      1597       533  TIP3  OH2          -2.8532236698       -7.2818003120        8.7063064047  CLST         533          1.0000000000
      1598       533  TIP3  H1           -2.1043788913       -7.8969485376        8.6933266173  CLST         533          1.0000000000
      1599       533  TIP3  H2           -2.3675206845       -6.4657603534        8.3975611203  CLST         533          1.0000000000
      1600       534  TIP3  OH2           0.3733226173      -13.1460774642       -7.6641196343  CLST         534          1.0000000000
      1601       534  TIP3  H1            0.7966557960      -13.2580388029       -8.5367603146  CLST         534          1.0000000000
      1602       534  TIP3  H2            1.2264787790      -13.2264022636       -7.1660490865  CLST         534          1.0000000000
      1603       535  TIP3  OH2           2.6854666434        3.2090704026       -7.5596241468  CLST         535          1.0000000000
      1604       535  TIP3  H1            3.2312990365        2.6969134617       -6.9220102552  CLST         535          1.0000000000
      1605       535  TIP3  H2            1.8000922746        2.8275067251       -7.3779579693  CLST         535          1.0000000000
      1606       536  TIP3  OH2           8.0108785519      -12.6954122490       -3.4320834416  CLST         536          1.0000000000
      1607       536  TIP3  H1            7.2412074565      -12.5864243623       -4.0000590024  CLST         536          1.0000000000
      1608       536  TIP3  H2            8.3168802250      -13.5484713008       -3.6221051948  CLST         536          1.0000000000
      1609       537  TIP3  OH2          11.7017911478       -2.6304800243       -7.5584543732  CLST         537          1.0000000000
      1610       537  TIP3  H1           11.2942279846       -1.8000545729       -7.2331787302  CLST         537          1.0000000000
      1611       537  TIP3  H2           12.6391712315       -2.3910741953       -7.4845396550  CLST         537          1.0000000000
      1612       538  TIP3  OH2          -5.2274774576      -10.9538766235        0.8079871989  CLST         538          1.0000000000
      1613       538  TIP3  H1           -4.3915545020      -11.1508088298        1.3396465254  CLST         538          1.0000000000
      1614       538  TIP3  H2           -5.0938340102       -9.9815289973        0.6882878979  CLST         538          1.0000000000
      1615       539  TIP3  OH2           2.5150097964       -5.0442614054        0.8491596123  CLST         539          1.0000000000
      1616       539  TIP3  H1            1.6142139961       -5.4028878572        1.0858813255  CLST         539          1.0000000000
      1617       539  TIP3  H2            2.3839233781       -5.0176122090       -0.1073836801  CLST         539          1.0000000000
      1618       540  TIP3  OH2           3.9911369150       -6.7694997769        4.7998521323  CLST         540          1.0000000000
      1619       540  TIP3  H1            3.7290750524       -7.6439535084        5.1821541472  CLST         540          1.0000000000
      1620       540  TIP3  H2            4.2024764247       -7.0519661292        3.8803151289  CLST         540          1.0000000000
      1621       541  TIP3  OH2          -5.5382511892       10.4832750849        2.0469085557  CLST         541          1.0000000000
      1622       541  TIP3  H1           -6.0211233964       10.5032998098        2.9235953696  CLST         541          1.0000000000
      1623       541  TIP3  H2           -4.8737284261       11.1977941361        2.2373637459  CLST         541          1.0000000000
      1624       542  TIP3  OH2         -10.9811868276       14.4590591201        5.5625436792  CLST         542          1.0000000000
      1625       542  TIP3  H1          -10.2856817975       15.0445943994        5.2648369504  CLST         542          1.0000000000
      1626       542  TIP3  H2          -10.9312978988       13.9156113417        4.7178436734  CLST         542          1.0000000000
      1627       543  TIP3  OH2         -10.6344689710       11.4499373986       -2.4416627396  CLST         543          1.0000000000
      1628       543  TIP3  H1          -11.5353439238       11.1780199785       -2.6386601474  CLST         543          1.0000000000
      1629       543  TIP3  H2          -10.3096918998       11.5682488027       -3.3451701664  CLST         543          1.0000000000
      1630       544  TIP3  OH2          -0.3820178773        5.5845621020       -5.5232125160  CLST         544          1.0000000000
      1631       544  TIP3  H1           -0.3632602891        5.2271632559       -6.4538876978  CLST         544          1.0000000000
      1632       544  TIP3  H2            0.3636159054        5.1791154553       -5.0431628079  CLST         544          1.0000000000
      1633       545  TIP3  OH2          -7.9551674966        2.3865433467      -12.7499767811  CLST         545          1.0000000000
      1634       545  TIP3  H1           -8.0163240614        2.1359454693      -13.7166029383  CLST         545          1.0000000000
      1635       545  TIP3  H2           -8.5509516974        3.1753192445      -12.6996444426  CLST         545          1.0000000000
      1636       546  TIP3  OH2           3.8310971627       11.1144709941       -2.2328468279  CLST         546          1.0000000000
      1637       546  TIP3  H1            3.4091249049       10.2492187506       -2.3572845561  CLST         546          1.0000000000
      1638       546  TIP3  H2            4.2860935472       10.9660222483       -1.3506922656  CLST         546          1.0000000000
      1639       547  TIP3  OH2          -3.4776961970       -2.2408549624      -11.0937397388  CLST         547          1.0000000000
      1640       547  TIP3  H1           -3.4044007855       -2.3468750580      -10.1096771274  CLST         547          1.0000000000
      1641       547  TIP3  H2           -3.9656939685       -1.3955570175      -11.1278948685  CLST         547          1.0000000000
      1642       548  TIP3  OH2          10.5698185760        2.3206514175        1.4087720315  CLST         548          1.0000000000
      1643       548  TIP3  H1            9.5792071218        2.2862377677        1.3948952996  CLST         548          1.0000000000
      1644       548  TIP3  H2           10.5756211444        2.9504103247        2.1818159049  CLST         548          1.0000000000
