* Geometry rescue: EQUI at step 3000
*
        1644  EXT
         1         1  TIP3  OH2           4.5291720311       -1.4936655189       -2.3538207820  CLST           1          1.0000000000
         2         1  TIP3  H1            4.6136125389       -1.4751078562       -1.3611419665  CLST           1          1.0000000000
         3         1  TIP3  H2            5.4343731855       -1.8427485406       -2.5861339497  CLST           1          1.0000000000
         4         2  TIP3  OH2          10.7146962923        7.3136723746      -11.7979719259  CLST           2          1.0000000000
         5         2  TIP3  H1           10.9560882967        7.0321855619      -10.8949546734  CLST           2          1.0000000000
         6         2  TIP3  H2            9.7189871508        7.3077754889      -11.5933976714  CLST           2          1.0000000000
         7         3  TIP3  OH2           8.7869659138        5.1664684653       -4.2608018982  CLST           3          1.0000000000
         8         3  TIP3  H1            9.0839720415        5.5062833898       -3.3528688292  CLST           3          1.0000000000
         9         3  TIP3  H2            8.4371361608        6.0227386778       -4.5929640586  CLST           3          1.0000000000
        10         4  TIP3  OH2          -2.8316789090        6.8375468143       10.1383489737  CLST           4          1.0000000000
        11         4  TIP3  H1           -3.5993246386        7.2670690702        9.6117036654  CLST           4          1.0000000000
        12         4  TIP3  H2           -2.9632395416        7.4452619629       10.8761513364  CLST           4          1.0000000000
        13         5  TIP3  OH2           9.0529317373        6.2507875594       10.5958564863  CLST           5          1.0000000000
        14         5  TIP3  H1            8.7557013935        5.4748829418       11.1434523792  CLST           5          1.0000000000
        15         5  TIP3  H2            8.7990154210        5.9414989630        9.7187735509  CLST           5          1.0000000000
        16         6  TIP3  OH2          10.5582373693       -5.9299753683      -11.7954562239  CLST           6          1.0000000000
        17         6  TIP3  H1           11.0888196032       -5.5159946415      -11.0713750264  CLST           6          1.0000000000
        18         6  TIP3  H2           10.5563679494       -5.0957843628      -12.3565498006  CLST           6          1.0000000000
        19         7  TIP3  OH2         -12.1867770075        8.2970628746        5.9072570621  CLST           7          1.0000000000
        20         7  TIP3  H1          -12.5616222673        9.1699184554        6.1836221557  CLST           7          1.0000000000
        21         7  TIP3  H2          -11.3297250225        8.4202828523        6.3619242791  CLST           7          1.0000000000
        22         8  TIP3  OH2          -4.4628786154       -8.2719626798        0.7141046459  CLST           8          1.0000000000
        23         8  TIP3  H1           -5.1349789218       -7.6384157481        1.1314034762  CLST           8          1.0000000000
        24         8  TIP3  H2           -3.7390026883       -7.7055620541        0.3717048500  CLST           8          1.0000000000
        25         9  TIP3  OH2           2.7012549595      -14.1363703120       -4.1717046572  CLST           9          1.0000000000
        26         9  TIP3  H1            1.8093060940      -14.2271115694       -3.7819523430  CLST           9          1.0000000000
        27         9  TIP3  H2            3.1986070665      -13.7526882731       -3.4559357586  CLST           9          1.0000000000
        28        10  TIP3  OH2         -14.2521188804       -1.1743744469       -0.3012942027  CLST          10          1.0000000000
        29        10  TIP3  H1          -13.9247637056       -1.3895311227       -1.2157400642  CLST          10          1.0000000000
        30        10  TIP3  H2          -14.2028716792       -1.9760924600        0.1713655836  CLST          10          1.0000000000
        31        11  TIP3  OH2           6.9537468081        6.6725816665       -1.9243181914  CLST          11          1.0000000000
        32        11  TIP3  H1            7.1636914012        5.7360483235       -2.1692339631  CLST          11          1.0000000000
        33        11  TIP3  H2            6.8295561399        7.0426387352       -2.8149793614  CLST          11          1.0000000000
        34        12  TIP3  OH2          -8.1998923225        2.6335474367        1.9264301285  CLST          12          1.0000000000
        35        12  TIP3  H1           -7.6134632100        2.8464483682        1.1246927957  CLST          12          1.0000000000
        36        12  TIP3  H2           -9.0364204439        2.5602669943        1.3861726594  CLST          12          1.0000000000
        37        13  TIP3  OH2           7.8325618377        2.3644171818        2.1457105359  CLST          13          1.0000000000
        38        13  TIP3  H1            7.3289079046        3.0061427960        1.6336309645  CLST          13          1.0000000000
        39        13  TIP3  H2            7.7205391952        2.7487955309        3.0516584186  CLST          13          1.0000000000
        40        14  TIP3  OH2          -0.2612518583        2.2758810098        7.9301560627  CLST          14          1.0000000000
        41        14  TIP3  H1            0.0881195901        3.0805229097        7.4554148875  CLST          14          1.0000000000
        42        14  TIP3  H2            0.4178799915        1.6221254558        7.6210831054  CLST          14          1.0000000000
        43        15  TIP3  OH2          -8.9640265670       -3.7643270495      -12.7927701834  CLST          15          1.0000000000
        44        15  TIP3  H1           -8.1460722066       -3.6805138954      -13.3268970939  CLST          15          1.0000000000
        45        15  TIP3  H2           -8.4663738349       -4.4320433113      -12.1903323796  CLST          15          1.0000000000
        46        16  TIP3  OH2          -3.8603663207      -12.8785912921       -6.4603269546  CLST          16          1.0000000000
        47        16  TIP3  H1           -4.3683170159      -12.9097418750       -5.5842763396  CLST          16          1.0000000000
        48        16  TIP3  H2           -2.9580268225      -12.9233800889       -5.9895844292  CLST          16          1.0000000000
        49        17  TIP3  OH2           4.8732558991      -13.4081561461       -8.6068907267  CLST          17          1.0000000000
        50        17  TIP3  H1            5.3231332476      -13.4954481237       -7.7342021958  CLST          17          1.0000000000
        51        17  TIP3  H2            3.9777788177      -13.3481393091       -8.1524650403  CLST          17          1.0000000000
        52        18  TIP3  OH2         -11.5285469419       -6.7568980936       -1.4871982552  CLST          18          1.0000000000
        53        18  TIP3  H1          -11.9692485824       -5.9021143643       -1.8758691160  CLST          18          1.0000000000
        54        18  TIP3  H2          -11.5524328301       -7.2000555500       -2.3678315971  CLST          18          1.0000000000
        55        19  TIP3  OH2          11.0038649869       -0.0840385735        9.5502314684  CLST          19          1.0000000000
        56        19  TIP3  H1           10.8426472767       -1.0205878166        9.8130462656  CLST          19          1.0000000000
        57        19  TIP3  H2           10.9967200768       -0.3178699679        8.5831299566  CLST          19          1.0000000000
        58        20  TIP3  OH2         -13.4384667329        1.4877146018        2.8747677997  CLST          20          1.0000000000
        59        20  TIP3  H1          -13.1257830668        1.2741800908        1.9497325911  CLST          20          1.0000000000
        60        20  TIP3  H2          -14.3806118751        1.4273076771        2.6831925156  CLST          20          1.0000000000
        61        21  TIP3  OH2         -10.0792684644       12.5789723736       -5.3252850664  CLST          21          1.0000000000
        62        21  TIP3  H1          -10.4768714023       13.2241615784       -5.7572541349  CLST          21          1.0000000000
        63        21  TIP3  H2           -9.2771190839       12.3258972661       -5.9165989405  CLST          21          1.0000000000
        64        22  TIP3  OH2           2.7848555094       12.1731786083       -6.5294502498  CLST          22          1.0000000000
        65        22  TIP3  H1            3.2205965032       11.3055978062       -6.3140906028  CLST          22          1.0000000000
        66        22  TIP3  H2            3.1343256985       12.5366778258       -5.6738804153  CLST          22          1.0000000000
        67        23  TIP3  OH2           5.5775408332       -1.6787636173       11.5773640096  CLST          23          1.0000000000
        68        23  TIP3  H1            4.8803736504       -2.1720574339       11.2145523935  CLST          23          1.0000000000
        69        23  TIP3  H2            5.5011474981       -0.8220102908       11.1202820055  CLST          23          1.0000000000
        70        24  TIP3  OH2           0.0091738128        1.1081160426        4.5166889616  CLST          24          1.0000000000
        71        24  TIP3  H1            0.5726529612        0.9280105841        5.3273486481  CLST          24          1.0000000000
        72        24  TIP3  H2           -0.7552497969        0.4964145694        4.8413406225  CLST          24          1.0000000000
        73        25  TIP3  OH2           3.1221281413        2.0461261296       -2.6653306863  CLST          25          1.0000000000
        74        25  TIP3  H1            3.5809407736        1.7470148518       -1.8326156510  CLST          25          1.0000000000
        75        25  TIP3  H2            3.4898814487        2.9590806850       -2.6551182931  CLST          25          1.0000000000
        76        26  TIP3  OH2          11.4405229998        5.4120796189       -6.5608458791  CLST          26          1.0000000000
        77        26  TIP3  H1           10.5883604175        5.1321225969       -6.9912850164  CLST          26          1.0000000000
        78        26  TIP3  H2           11.1928623100        6.2201323982       -6.0639421515  CLST          26          1.0000000000
        79        27  TIP3  OH2         -10.3271912341        7.3512961408       -5.3762800951  CLST          27          1.0000000000
        80        27  TIP3  H1          -10.6991819860        7.8331866317       -4.6317782436  CLST          27          1.0000000000
        81        27  TIP3  H2          -10.8660659765        7.4411331271       -6.1066401108  CLST          27          1.0000000000
        82        28  TIP3  OH2          -4.1922452994      -10.2807660397       -6.7874446671  CLST          28          1.0000000000
        83        28  TIP3  H1           -4.1805998192      -11.2906041446       -6.6772489082  CLST          28          1.0000000000
        84        28  TIP3  H2           -5.0417690458      -10.0392164785       -6.4093175651  CLST          28          1.0000000000
        85        29  TIP3  OH2         -10.7618630277        7.6391677995       -2.5834730814  CLST          29          1.0000000000
        86        29  TIP3  H1          -10.1296977393        8.2163064408       -2.0273838326  CLST          29          1.0000000000
        87        29  TIP3  H2          -11.5906194757        8.1397733991       -2.3448077639  CLST          29          1.0000000000
        88        30  TIP3  OH2           8.8818609903      -10.5272433631       -2.0922558947  CLST          30          1.0000000000
        89        30  TIP3  H1            9.5763523271      -11.1796827733       -1.8524534538  CLST          30          1.0000000000
        90        30  TIP3  H2            8.3291211561      -11.1674078783       -2.6244723020  CLST          30          1.0000000000
        91        31  TIP3  OH2          -9.8171275240       -1.3029832969      -13.0291177999  CLST          31          1.0000000000
        92        31  TIP3  H1           -9.6177797595       -2.2752678260      -12.8765764205  CLST          31          1.0000000000
        93        31  TIP3  H2           -9.6386828788       -0.9084190583      -12.1492100023  CLST          31          1.0000000000
        94        32  TIP3  OH2          -8.6017041048       -6.5402476696        6.9537986566  CLST          32          1.0000000000
        95        32  TIP3  H1           -9.5649483764       -6.6104259972        6.9328065698  CLST          32          1.0000000000
        96        32  TIP3  H2           -8.5501935641       -5.7831795909        6.2949419950  CLST          32          1.0000000000
        97        33  TIP3  OH2          11.6148790145       -8.8929066870        8.8267614421  CLST          33          1.0000000000
        98        33  TIP3  H1           11.7582817176       -9.7928248304        9.1685918358  CLST          33          1.0000000000
        99        33  TIP3  H2           11.5384031496       -8.3388259566        9.5826475875  CLST          33          1.0000000000
       100        34  TIP3  OH2           4.1576368053       -4.0494065233        3.0120917077  CLST          34          1.0000000000
       101        34  TIP3  H1            3.5943363537       -4.0601353544        2.1758403439  CLST          34          1.0000000000
       102        34  TIP3  H2            4.0256689922       -4.9509253595        3.3612193916  CLST          34          1.0000000000
       103        35  TIP3  OH2           6.2830579274       -0.9101808231        4.4053486481  CLST          35          1.0000000000
       104        35  TIP3  H1            5.3678647610       -0.9792906525        4.8040320009  CLST          35          1.0000000000
       105        35  TIP3  H2            6.8432432762       -0.4902342376        5.0861398690  CLST          35          1.0000000000
       106        36  TIP3  OH2          -1.5304747068        1.3915873330        2.2566325595  CLST          36          1.0000000000
       107        36  TIP3  H1           -2.1451307254        0.7836674157        2.7142695328  CLST          36          1.0000000000
       108        36  TIP3  H2           -0.8446590671        1.4300131864        3.0000894071  CLST          36          1.0000000000
       109        37  TIP3  OH2          -4.4045106441       -8.2029225307      -13.1118964863  CLST          37          1.0000000000
       110        37  TIP3  H1           -5.1116053103       -8.4784274543      -12.5235987949  CLST          37          1.0000000000
       111        37  TIP3  H2           -4.0379444362       -9.0855029603      -13.4138988291  CLST          37          1.0000000000
       112        38  TIP3  OH2          -3.2386196949        2.2328444036       -4.4487864135  CLST          38          1.0000000000
       113        38  TIP3  H1           -3.0575989361        3.1312068070       -4.8491984704  CLST          38          1.0000000000
       114        38  TIP3  H2           -3.6266801067        1.8264172660       -5.2653602719  CLST          38          1.0000000000
       115        39  TIP3  OH2           1.6275614281      -10.8987873661        2.0143534466  CLST          39          1.0000000000
       116        39  TIP3  H1            1.5147628723      -11.3290280537        2.8468850058  CLST          39          1.0000000000
       117        39  TIP3  H2            0.7062075110      -10.5925745918        1.8160646013  CLST          39          1.0000000000
       118        40  TIP3  OH2          -6.9610831581       12.5438688922        8.1379287909  CLST          40          1.0000000000
       119        40  TIP3  H1           -7.8469865911       12.8871219365        7.8747098568  CLST          40          1.0000000000
       120        40  TIP3  H2           -6.4394248214       12.6906288850        7.3136834615  CLST          40          1.0000000000
       121        41  TIP3  OH2           9.6663589942       -2.2386623506      -10.9904329858  CLST          41          1.0000000000
       122        41  TIP3  H1            8.9577266388       -2.8849363847      -10.7901562845  CLST          41          1.0000000000
       123        41  TIP3  H2            9.2107542845       -1.4518098966      -10.6239434287  CLST          41          1.0000000000
       124        42  TIP3  OH2           9.5211216113       10.2982915838      -10.5643690718  CLST          42          1.0000000000
       125        42  TIP3  H1           10.3997164234       10.1689305159      -10.1583742616  CLST          42          1.0000000000
       126        42  TIP3  H2            9.9362236550       10.3910982865      -11.4783574392  CLST          42          1.0000000000
       127        43  TIP3  OH2          12.0073129834       12.7166518468        7.7357085871  CLST          43          1.0000000000
       128        43  TIP3  H1           12.5950991887       13.3788707295        7.6827295716  CLST          43          1.0000000000
       129        43  TIP3  H2           12.5376394737       11.9530672663        8.1454942481  CLST          43          1.0000000000
       130        44  TIP3  OH2           7.8229369948        1.0833813204        6.0516420324  CLST          44          1.0000000000
       131        44  TIP3  H1            8.0477687186        1.5617167920        6.9222952389  CLST          44          1.0000000000
       132        44  TIP3  H2            7.6001552901        1.9641495900        5.5962420554  CLST          44          1.0000000000
       133        45  TIP3  OH2           7.8388460816        9.3332848470        7.2481797781  CLST          45          1.0000000000
       134        45  TIP3  H1            7.4604297303        8.4448288777        7.4332205731  CLST          45          1.0000000000
       135        45  TIP3  H2            8.7084404966        9.3133773546        7.7181240882  CLST          45          1.0000000000
       136        46  TIP3  OH2          -5.7917127684       -3.1453116499      -12.9440380054  CLST          46          1.0000000000
       137        46  TIP3  H1           -5.6230539343       -4.1006185835      -13.1392688756  CLST          46          1.0000000000
       138        46  TIP3  H2           -5.0806050218       -2.8772301087      -12.3371596369  CLST          46          1.0000000000
       139        47  TIP3  OH2           1.3120277343       -6.6228435215      -11.0769613596  CLST          47          1.0000000000
       140        47  TIP3  H1            1.7515648928       -5.7204939146      -10.9146715092  CLST          47          1.0000000000
       141        47  TIP3  H2            1.0711679120       -6.4546708278      -11.9718798672  CLST          47          1.0000000000
       142        48  TIP3  OH2           5.0709167510        5.5933342663        1.0669982971  CLST          48          1.0000000000
       143        48  TIP3  H1            5.9834667613        5.2608015970        0.8067968622  CLST          48          1.0000000000
       144        48  TIP3  H2            5.3310244804        6.5619805238        1.1138454561  CLST          48          1.0000000000
       145        49  TIP3  OH2          -3.2846528396      -10.5908212575      -13.7760119774  CLST          49          1.0000000000
       146        49  TIP3  H1           -2.7340183759      -10.5957653250      -13.0076570402  CLST          49          1.0000000000
       147        49  TIP3  H2           -3.8907626488      -11.3224026597      -13.4674048615  CLST          49          1.0000000000
       148        50  TIP3  OH2           2.7273621174        3.7782033763        6.0347390183  CLST          50          1.0000000000
       149        50  TIP3  H1            1.9154364560        4.2469125508        6.4165308702  CLST          50          1.0000000000
       150        50  TIP3  H2            2.4652958335        3.6825168134        5.0856466507  CLST          50          1.0000000000
       151        51  TIP3  OH2          -6.5195945967      -10.1099914111       -4.7127004801  CLST          51          1.0000000000
       152        51  TIP3  H1           -6.3715904126       -9.9511504523       -3.7779833511  CLST          51          1.0000000000
       153        51  TIP3  H2           -6.5525193585      -11.0401662180       -4.7764353595  CLST          51          1.0000000000
       154        52  TIP3  OH2           9.1363836017       -5.7240154837       -0.2625990652  CLST          52          1.0000000000
       155        52  TIP3  H1            9.3863115327       -5.3985812371       -1.1800747331  CLST          52          1.0000000000
       156        52  TIP3  H2            8.9243302199       -4.8200872229        0.1104538671  CLST          52          1.0000000000
       157        53  TIP3  OH2          -9.6823347939       10.0729854104      -12.3832032992  CLST          53          1.0000000000
       158        53  TIP3  H1          -10.1135403313        9.9955852920      -13.1579694439  CLST          53          1.0000000000
       159        53  TIP3  H2           -8.8192089878        9.6091246592      -12.5562648309  CLST          53          1.0000000000
       160        54  TIP3  OH2           0.4710764873       -2.8553566885       -9.4581477526  CLST          54          1.0000000000
       161        54  TIP3  H1            1.2652894389       -3.3246968330       -9.8335489575  CLST          54          1.0000000000
       162        54  TIP3  H2            0.0820570278       -2.3473088234      -10.2293771298  CLST          54          1.0000000000
       163        55  TIP3  OH2           2.9760728053       -4.0827152000      -14.7384090594  CLST          55          1.0000000000
       164        55  TIP3  H1            3.1452744345       -4.8972092134      -14.3116779952  CLST          55          1.0000000000
       165        55  TIP3  H2            2.9498413890       -4.0519161197      -15.6901093319  CLST          55          1.0000000000
       166        56  TIP3  OH2          -9.9538762584       11.0101940397        5.7451956987  CLST          56          1.0000000000
       167        56  TIP3  H1           -9.8129395852       10.1939415136        6.3068895728  CLST          56          1.0000000000
       168        56  TIP3  H2          -10.1919765632       10.5927587566        4.8711158403  CLST          56          1.0000000000
       169        57  TIP3  OH2           1.7122849525      -13.3837218986        0.4213301233  CLST          57          1.0000000000
       170        57  TIP3  H1            1.8836990994      -12.4476763261        0.7324406681  CLST          57          1.0000000000
       171        57  TIP3  H2            2.5436613496      -13.4381183778       -0.1085813820  CLST          57          1.0000000000
       172        58  TIP3  OH2         -13.1885835908       10.5882325827        7.1597187040  CLST          58          1.0000000000
       173        58  TIP3  H1          -12.5498405356       11.3119129243        6.9312844137  CLST          58          1.0000000000
       174        58  TIP3  H2          -12.7991606152       10.5569687506        8.1234742900  CLST          58          1.0000000000
       175        59  TIP3  OH2         -11.6044900368       -2.6991799280        5.5306306016  CLST          59          1.0000000000
       176        59  TIP3  H1          -11.9694081542       -2.5388605050        6.4978076327  CLST          59          1.0000000000
       177        59  TIP3  H2          -11.4972989961       -1.7360707655        5.2480422442  CLST          59          1.0000000000
       178        60  TIP3  OH2           1.3288756548        9.4930179548        8.4815719170  CLST          60          1.0000000000
       179        60  TIP3  H1            0.4807140134        9.0023069392        8.3292859571  CLST          60          1.0000000000
       180        60  TIP3  H2            1.7883636004        8.6179274922        8.7722087592  CLST          60          1.0000000000
       181        61  TIP3  OH2           2.7593572920       -0.6207629435       -5.4341666296  CLST          61          1.0000000000
       182        61  TIP3  H1            3.2535516379       -1.4906587955       -5.4409290806  CLST          61          1.0000000000
       183        61  TIP3  H2            2.0780127372       -0.8648217171       -6.1658878181  CLST          61          1.0000000000
       184        62  TIP3  OH2           7.9042138790        8.3305891825       12.4239677291  CLST          62          1.0000000000
       185        62  TIP3  H1            7.8699912953        7.4470901821       12.0212495042  CLST          62          1.0000000000
       186        62  TIP3  H2            8.0224075906        8.9624348784       11.6932121482  CLST          62          1.0000000000
       187        63  TIP3  OH2           4.5595526940       -6.9792671149      -10.3066569252  CLST          63          1.0000000000
       188        63  TIP3  H1            3.7413249912       -6.8488994292      -10.8507309629  CLST          63          1.0000000000
       189        63  TIP3  H2            5.1116789772       -7.3864256705      -11.0122252705  CLST          63          1.0000000000
       190        64  TIP3  OH2          -2.4062690807       11.7339760505        5.5062459817  CLST          64          1.0000000000
       191        64  TIP3  H1           -2.5211964048       10.7390906215        5.5208233188  CLST          64          1.0000000000
       192        64  TIP3  H2           -1.6211185408       11.7017578564        6.1677486031  CLST          64          1.0000000000
       193        65  TIP3  OH2          10.8822238817       -4.2123566670       -5.3665827230  CLST          65          1.0000000000
       194        65  TIP3  H1           11.1441573828       -3.9169122426       -6.2880037844  CLST          65          1.0000000000
       195        65  TIP3  H2           10.7357072551       -3.3012595280       -4.9408180807  CLST          65          1.0000000000
       196        66  TIP3  OH2           6.3630947247       -9.8669558380        9.3154236813  CLST          66          1.0000000000
       197        66  TIP3  H1            5.6990223341       -9.5853739510        8.5961712878  CLST          66          1.0000000000
       198        66  TIP3  H2            7.0793887838       -9.2576420369        9.0389131568  CLST          66          1.0000000000
       199        67  TIP3  OH2         -11.5336960513       -7.6471787272       -4.0023746238  CLST          67          1.0000000000
       200        67  TIP3  H1          -10.8001665736       -7.0728693954       -4.3188638439  CLST          67          1.0000000000
       201        67  TIP3  H2          -11.9231541311       -7.9559361080       -4.7785138895  CLST          67          1.0000000000
       202        68  TIP3  OH2          -0.6705711559       -5.4485381988        5.3506162332  CLST          68          1.0000000000
       203        68  TIP3  H1            0.3736954738       -5.6855779800        5.4771944914  CLST          68          1.0000000000
       204        68  TIP3  H2           -0.8445848761       -5.3766714094        6.3003823551  CLST          68          1.0000000000
       205        69  TIP3  OH2           8.0576629942       11.6884383758       -8.8343939856  CLST          69          1.0000000000
       206        69  TIP3  H1            8.5119607922       11.1928864917       -9.5605077906  CLST          69          1.0000000000
       207        69  TIP3  H2            8.8652422427       11.8455665620       -8.2678587363  CLST          69          1.0000000000
       208        70  TIP3  OH2          -0.9935657143      -12.5579506135       -0.4797177900  CLST          70          1.0000000000
       209        70  TIP3  H1           -0.0074715489      -12.6529570772       -0.5239372254  CLST          70          1.0000000000
       210        70  TIP3  H2           -1.1544673815      -12.9264674430        0.4259897464  CLST          70          1.0000000000
       211        71  TIP3  OH2         -10.3149425404       -7.3800560666        1.9445936358  CLST          71          1.0000000000
       212        71  TIP3  H1          -10.6941872651       -6.6515216997        2.4744142446  CLST          71          1.0000000000
       213        71  TIP3  H2          -10.7562415143       -7.4245478015        1.0948222485  CLST          71          1.0000000000
       214        72  TIP3  OH2           0.2370278234        2.0464901892       -1.5680371965  CLST          72          1.0000000000
       215        72  TIP3  H1           -0.2612257689        1.1685831863       -1.5963372895  CLST          72          1.0000000000
       216        72  TIP3  H2            1.0171396975        1.7699025528       -2.0237676969  CLST          72          1.0000000000
       217        73  TIP3  OH2          -9.7267533874       13.1882491318        7.4015710663  CLST          73          1.0000000000
       218        73  TIP3  H1           -9.8422990141       12.4112705201        6.7636031754  CLST          73          1.0000000000
       219        73  TIP3  H2          -10.3861708247       13.7859703482        6.6751711392  CLST          73          1.0000000000
       220        74  TIP3  OH2           6.5579353879       -2.7439170717       -3.7080367122  CLST          74          1.0000000000
       221        74  TIP3  H1            6.3797283916       -3.5980280221       -3.2271972872  CLST          74          1.0000000000
       222        74  TIP3  H2            7.4992922057       -2.6257900014       -3.4595573821  CLST          74          1.0000000000
       223        75  TIP3  OH2           2.8741586932      -13.2188495393       -6.6294032254  CLST          75          1.0000000000
       224        75  TIP3  H1            3.1379425921      -12.4120874615       -6.1123529223  CLST          75          1.0000000000
       225        75  TIP3  H2            2.8383215961      -13.7569810741       -5.7548948823  CLST          75          1.0000000000
       226        76  TIP3  OH2           3.9550865299       -9.7887937841        1.3209693075  CLST          76          1.0000000000
       227        76  TIP3  H1            4.0600611024       -8.8785836673        1.6192125451  CLST          76          1.0000000000
       228        76  TIP3  H2            3.0346898523      -10.0295383274        1.6216518941  CLST          76          1.0000000000
       229        77  TIP3  OH2          10.3607973024       -8.2586123894       -2.7121545956  CLST          77          1.0000000000
       230        77  TIP3  H1            9.7277134278       -9.0263470290       -2.5029790238  CLST          77          1.0000000000
       231        77  TIP3  H2           10.3009846716       -8.3031342124       -3.6875635293  CLST          77          1.0000000000
       232        78  TIP3  OH2          10.6560745148       11.8222034157       -7.8244661895  CLST          78          1.0000000000
       233        78  TIP3  H1           11.3230186699       11.1564172764       -8.0741991621  CLST          78          1.0000000000
       234        78  TIP3  H2           11.1937081429       12.5684846616       -7.8766357158  CLST          78          1.0000000000
       235        79  TIP3  OH2          12.7264193320        0.6934748522        1.1151036177  CLST          79          1.0000000000
       236        79  TIP3  H1           13.1112723547        0.3660579908        1.8737841360  CLST          79          1.0000000000
       237        79  TIP3  H2           12.1121584603        1.4175529882        1.4380057343  CLST          79          1.0000000000
       238        80  TIP3  OH2          -7.5053237653       -0.0645752291        6.7643967208  CLST          80          1.0000000000
       239        80  TIP3  H1           -7.5821677612        0.4493675050        5.9259626107  CLST          80          1.0000000000
       240        80  TIP3  H2           -6.5609180064       -0.3661140299        6.7237780870  CLST          80          1.0000000000
       241        81  TIP3  OH2          -7.5732483570      -10.9637952264        2.2871926764  CLST          81          1.0000000000
       242        81  TIP3  H1           -6.7482239028      -11.0424157542        1.6916820942  CLST          81          1.0000000000
       243        81  TIP3  H2           -7.1951508212      -11.2640291993        3.1743898603  CLST          81          1.0000000000
       244        82  TIP3  OH2          -1.7341197524       -9.9133917274       -6.6409730296  CLST          82          1.0000000000
       245        82  TIP3  H1           -2.7265229888       -9.8019332966       -6.5803058716  CLST          82          1.0000000000
       246        82  TIP3  H2           -1.6262970883      -10.7751912647       -6.2044836260  CLST          82          1.0000000000
       247        83  TIP3  OH2          12.3601646044       -8.6054683358        1.5377097003  CLST          83          1.0000000000
       248        83  TIP3  H1           12.6989343191       -8.0867486389        2.3272800358  CLST          83          1.0000000000
       249        83  TIP3  H2           11.4058375870       -8.2585882577        1.5196585774  CLST          83          1.0000000000
       250        84  TIP3  OH2          -3.6971977250       10.9807456503       -2.1098137724  CLST          84          1.0000000000
       251        84  TIP3  H1           -4.5299107323       10.9500649641       -2.6886161265  CLST          84          1.0000000000
       252        84  TIP3  H2           -3.8117027591       11.8161087433       -1.7644325157  CLST          84          1.0000000000
       253        85  TIP3  OH2           5.8368555614       -2.0887355313        0.2163412183  CLST          85          1.0000000000
       254        85  TIP3  H1            5.9462197086       -1.4839483926        0.9832133602  CLST          85          1.0000000000
       255        85  TIP3  H2            6.4724846610       -2.7920228563        0.4461543165  CLST          85          1.0000000000
       256        86  TIP3  OH2           6.5971515914       -8.3373162851        5.7176353445  CLST          86          1.0000000000
       257        86  TIP3  H1            5.9816273479       -8.6991553422        6.3916576688  CLST          86          1.0000000000
       258        86  TIP3  H2            6.1018412973       -7.5288211158        5.5647708656  CLST          86          1.0000000000
       259        87  TIP3  OH2          -1.4146195422       -3.6677880982       10.4960507527  CLST          87          1.0000000000
       260        87  TIP3  H1           -0.9389522765       -4.0827896263       11.3035760348  CLST          87          1.0000000000
       261        87  TIP3  H2           -2.3186890154       -3.9904012860       10.7165768456  CLST          87          1.0000000000
       262        88  TIP3  OH2          -0.7596185667        4.4287579083       -7.9639079192  CLST          88          1.0000000000
       263        88  TIP3  H1           -1.2313355631        3.5826417621       -7.7741823514  CLST          88          1.0000000000
       264        88  TIP3  H2           -1.6241182372        4.9524224508       -8.1499702677  CLST          88          1.0000000000
       265        89  TIP3  OH2           3.4449650538        0.8389196374      -11.8029250418  CLST          89          1.0000000000
       266        89  TIP3  H1            3.0830274419        1.3127119409      -12.5040778319  CLST          89          1.0000000000
       267        89  TIP3  H2            3.7775381025        0.0329815945      -12.1406023231  CLST          89          1.0000000000
       268        90  TIP3  OH2           5.4618018046       11.0576031419       -5.4487285053  CLST          90          1.0000000000
       269        90  TIP3  H1            5.1435148506       11.7880447877       -4.8128038500  CLST          90          1.0000000000
       270        90  TIP3  H2            5.5900847842       11.6498634688       -6.2625365792  CLST          90          1.0000000000
       271        91  TIP3  OH2           5.9094169988       -7.9717158162      -12.2858021209  CLST          91          1.0000000000
       272        91  TIP3  H1            6.2513339479       -8.8929856909      -12.3294493082  CLST          91          1.0000000000
       273        91  TIP3  H2            6.7626718122       -7.4995442540      -12.1299894764  CLST          91          1.0000000000
       274        92  TIP3  OH2           9.7910349623       11.5901493568        2.5437510728  CLST          92          1.0000000000
       275        92  TIP3  H1           10.1193705236       11.9349086917        3.4036091146  CLST          92          1.0000000000
       276        92  TIP3  H2            9.3843260702       12.3736496582        2.1432949174  CLST          92          1.0000000000
       277        93  TIP3  OH2          -8.6539794631        7.2639312938        2.6631129079  CLST          93          1.0000000000
       278        93  TIP3  H1           -8.4841324035        8.2243182617        2.4503395495  CLST          93          1.0000000000
       279        93  TIP3  H2           -7.7788801899        6.8877422217        2.5706605522  CLST          93          1.0000000000
       280        94  TIP3  OH2         -14.1188275965        6.6561021768        6.4190190629  CLST          94          1.0000000000
       281        94  TIP3  H1          -13.5361862933        7.4456380709        6.3289786854  CLST          94          1.0000000000
       282        94  TIP3  H2          -14.3159509268        6.4987741851        5.4853708675  CLST          94          1.0000000000
       283        95  TIP3  OH2           9.7057580777        5.8110967040       -1.7773538580  CLST          95          1.0000000000
       284        95  TIP3  H1            9.6724333044        5.9839287448       -0.8003912705  CLST          95          1.0000000000
       285        95  TIP3  H2           10.5079626811        5.2189713429       -1.7272399260  CLST          95          1.0000000000
       286        96  TIP3  OH2           9.6034055074      -10.9636368090       11.3124551350  CLST          96          1.0000000000
       287        96  TIP3  H1           10.4037058505      -11.2477268582       10.7382493444  CLST          96          1.0000000000
       288        96  TIP3  H2            9.1137006687      -11.7787329176       11.3141467633  CLST          96          1.0000000000
       289        97  TIP3  OH2          -7.5372880346        6.8409291623        8.5514988785  CLST          97          1.0000000000
       290        97  TIP3  H1           -7.2132905423        5.3838046440        8.9089104977  CLST          97          1.0000000000
       291        97  TIP3  H2           -8.6175115779        6.4933716008        8.3368570421  CLST          97          1.0000000000
       292        98  TIP3  OH2           5.9642038703        0.6064594166       -3.4725468335  CLST          98          1.0000000000
       293        98  TIP3  H1            6.6374162341        0.2746912791       -2.7831279754  CLST          98          1.0000000000
       294        98  TIP3  H2            5.2025624135        0.0710513125       -3.1027746410  CLST          98          1.0000000000
       295        99  TIP3  OH2          -6.8428658157      -11.4754336596        4.9208666562  CLST          99          1.0000000000
       296        99  TIP3  H1           -7.0585928342      -11.2703707867        5.8753804162  CLST          99          1.0000000000
       297        99  TIP3  H2           -6.0361863151      -12.0057850428        5.1576217416  CLST          99          1.0000000000
       298       100  TIP3  OH2           2.4553406840        0.4398496344       -9.1397116675  CLST         100          1.0000000000
       299       100  TIP3  H1            2.8955751979        0.4775813765      -10.0308320329  CLST         100          1.0000000000
       300       100  TIP3  H2            2.6805152560        1.3968968460       -8.9003374184  CLST         100          1.0000000000
       301       101  TIP3  OH2          12.8026882278       -6.8186426858        3.8229707794  CLST         101          1.0000000000
       302       101  TIP3  H1           12.8063797464       -7.4085361633        4.6240905233  CLST         101          1.0000000000
       303       101  TIP3  H2           13.3848996870       -6.0830010683        4.1566706574  CLST         101          1.0000000000
       304       102  TIP3  OH2         -12.1363157444       10.3590053909        1.3601091269  CLST         102          1.0000000000
       305       102  TIP3  H1          -12.8297178522        9.9920454521        1.9692754879  CLST         102          1.0000000000
       306       102  TIP3  H2          -12.5664674253        9.9110371142        0.5770066470  CLST         102          1.0000000000
       307       103  TIP3  OH2          -0.5586266247       -9.2410301347        7.6181330679  CLST         103          1.0000000000
       308       103  TIP3  H1            0.1412160710       -9.4066459287        8.2975859020  CLST         103          1.0000000000
       309       103  TIP3  H2           -1.1044917750      -10.0677487654        7.7653657720  CLST         103          1.0000000000
       310       104  TIP3  OH2          -4.3705744325      -12.1662643344        9.9855480071  CLST         104          1.0000000000
       311       104  TIP3  H1           -4.9750682729      -11.5793773538       10.5036521033  CLST         104          1.0000000000
       312       104  TIP3  H2           -4.9270964805      -12.9222345055        9.7690428744  CLST         104          1.0000000000
       313       105  TIP3  OH2          -5.2561474625       10.6917814843      -11.4806217157  CLST         105          1.0000000000
       314       105  TIP3  H1           -4.7842047194       11.1006609930      -12.2413003904  CLST         105          1.0000000000
       315       105  TIP3  H2           -5.7136388766        9.9830648481      -11.9722591600  CLST         105          1.0000000000
       316       106  TIP3  OH2           7.4577792427       -7.9474603260       -1.4133724383  CLST         106          1.0000000000
       317       106  TIP3  H1            8.2393500615       -7.3842734510       -1.5077926138  CLST         106          1.0000000000
       318       106  TIP3  H2            7.7301007735       -8.8625900557       -1.3195751215  CLST         106          1.0000000000
       319       107  TIP3  OH2          -8.3897162901       -4.7617917261        5.1013184199  CLST         107          1.0000000000
       320       107  TIP3  H1           -8.8361546359       -4.3385243023        4.3390698741  CLST         107          1.0000000000
       321       107  TIP3  H2           -7.4918700160       -4.4272591638        4.9137459560  CLST         107          1.0000000000
       322       108  TIP3  OH2         -10.5361771635        2.0172228026        9.5345049470  CLST         108          1.0000000000
       323       108  TIP3  H1           -9.6017751141        1.5941281395        9.4101697354  CLST         108          1.0000000000
       324       108  TIP3  H2          -11.0243315322        1.2258655563        9.8465670661  CLST         108          1.0000000000
       325       109  TIP3  OH2           2.4083886774        7.0555540386        8.7715935602  CLST         109          1.0000000000
       326       109  TIP3  H1            1.7514914244        6.5247424742        9.2769814797  CLST         109          1.0000000000
       327       109  TIP3  H2            3.1638799567        6.3952638395        8.7008715660  CLST         109          1.0000000000
       328       110  TIP3  OH2           1.7041334990       12.4158001705      -11.2257680868  CLST         110          1.0000000000
       329       110  TIP3  H1            2.1146571568       13.2494811171      -11.1894103884  CLST         110          1.0000000000
       330       110  TIP3  H2            1.1514576689       12.2907947706      -10.4147310397  CLST         110          1.0000000000
       331       111  TIP3  OH2          11.9365337081      -11.7320578337        9.5584582224  CLST         111          1.0000000000
       332       111  TIP3  H1           12.7651428961      -12.0885296478        9.7416281756  CLST         111          1.0000000000
       333       111  TIP3  H2           11.4879975734      -12.5495085209        9.2132336863  CLST         111          1.0000000000
       334       112  TIP3  OH2           6.5864244737       -0.0794783748        1.7680205387  CLST         112          1.0000000000
       335       112  TIP3  H1            7.1999627642        0.6697870499        1.9187502030  CLST         112          1.0000000000
       336       112  TIP3  H2            6.3114997417       -0.2239699848        2.7001167532  CLST         112          1.0000000000
       337       113  TIP3  OH2         -13.0761332547        1.0010311806        0.0113332490  CLST         113          1.0000000000
       338       113  TIP3  H1          -13.5569439556        0.0963999983        0.0197545425  CLST         113          1.0000000000
       339       113  TIP3  H2          -12.6176046926        0.8712815137       -0.8418667196  CLST         113          1.0000000000
       340       114  TIP3  OH2         -13.8904065489        3.6592045634       -0.2488059603  CLST         114          1.0000000000
       341       114  TIP3  H1          -13.7426247411        2.7198251511        0.0318728931  CLST         114          1.0000000000
       342       114  TIP3  H2          -13.3797422847        3.5758192251       -1.0963722870  CLST         114          1.0000000000
       343       115  TIP3  OH2          -8.9142426887        0.4100968675      -10.7951031634  CLST         115          1.0000000000
       344       115  TIP3  H1           -8.2920846260        0.9692585300      -11.3818306574  CLST         115          1.0000000000
       345       115  TIP3  H2           -9.2457623304        1.2368568363      -10.3567506498  CLST         115          1.0000000000
       346       116  TIP3  OH2           7.0301375901       -5.7285737684        2.0726640839  CLST         116          1.0000000000
       347       116  TIP3  H1            7.7817851104       -6.1137995287        1.6077513077  CLST         116          1.0000000000
       348       116  TIP3  H2            7.1144700013       -4.7759438807        2.2501087987  CLST         116          1.0000000000
       349       117  TIP3  OH2          -0.6913363049        0.0546689004       12.5105998090  CLST         117          1.0000000000
       350       117  TIP3  H1            0.1861052192       -0.4210822239       12.7098443467  CLST         117          1.0000000000
       351       117  TIP3  H2           -0.7583852497        0.5918595320       13.3258381216  CLST         117          1.0000000000
       352       118  TIP3  OH2           0.1746800221       -9.5134925278        5.0621597526  CLST         118          1.0000000000
       353       118  TIP3  H1           -0.0563817380       -9.3596355041        6.0064680957  CLST         118          1.0000000000
       354       118  TIP3  H2           -0.2748913121       -8.7595383449        4.5824819202  CLST         118          1.0000000000
       355       119  TIP3  OH2          -9.2189822989      -10.5652201026       -8.7401257501  CLST         119          1.0000000000
       356       119  TIP3  H1           -9.4578879415      -10.9035203968       -9.6585027658  CLST         119          1.0000000000
       357       119  TIP3  H2           -8.6871370496       -9.7992374783       -9.0197817771  CLST         119          1.0000000000
       358       120  TIP3  OH2           9.6225697770       -8.0670058290        1.2882873442  CLST         120          1.0000000000
       359       120  TIP3  H1            9.0286376774       -8.7889307856        0.9638006641  CLST         120          1.0000000000
       360       120  TIP3  H2            9.4800106503       -7.3583396268        0.6041997646  CLST         120          1.0000000000
       361       121  TIP3  OH2          -5.5451800123       -0.1765937689       -8.0985309181  CLST         121          1.0000000000
       362       121  TIP3  H1           -5.4672291539       -0.0291602685       -9.0622957084  CLST         121          1.0000000000
       363       121  TIP3  H2           -4.7463868060       -0.8017156140       -8.0361598307  CLST         121          1.0000000000
       364       122  TIP3  OH2          10.4628348383       12.1050870562        5.1984044970  CLST         122          1.0000000000
       365       122  TIP3  H1            9.5578836441       12.4667474830        5.4895441621  CLST         122          1.0000000000
       366       122  TIP3  H2           11.0079831024       12.1611964721        5.9930969835  CLST         122          1.0000000000
       367       123  TIP3  OH2          -7.4939525145       -5.5094256161      -11.2027466780  CLST         123          1.0000000000
       368       123  TIP3  H1           -6.7255384265       -6.0299412442      -11.3901238944  CLST         123          1.0000000000
       369       123  TIP3  H2           -7.3615819654       -5.5189183188      -10.2240526066  CLST         123          1.0000000000
       370       124  TIP3  OH2          -6.1040662765       -8.5659458937      -10.7182045630  CLST         124          1.0000000000
       371       124  TIP3  H1           -5.2665094169       -8.7851357173      -10.2292429581  CLST         124          1.0000000000
       372       124  TIP3  H2           -6.6632278464       -8.2705191833       -9.9594197382  CLST         124          1.0000000000
       373       125  TIP3  OH2         -13.4732718924        3.8194806328        7.9509698760  CLST         125          1.0000000000
       374       125  TIP3  H1          -13.1885832150        2.9908404566        7.4739851512  CLST         125          1.0000000000
       375       125  TIP3  H2          -13.6962771204        4.4859386851        7.2973314310  CLST         125          1.0000000000
       376       126  TIP3  OH2          -7.0225989817      -10.6040843104      -12.2462582065  CLST         126          1.0000000000
       377       126  TIP3  H1           -6.2510990874      -11.1825881435      -12.0413077648  CLST         126          1.0000000000
       378       126  TIP3  H2           -6.7574604727       -9.8155493580      -11.6789734758  CLST         126          1.0000000000
       379       127  TIP3  OH2          -7.3828025517      -11.6553549754       -7.0902433418  CLST         127          1.0000000000
       380       127  TIP3  H1           -7.9287640606      -12.4392308168       -6.9691122762  CLST         127          1.0000000000
       381       127  TIP3  H2           -7.9712081471      -11.2190266160       -7.7327107598  CLST         127          1.0000000000
       382       128  TIP3  OH2           9.9212235375        0.8072154199       -2.4338695292  CLST         128          1.0000000000
       383       128  TIP3  H1            8.9956915855        0.6092817316       -2.2286060571  CLST         128          1.0000000000
       384       128  TIP3  H2            9.6541084576        1.4167164412       -3.2218027068  CLST         128          1.0000000000
       385       129  TIP3  OH2          -7.8390169689        9.6775837338        1.0263956070  CLST         129          1.0000000000
       386       129  TIP3  H1           -6.9740394180       10.2156962613        1.2501046861  CLST         129          1.0000000000
       387       129  TIP3  H2           -7.3028524848        8.9279307973        0.6503124365  CLST         129          1.0000000000
       388       130  TIP3  OH2          -4.1156062511        4.1700110020        9.8521662692  CLST         130          1.0000000000
       389       130  TIP3  H1           -3.5057028235        4.9567394059        9.8210299176  CLST         130          1.0000000000
       390       130  TIP3  H2           -3.8555271981        3.7033795462       10.6817698098  CLST         130          1.0000000000
       391       131  TIP3  OH2           7.8334923504       -3.6615651166       -9.8498546596  CLST         131          1.0000000000
       392       131  TIP3  H1            7.7740382596       -2.8180696186       -9.3025386720  CLST         131          1.0000000000
       393       131  TIP3  H2            6.8445822177       -3.8333594157       -9.9007395586  CLST         131          1.0000000000
       394       132  TIP3  OH2         -11.5360066254       11.4178632781       12.2697891546  CLST         132          1.0000000000
       395       132  TIP3  H1          -11.1937053697       12.0381669654       11.5590582404  CLST         132          1.0000000000
       396       132  TIP3  H2          -12.1097146438       11.7668714039       12.7899632367  CLST         132          1.0000000000
       397       133  TIP3  OH2          10.2562192099        9.3187312325        8.5009447546  CLST         133          1.0000000000
       398       133  TIP3  H1           10.1281086510        9.2929957996        9.4721014957  CLST         133          1.0000000000
       399       133  TIP3  H2           11.1094881646        9.8283384603        8.5395807182  CLST         133          1.0000000000
       400       134  TIP3  OH2          -7.7512536489        5.6981952772       -5.9607149511  CLST         134          1.0000000000
       401       134  TIP3  H1           -8.3236826875        6.4495091570       -5.7689822942  CLST         134          1.0000000000
       402       134  TIP3  H2           -7.4002337224        5.7055137425       -5.0139471073  CLST         134          1.0000000000
       403       135  TIP3  OH2          10.6539409888      -11.2770183932      -13.1519920791  CLST         135          1.0000000000
       404       135  TIP3  H1           10.8759974953      -10.4390276323      -12.6282210293  CLST         135          1.0000000000
       405       135  TIP3  H2           11.0581252734      -11.1833523099      -13.9772246819  CLST         135          1.0000000000
       406       136  TIP3  OH2          -4.3569793394        1.8741099652       -6.8622688838  CLST         136          1.0000000000
       407       136  TIP3  H1           -4.8531201514        1.1289859434       -7.2497072715  CLST         136          1.0000000000
       408       136  TIP3  H2           -5.1366019514        2.1992265084       -6.3039132154  CLST         136          1.0000000000
       409       137  TIP3  OH2          12.8300427640       10.4035242996        9.2685301314  CLST         137          1.0000000000
       410       137  TIP3  H1           12.7851787459       10.2185628505       10.2550891496  CLST         137          1.0000000000
       411       137  TIP3  H2           13.7327345060       10.0165983175        9.1105812466  CLST         137          1.0000000000
       412       138  TIP3  OH2          -0.7847783539       -9.9698994118        1.5155730493  CLST         138          1.0000000000
       413       138  TIP3  H1           -0.9520664078       -9.7449528976        0.5876855834  CLST         138          1.0000000000
       414       138  TIP3  H2           -0.9252657706       -9.2010322494        2.0869250219  CLST         138          1.0000000000
       415       139  TIP3  OH2          -9.6013772078      -10.7001541421        4.6411256291  CLST         139          1.0000000000
       416       139  TIP3  H1          -10.1460563259      -10.8599723335        3.7977867890  CLST         139          1.0000000000
       417       139  TIP3  H2           -8.8124363109      -11.2739244004        4.3999709579  CLST         139          1.0000000000
       418       140  TIP3  OH2          -7.0283234101        3.4183182675       -0.3146926656  CLST         140          1.0000000000
       419       140  TIP3  H1           -6.1349763479        3.8905264407       -0.1689666737  CLST         140          1.0000000000
       420       140  TIP3  H2           -7.6634893986        4.1407975916       -0.4801130376  CLST         140          1.0000000000
       421       141  TIP3  OH2           1.9897008025       -4.4604226857       -3.6796417601  CLST         141          1.0000000000
       422       141  TIP3  H1            1.7031566214       -3.5461321778       -3.3555834088  CLST         141          1.0000000000
       423       141  TIP3  H2            2.6564049840       -4.0232366309       -4.2776114768  CLST         141          1.0000000000
       424       142  TIP3  OH2         -11.6644275154        0.0561829445        4.6111911530  CLST         142          1.0000000000
       425       142  TIP3  H1          -11.7221920479        0.6824130315        5.3759374859  CLST         142          1.0000000000
       426       142  TIP3  H2          -12.0743846198        0.6255762206        3.9308931131  CLST         142          1.0000000000
       427       143  TIP3  OH2           9.4347607457       -5.7594781143       -8.2330329299  CLST         143          1.0000000000
       428       143  TIP3  H1            9.5474740253       -4.9768662667       -8.8208084481  CLST         143          1.0000000000
       429       143  TIP3  H2            9.9727887899       -6.5046000661       -8.6448362325  CLST         143          1.0000000000
       430       144  TIP3  OH2           3.4469651037       -2.7754992652        9.2119886367  CLST         144          1.0000000000
       431       144  TIP3  H1            2.5374909555       -2.6328116703        9.6517097482  CLST         144          1.0000000000
       432       144  TIP3  H2            3.2298635731       -2.1607919492        8.4469594151  CLST         144          1.0000000000
       433       145  TIP3  OH2         -10.4716463085       13.3336055495        3.0750750590  CLST         145          1.0000000000
       434       145  TIP3  H1          -10.7267657357       13.1524724017        2.0987116252  CLST         145          1.0000000000
       435       145  TIP3  H2           -9.8987378301       12.5404308453        3.1432707272  CLST         145          1.0000000000
       436       146  TIP3  OH2           9.1887289063        2.6696851015       -4.1959364931  CLST         146          1.0000000000
       437       146  TIP3  H1            8.9538778585        3.6315077022       -4.0484941912  CLST         146          1.0000000000
       438       146  TIP3  H2            8.5958861612        2.6868073125       -5.0035592566  CLST         146          1.0000000000
       439       147  TIP3  OH2         -10.9663623153       -0.4351050639       -4.1806105052  CLST         147          1.0000000000
       440       147  TIP3  H1          -10.0146145546       -0.7352318645       -4.4575621769  CLST         147          1.0000000000
       441       147  TIP3  H2          -11.2650682129       -0.5877708208       -5.1202168026  CLST         147          1.0000000000
       442       148  TIP3  OH2          -8.0131275569        1.2323133133        8.9052147883  CLST         148          1.0000000000
       443       148  TIP3  H1           -7.7917968861        0.8480491143        7.9864618159  CLST         148          1.0000000000
       444       148  TIP3  H2           -7.0199146148        1.2810499239        9.1125496167  CLST         148          1.0000000000
       445       149  TIP3  OH2           8.7593518089       -2.8138131488        0.8139198947  CLST         149          1.0000000000
       446       149  TIP3  H1            9.3862352446       -2.0570568525        0.8144507706  CLST         149          1.0000000000
       447       149  TIP3  H2            8.2296331507       -2.5723790078        1.6154128670  CLST         149          1.0000000000
       448       150  TIP3  OH2          -2.1596530774      -11.4836493792        8.5346402398  CLST         150          1.0000000000
       449       150  TIP3  H1           -2.9894818275      -11.7559921480        9.0164035859  CLST         150          1.0000000000
       450       150  TIP3  H2           -1.5049336313      -11.7846228849        9.2331115601  CLST         150          1.0000000000
       451       151  TIP3  OH2          -9.1549366110       -6.5881094967       -4.9347235006  CLST         151          1.0000000000
       452       151  TIP3  H1           -8.1955800577       -6.6466466164       -4.5473201952  CLST         151          1.0000000000
       453       151  TIP3  H2           -9.0045562272       -7.4675194328       -5.4191867137  CLST         151          1.0000000000
       454       152  TIP3  OH2           3.9184277524       -1.8400897721        5.0428791845  CLST         152          1.0000000000
       455       152  TIP3  H1            4.2207931697       -2.7564842049        5.2711546106  CLST         152          1.0000000000
       456       152  TIP3  H2            3.5092964104       -2.2207822263        4.2311401556  CLST         152          1.0000000000
       457       153  TIP3  OH2          -2.7059215447        4.7312156319      -14.2621801134  CLST         153          1.0000000000
       458       153  TIP3  H1           -1.9395331747        5.3113218318      -14.2546538302  CLST         153          1.0000000000
       459       153  TIP3  H2           -2.4831442294        4.4083822831      -13.3572627632  CLST         153          1.0000000000
       460       154  TIP3  OH2           4.5122965778       -6.8468917067        2.1934284935  CLST         154          1.0000000000
       461       154  TIP3  H1            5.3835061315       -6.4172793774        1.9255909045  CLST         154          1.0000000000
       462       154  TIP3  H2            3.8758932985       -6.4626183728        1.6261924719  CLST         154          1.0000000000
       463       155  TIP3  OH2           9.3769517055       -2.8004808417       10.0561503425  CLST         155          1.0000000000
       464       155  TIP3  H1            8.8438901372       -3.2510639534        9.3534419849  CLST         155          1.0000000000
       465       155  TIP3  H2            9.4655424758       -3.5461551163       10.6692168933  CLST         155          1.0000000000
       466       156  TIP3  OH2          -2.1915929409       11.3399645537       11.5405698120  CLST         156          1.0000000000
       467       156  TIP3  H1           -3.0616148104       11.7112170696       11.3367033277  CLST         156          1.0000000000
       468       156  TIP3  H2           -2.4765754528       10.4189640467       11.5239501617  CLST         156          1.0000000000
       469       157  TIP3  OH2           3.7659859905       -0.6850964010        7.4010392878  CLST         157          1.0000000000
       470       157  TIP3  H1            4.7053274026       -0.7446583449        7.7274127973  CLST         157          1.0000000000
       471       157  TIP3  H2            3.8491409816       -1.0842158010        6.5045365495  CLST         157          1.0000000000
       472       158  TIP3  OH2          10.5934329266        9.0997927057       13.2174140752  CLST         158          1.0000000000
       473       158  TIP3  H1            9.6551450785        8.7302951866       13.2884033529  CLST         158          1.0000000000
       474       158  TIP3  H2           10.2433738288        9.7891747526       12.5869335470  CLST         158          1.0000000000
       475       159  TIP3  OH2           0.4278973932      -12.3020584426        4.3046102712  CLST         159          1.0000000000
       476       159  TIP3  H1           -0.0777272363      -12.7202873478        5.0864032848  CLST         159          1.0000000000
       477       159  TIP3  H2            0.1422328923      -11.3711045655        4.5028979968  CLST         159          1.0000000000
       478       160  TIP3  OH2           7.3497413443       -3.5169692386        8.4773634806  CLST         160          1.0000000000
       479       160  TIP3  H1            6.7257820318       -3.6769148004        7.7010160315  CLST         160          1.0000000000
       480       160  TIP3  H2            6.9341539076       -2.6229469076        8.7073443765  CLST         160          1.0000000000
       481       161  TIP3  OH2          -2.4810420819       -2.2845223597        7.7818905346  CLST         161          1.0000000000
       482       161  TIP3  H1           -2.0082646335       -1.7843302329        8.4845412409  CLST         161          1.0000000000
       483       161  TIP3  H2           -3.3560044053       -2.2543567599        8.2388717774  CLST         161          1.0000000000
       484       162  TIP3  OH2          -0.5550795463        3.7345783563      -10.6533881335  CLST         162          1.0000000000
       485       162  TIP3  H1           -0.2876038870        4.4602028342      -11.1909507733  CLST         162          1.0000000000
       486       162  TIP3  H2           -0.6537417316        3.9391694951       -9.7387492885  CLST         162          1.0000000000
       487       163  TIP3  OH2         -10.1522580158        9.0349522320       11.1922472541  CLST         163          1.0000000000
       488       163  TIP3  H1          -10.8736286906        8.3626194160       11.3624013214  CLST         163          1.0000000000
       489       163  TIP3  H2          -10.4369493765        9.7226818231       11.8364725166  CLST         163          1.0000000000
       490       164  TIP3  OH2           4.0736829038      -10.4607378111       13.1367444347  CLST         164          1.0000000000
       491       164  TIP3  H1            4.6136541759       -9.6601171510       12.8629212472  CLST         164          1.0000000000
       492       164  TIP3  H2            4.8091335660      -11.0437021843       12.7703953240  CLST         164          1.0000000000
       493       165  TIP3  OH2         -12.1042859068       -5.4280211094        3.5325930280  CLST         165          1.0000000000
       494       165  TIP3  H1          -11.8719400935       -5.4792114021        4.5089158702  CLST         165          1.0000000000
       495       165  TIP3  H2          -12.9778725353       -5.5422335117        3.5788393151  CLST         165          1.0000000000
       496       166  TIP3  OH2          -1.6721393619       -6.3530665107      -10.4332741722  CLST         166          1.0000000000
       497       166  TIP3  H1           -0.8413774513       -6.7763685822      -10.4100193205  CLST         166          1.0000000000
       498       166  TIP3  H2           -2.2529162099       -7.1109433195      -10.5604677788  CLST         166          1.0000000000
       499       167  TIP3  OH2           8.1272813079       10.6004061868       -0.9668636585  CLST         167          1.0000000000
       500       167  TIP3  H1            8.6803177047       10.0164462595       -0.3284387082  CLST         167          1.0000000000
       501       167  TIP3  H2            8.5518756549       10.2740078599       -1.7956758295  CLST         167          1.0000000000
       502       168  TIP3  OH2          -0.7490119866      -13.3402427277        2.0490953501  CLST         168          1.0000000000
       503       168  TIP3  H1           -0.5109128317      -13.0798851388        3.0076940253  CLST         168          1.0000000000
       504       168  TIP3  H2            0.1361406641      -13.6784534923        1.8366033631  CLST         168          1.0000000000
       505       169  TIP3  OH2           4.9415029091        4.0006341534        3.2454226004  CLST         169          1.0000000000
       506       169  TIP3  H1            3.9443521445        3.9148016532        3.1491174402  CLST         169          1.0000000000
       507       169  TIP3  H2            5.0628606130        4.4915982672        2.3744969490  CLST         169          1.0000000000
       508       170  TIP3  OH2          -1.1778127573        4.2339447062        1.4625953404  CLST         170          1.0000000000
       509       170  TIP3  H1           -1.8838653256        4.9424800800        1.2976931063  CLST         170          1.0000000000
       510       170  TIP3  H2           -1.6263629143        3.3710702583        1.4352215414  CLST         170          1.0000000000
       511       171  TIP3  OH2          -3.0147437450        1.3164078236        7.4103435985  CLST         171          1.0000000000
       512       171  TIP3  H1           -2.7145812809        0.8169766594        6.5887049074  CLST         171          1.0000000000
       513       171  TIP3  H2           -2.1851225163        1.8407198092        7.5086635176  CLST         171          1.0000000000
       514       172  TIP3  OH2          -6.4505855441      -13.1540953689        8.0690023435  CLST         172          1.0000000000
       515       172  TIP3  H1           -6.9462409352      -13.7534734489        7.5459991222  CLST         172          1.0000000000
       516       172  TIP3  H2           -5.7135437566      -12.8925434977        7.4498025139  CLST         172          1.0000000000
       517       173  TIP3  OH2          10.1173761605      -12.6926339818        1.7513304661  CLST         173          1.0000000000
       518       173  TIP3  H1           10.2926453125      -12.4690385839        0.7759771096  CLST         173          1.0000000000
       519       173  TIP3  H2            9.1537465318      -12.8714615427        1.8000150266  CLST         173          1.0000000000
       520       174  TIP3  OH2           0.0817405298        5.5118741114        9.5930542945  CLST         174          1.0000000000
       521       174  TIP3  H1            0.0634876976        4.6283382114       10.0114641271  CLST         174          1.0000000000
       522       174  TIP3  H2           -0.8619625892        5.8127279049        9.7358994475  CLST         174          1.0000000000
       523       175  TIP3  OH2          -5.7799811548       10.2871225414       -3.6545610402  CLST         175          1.0000000000
       524       175  TIP3  H1           -5.3672951649       10.1204954010       -4.5621968235  CLST         175          1.0000000000
       525       175  TIP3  H2           -6.6664084132        9.9513966644       -4.0346693044  CLST         175          1.0000000000
       526       176  TIP3  OH2           6.7969621537        9.2166108021       -7.6893017278  CLST         176          1.0000000000
       527       176  TIP3  H1            7.1066419214       10.1015959845       -8.0062074088  CLST         176          1.0000000000
       528       176  TIP3  H2            6.1772561353        9.6138404184       -7.0254991635  CLST         176          1.0000000000
       529       177  TIP3  OH2          -3.6743565412      -11.4068290394       -1.4588850349  CLST         177          1.0000000000
       530       177  TIP3  H1           -3.1514530225      -11.9739116894       -0.9017771290  CLST         177          1.0000000000
       531       177  TIP3  H2           -4.4242068272      -11.2370259967       -0.7963449099  CLST         177          1.0000000000
       532       178  TIP3  OH2          10.7278665777       -9.1166488992      -11.4311949979  CLST         178          1.0000000000
       533       178  TIP3  H1           11.0925429489       -8.9120455822      -10.5235049240  CLST         178          1.0000000000
       534       178  TIP3  H2           10.6111478722       -8.2240986288      -11.7573967790  CLST         178          1.0000000000
       535       179  TIP3  OH2           6.5237822754       -0.8746431094        8.5041490741  CLST         179          1.0000000000
       536       179  TIP3  H1            6.2329368511       -0.2314472180        9.2216528206  CLST         179          1.0000000000
       537       179  TIP3  H2            6.9679395012       -0.1911311443        7.9506970879  CLST         179          1.0000000000
       538       180  TIP3  OH2          -7.6272094334        8.1547150865        5.9446461468  CLST         180          1.0000000000
       539       180  TIP3  H1           -7.2780572246        7.8500210271        6.8198867617  CLST         180          1.0000000000
       540       180  TIP3  H2           -8.5515440117        7.9047702893        6.1892336702  CLST         180          1.0000000000
       541       181  TIP3  OH2           5.9579858494      -13.0252163389       -0.4055894948  CLST         181          1.0000000000
       542       181  TIP3  H1            6.5433514184      -12.6542753098       -1.0645377600  CLST         181          1.0000000000
       543       181  TIP3  H2            6.3692625874      -12.9209380500        0.4574867869  CLST         181          1.0000000000
       544       182  TIP3  OH2          -1.6513469292       10.6057901747      -10.3511025373  CLST         182          1.0000000000
       545       182  TIP3  H1           -0.8996300172       10.9874245922       -9.7841809867  CLST         182          1.0000000000
       546       182  TIP3  H2           -2.3625604657       10.6767865529       -9.6658348650  CLST         182          1.0000000000
       547       183  TIP3  OH2          -5.5242365705        3.5841245960      -12.3007167295  CLST         183          1.0000000000
       548       183  TIP3  H1           -5.3002060642        3.5278925280      -11.3281233773  CLST         183          1.0000000000
       549       183  TIP3  H2           -6.3942544996        3.0600525524      -12.2891627174  CLST         183          1.0000000000
       550       184  TIP3  OH2           2.9595810316        8.2892929861       -2.2966239856  CLST         184          1.0000000000
       551       184  TIP3  H1            3.0324477926        7.5229509913       -1.6629223386  CLST         184          1.0000000000
       552       184  TIP3  H2            2.0529519825        7.9797929656       -2.5800217874  CLST         184          1.0000000000
       553       185  TIP3  OH2           7.5629647858        4.6443822549       12.1558122362  CLST         185          1.0000000000
       554       185  TIP3  H1            7.7226176053        3.6706149351       12.1921012150  CLST         185          1.0000000000
       555       185  TIP3  H2            7.1275023065        4.8585830167       13.0236461780  CLST         185          1.0000000000
       556       186  TIP3  OH2           3.9098549829        5.9270778036       -5.0958614626  CLST         186          1.0000000000
       557       186  TIP3  H1            4.0719959857        6.8830169405       -5.2036296036  CLST         186          1.0000000000
       558       186  TIP3  H2            4.0303180144        5.6284203086       -6.0387527568  CLST         186          1.0000000000
       559       187  TIP3  OH2           4.1861715664        1.6450890975       -5.4608176234  CLST         187          1.0000000000
       560       187  TIP3  H1            4.4740503616        1.6232322574       -4.5013113300  CLST         187          1.0000000000
       561       187  TIP3  H2            3.7378209119        0.7277140423       -5.4670049183  CLST         187          1.0000000000
       562       188  TIP3  OH2          -4.7466371080       -1.5156602399        4.6444505355  CLST         188          1.0000000000
       563       188  TIP3  H1           -4.6588154465       -0.6724825993        4.1475895103  CLST         188          1.0000000000
       564       188  TIP3  H2           -4.7279157029       -1.2172341343        5.5922495134  CLST         188          1.0000000000
       565       189  TIP3  OH2          -5.0314120719        3.4799963188      -15.1052194671  CLST         189          1.0000000000
       566       189  TIP3  H1           -5.0734364245        3.6412705218      -14.1443227846  CLST         189          1.0000000000
       567       189  TIP3  H2           -4.1013564346        3.8698913755      -15.1428226461  CLST         189          1.0000000000
       568       190  TIP3  OH2           7.4247815917       -5.6182425158        5.2141189298  CLST         190          1.0000000000
       569       190  TIP3  H1            7.4369655717       -5.9042697530        4.2968130074  CLST         190          1.0000000000
       570       190  TIP3  H2            8.3681034800       -5.5893303305        5.3562635008  CLST         190          1.0000000000
       571       191  TIP3  OH2         -10.8995625208       -4.9178597072       -6.4567176933  CLST         191          1.0000000000
       572       191  TIP3  H1          -10.1330007267       -4.5755095021       -6.9339920100  CLST         191          1.0000000000
       573       191  TIP3  H2          -10.4808997166       -5.7088706503       -6.0916143703  CLST         191          1.0000000000
       574       192  TIP3  OH2           8.7567476571       14.3536042520        1.9074342774  CLST         192          1.0000000000
       575       192  TIP3  H1            8.2034535053       14.4326634216        2.6450884230  CLST         192          1.0000000000
       576       192  TIP3  H2            9.2371574539       15.1537505392        1.8564823268  CLST         192          1.0000000000
       577       193  TIP3  OH2           6.0815592180      -12.1819648400       11.7078651112  CLST         193          1.0000000000
       578       193  TIP3  H1            6.6579466251      -12.9484880754       11.5542704872  CLST         193          1.0000000000
       579       193  TIP3  H2            6.2888790926      -11.5321650088       11.0081371473  CLST         193          1.0000000000
       580       194  TIP3  OH2          -6.3067787643       -4.4503785486       11.0847901637  CLST         194          1.0000000000
       581       194  TIP3  H1           -6.7921995442       -4.2203390520       11.8847122989  CLST         194          1.0000000000
       582       194  TIP3  H2           -6.9674802145       -4.1206768788       10.4320650856  CLST         194          1.0000000000
       583       195  TIP3  OH2          -7.5073631191        9.0458776901       10.3206325036  CLST         195          1.0000000000
       584       195  TIP3  H1           -8.3928684983        8.8776852013       10.7653251886  CLST         195          1.0000000000
       585       195  TIP3  H2           -7.6411012730        8.4579044954        9.5545500720  CLST         195          1.0000000000
       586       196  TIP3  OH2           6.0645831082      -12.2890954164       -5.8021576374  CLST         196          1.0000000000
       587       196  TIP3  H1            6.3167786216      -11.6292959112       -6.5394934098  CLST         196          1.0000000000
       588       196  TIP3  H2            5.2070207620      -11.8697638306       -5.6966560873  CLST         196          1.0000000000
       589       197  TIP3  OH2           2.1668411662       -9.0805449775       -2.7410409321  CLST         197          1.0000000000
       590       197  TIP3  H1            1.7698706108       -8.1648138160       -2.5977143232  CLST         197          1.0000000000
       591       197  TIP3  H2            3.0825001544       -8.7585319517       -2.6525064239  CLST         197          1.0000000000
       592       198  TIP3  OH2          10.9465045165        1.8471154521        4.5625392773  CLST         198          1.0000000000
       593       198  TIP3  H1           10.1568544660        1.6722019273        3.9924167528  CLST         198          1.0000000000
       594       198  TIP3  H2           10.9716026998        2.8088206845        4.3444949657  CLST         198          1.0000000000
       595       199  TIP3  OH2          -0.1451138547        8.4012790150       -5.8908599637  CLST         199          1.0000000000
       596       199  TIP3  H1           -0.7255529785        8.7885953635       -5.2159423305  CLST         199          1.0000000000
       597       199  TIP3  H2           -0.4024892554        7.4169833678       -5.7831875337  CLST         199          1.0000000000
       598       200  TIP3  OH2          -7.5372723914       11.8972372193       10.8732299112  CLST         200          1.0000000000
       599       200  TIP3  H1           -7.5799030894       10.9271291948       10.8695235817  CLST         200          1.0000000000
       600       200  TIP3  H2           -7.3493520075       12.0969913417        9.9240759163  CLST         200          1.0000000000
       601       201  TIP3  OH2           4.4432780916        0.9218744572       -0.0466238722  CLST         201          1.0000000000
       602       201  TIP3  H1            4.1021667587        1.3991945999        0.7283739055  CLST         201          1.0000000000
       603       201  TIP3  H2            5.3017539410        0.6538259142        0.3109948614  CLST         201          1.0000000000
       604       202  TIP3  OH2          -2.0848384719       -4.2232300611      -12.3667155738  CLST         202          1.0000000000
       605       202  TIP3  H1           -1.8060310054       -4.9248264781      -11.7479675903  CLST         202          1.0000000000
       606       202  TIP3  H2           -2.7472297574       -3.8043814078      -11.7932882605  CLST         202          1.0000000000
       607       203  TIP3  OH2          -0.8557110276       11.3981213603        7.5483782736  CLST         203          1.0000000000
       608       203  TIP3  H1           -0.0090883225       10.9971578790        7.8511507450  CLST         203          1.0000000000
       609       203  TIP3  H2           -1.5181298367       10.8948922928        8.1347699328  CLST         203          1.0000000000
       610       204  TIP3  OH2          -5.4997851347        6.3132829222      -13.1086574641  CLST         204          1.0000000000
       611       204  TIP3  H1           -4.8369437309        6.0994740903      -13.8049811349  CLST         204          1.0000000000
       612       204  TIP3  H2           -5.7923345939        5.3893696077      -12.9428285898  CLST         204          1.0000000000
       613       205  TIP3  OH2          -2.4186331341        7.1671674510       -2.6437939858  CLST         205          1.0000000000
       614       205  TIP3  H1           -2.4325704934        7.8788718008       -3.3532193956  CLST         205          1.0000000000
       615       205  TIP3  H2           -1.3886041941        7.1891081584       -2.5269560449  CLST         205          1.0000000000
       616       206  TIP3  OH2           4.9288889705      -11.1480949318       -9.7871897148  CLST         206          1.0000000000
       617       206  TIP3  H1            4.9756202603      -12.0831352339       -9.3871326268  CLST         206          1.0000000000
       618       206  TIP3  H2            5.6125403497      -10.7340783287       -9.1791087491  CLST         206          1.0000000000
       619       207  TIP3  OH2          12.8501270870       10.2373483826       12.0931512107  CLST         207          1.0000000000
       620       207  TIP3  H1           12.3045396875        9.8177894382       12.7759383842  CLST         207          1.0000000000
       621       207  TIP3  H2           13.6802279729       10.1131469400       12.3805074319  CLST         207          1.0000000000
       622       208  TIP3  OH2         -11.6190431112        2.2997057846        6.9052598466  CLST         208          1.0000000000
       623       208  TIP3  H1          -11.2837087959        2.1377785306        7.8100572177  CLST         208          1.0000000000
       624       208  TIP3  H2          -11.2464426232        3.2305517765        6.7531577354  CLST         208          1.0000000000
       625       209  TIP3  OH2           4.6246507424       -9.2138722417        7.2627327004  CLST         209          1.0000000000
       626       209  TIP3  H1            4.1393000294       -9.6092642180        6.4874934482  CLST         209          1.0000000000
       627       209  TIP3  H2            3.8243545940       -8.6339888924        7.4038308852  CLST         209          1.0000000000
       628       210  TIP3  OH2          12.2074482693      -11.2841337813        5.1965565496  CLST         210          1.0000000000
       629       210  TIP3  H1           12.5261621501      -11.2707099189        4.2313632502  CLST         210          1.0000000000
       630       210  TIP3  H2           12.4050758694      -10.4420723870        5.6328685086  CLST         210          1.0000000000
       631       211  TIP3  OH2          -0.2199596417       -9.2019868942       12.2155998937  CLST         211          1.0000000000
       632       211  TIP3  H1            0.2736800895       -9.7326040662       12.8961314948  CLST         211          1.0000000000
       633       211  TIP3  H2           -0.8706943486       -9.9414969830       12.0374866132  CLST         211          1.0000000000
       634       212  TIP3  OH2         -12.3761000836        3.5195578803       -2.5303635732  CLST         212          1.0000000000
       635       212  TIP3  H1          -11.7652425857        4.1400705083       -3.0122299136  CLST         212          1.0000000000
       636       212  TIP3  H2          -11.8770250062        2.6553039682       -2.6340715653  CLST         212          1.0000000000
       637       213  TIP3  OH2          -9.3596986001      -11.3400696232      -11.5448904886  CLST         213          1.0000000000
       638       213  TIP3  H1           -9.8008701374      -11.7584247643      -12.1388136100  CLST         213          1.0000000000
       639       213  TIP3  H2           -8.3347270556      -11.0416057797      -11.9110766226  CLST         213          1.0000000000
       640       214  TIP3  OH2          -6.4870677735        2.2525222840       -5.4231308281  CLST         214          1.0000000000
       641       214  TIP3  H1           -6.4576221514        1.4006786285       -4.8566204598  CLST         214          1.0000000000
       642       214  TIP3  H2           -7.0110546034        2.7588509169       -4.7477768490  CLST         214          1.0000000000
       643       215  TIP3  OH2         -11.9745735972      -12.7176114511        5.6971473768  CLST         215          1.0000000000
       644       215  TIP3  H1          -11.1718447387      -12.2083243717        5.4705061193  CLST         215          1.0000000000
       645       215  TIP3  H2          -12.1139326676      -12.9368210667        4.7340990976  CLST         215          1.0000000000
       646       216  TIP3  OH2         -11.8777986216       -2.2740235235        8.0480100992  CLST         216          1.0000000000
       647       216  TIP3  H1          -10.8593086044       -2.1344205778        8.0879754441  CLST         216          1.0000000000
       648       216  TIP3  H2          -11.8880719141       -3.1492054028        8.4616725753  CLST         216          1.0000000000
       649       217  TIP3  OH2           7.5879479332       -0.3474736685       -1.5697674209  CLST         217          1.0000000000
       650       217  TIP3  H1            8.1830577589       -1.0510634314       -1.9329200720  CLST         217          1.0000000000
       651       217  TIP3  H2            7.1878151692       -0.8006379499       -0.7915496055  CLST         217          1.0000000000
       652       218  TIP3  OH2          -8.1791834249       -4.0226415862        9.2028858389  CLST         218          1.0000000000
       653       218  TIP3  H1           -8.5119770629       -3.1727213006        8.8564693978  CLST         218          1.0000000000
       654       218  TIP3  H2           -7.6245255858       -4.3713661114        8.4929270284  CLST         218          1.0000000000
       655       219  TIP3  OH2         -12.6147494350       -4.7071249946       -2.7027044825  CLST         219          1.0000000000
       656       219  TIP3  H1          -12.6418849032       -3.8022910212       -2.3367388087  CLST         219          1.0000000000
       657       219  TIP3  H2          -13.0256647160       -4.5213824950       -3.5769143057  CLST         219          1.0000000000
       658       220  TIP3  OH2           6.4155132265        7.0345907771        7.6530277623  CLST         220          1.0000000000
       659       220  TIP3  H1            6.1434913447        6.6585014686        6.7565850082  CLST         220          1.0000000000
       660       220  TIP3  H2            5.5573488639        6.7803797490        8.0973922143  CLST         220          1.0000000000
       661       221  TIP3  OH2         -10.3628843669       -7.0736559931       10.3208066454  CLST         221          1.0000000000
       662       221  TIP3  H1           -9.4303696477       -7.3097327119       10.3585924212  CLST         221          1.0000000000
       663       221  TIP3  H2          -10.6980305006       -7.9742242803        9.9562420568  CLST         221          1.0000000000
       664       222  TIP3  OH2          -6.8994791413       -0.8309683583      -13.7792278208  CLST         222          1.0000000000
       665       222  TIP3  H1           -6.3364688914       -1.6509977663      -13.6118143311  CLST         222          1.0000000000
       666       222  TIP3  H2           -7.7423982442       -1.0164301802      -13.3480632219  CLST         222          1.0000000000
       667       223  TIP3  OH2           2.6793628357      -10.7575006622      -11.5464651748  CLST         223          1.0000000000
       668       223  TIP3  H1            2.1812994392      -11.6284310515      -11.4901089591  CLST         223          1.0000000000
       669       223  TIP3  H2            3.5823607343      -11.0156369596      -11.2691408775  CLST         223          1.0000000000
       670       224  TIP3  OH2           7.5283625628        4.6811824825        0.6206492191  CLST         224          1.0000000000
       671       224  TIP3  H1            8.4648865972        4.8404624880        0.7842187660  CLST         224          1.0000000000
       672       224  TIP3  H2            7.4685509400        4.4731393581       -0.3693476252  CLST         224          1.0000000000
       673       225  TIP3  OH2          -0.2013136845        4.6246280099       -1.1838354304  CLST         225          1.0000000000
       674       225  TIP3  H1           -0.7898380876        4.4621108221       -0.4071830689  CLST         225          1.0000000000
       675       225  TIP3  H2            0.0311042389        3.6152313969       -1.2551027189  CLST         225          1.0000000000
       676       226  TIP3  OH2          -5.7566230150       -4.3616094343        7.6138721786  CLST         226          1.0000000000
       677       226  TIP3  H1           -5.7983956092       -5.3613338509        7.7196727902  CLST         226          1.0000000000
       678       226  TIP3  H2           -5.9723568944       -4.2728927293        6.6536049105  CLST         226          1.0000000000
       679       227  TIP3  OH2          11.7177116417       -4.0817573704       -9.7860339839  CLST         227          1.0000000000
       680       227  TIP3  H1           11.9146960342       -3.8246552532       -8.8602004597  CLST         227          1.0000000000
       681       227  TIP3  H2           11.1786441733       -3.3222042754      -10.0886409727  CLST         227          1.0000000000
       682       228  TIP3  OH2           3.4677528010       12.3078727585        3.3265600754  CLST         228          1.0000000000
       683       228  TIP3  H1            2.4646732102       11.8028477324        4.0383022107  CLST         228          1.0000000000
       684       228  TIP3  H2            2.8939256439       12.5675039380        2.7220633126  CLST         228          1.0000000000
       685       229  TIP3  OH2         -11.4877746456      -13.0114564970        2.8347633339  CLST         229          1.0000000000
       686       229  TIP3  H1          -12.0512423701      -13.5571732570        2.5144945896  CLST         229          1.0000000000
       687       229  TIP3  H2          -11.0395135408      -12.3398003007        2.2158005110  CLST         229          1.0000000000
       688       230  TIP3  OH2          12.2391329708        6.2633999168       -3.3867372284  CLST         230          1.0000000000
       689       230  TIP3  H1           13.2533272380        6.1311756132       -3.3850339207  CLST         230          1.0000000000
       690       230  TIP3  H2           12.1192842074        5.3579315804       -3.7719326695  CLST         230          1.0000000000
       691       231  TIP3  OH2           7.2286475792        3.3670239289        4.8590350054  CLST         231          1.0000000000
       692       231  TIP3  H1            7.3768943279        4.3271335341        4.9264675802  CLST         231          1.0000000000
       693       231  TIP3  H2            6.3428973603        3.2965886971        4.4845789977  CLST         231          1.0000000000
       694       232  TIP3  OH2         -10.2455574814        8.9435073159        7.5761873771  CLST         232          1.0000000000
       695       232  TIP3  H1          -10.6974364147        9.5907289539        8.1807760210  CLST         232          1.0000000000
       696       232  TIP3  H2          -10.2390154180        8.0747610968        8.0201811769  CLST         232          1.0000000000
       697       233  TIP3  OH2           3.5424350101       -5.3849793058        8.0719438892  CLST         233          1.0000000000
       698       233  TIP3  H1            4.3495881439       -5.6925770339        8.5699443609  CLST         233          1.0000000000
       699       233  TIP3  H2            3.3571491938       -4.5642841314        8.6095400196  CLST         233          1.0000000000
       700       234  TIP3  OH2          -3.5100285140        8.4625819646       -0.5110238473  CLST         234          1.0000000000
       701       234  TIP3  H1           -3.2622818332        7.9091808356       -1.3002962540  CLST         234          1.0000000000
       702       234  TIP3  H2           -3.5092238885        9.3764691821       -1.0305318867  CLST         234          1.0000000000
       703       235  TIP3  OH2          -1.9444704114       -4.0138139923       -9.1080642079  CLST         235          1.0000000000
       704       235  TIP3  H1           -1.8985046123       -4.9267704231       -9.4947253621  CLST         235          1.0000000000
       705       235  TIP3  H2           -0.9856914788       -3.6945575172       -9.2432545365  CLST         235          1.0000000000
       706       236  TIP3  OH2          -0.2956917660      -13.6562207833       -2.9946774174  CLST         236          1.0000000000
       707       236  TIP3  H1            0.3895159371      -12.9608153859       -2.8456757754  CLST         236          1.0000000000
       708       236  TIP3  H2           -0.7160539692      -13.4628957922       -2.0980953411  CLST         236          1.0000000000
       709       237  TIP3  OH2          -3.5759403548       -5.0497777438       11.0080226055  CLST         237          1.0000000000
       710       237  TIP3  H1           -4.5918471548       -5.0437149743       10.9487023479  CLST         237          1.0000000000
       711       237  TIP3  H2           -3.4726685559       -5.9215652133       10.5936015867  CLST         237          1.0000000000
       712       238  TIP3  OH2           0.6884741376        4.7495047914        7.2297534078  CLST         238          1.0000000000
       713       238  TIP3  H1            0.1100924642        5.2929184856        6.6710616238  CLST         238          1.0000000000
       714       238  TIP3  H2            0.5212212105        5.0878212264        8.1265068671  CLST         238          1.0000000000
       715       239  TIP3  OH2         -13.9763340344        5.9197730852        3.5034567715  CLST         239          1.0000000000
       716       239  TIP3  H1          -14.0983497511        6.2631326370        2.6173847425  CLST         239          1.0000000000
       717       239  TIP3  H2          -13.3420611410        5.1958563215        3.3281910300  CLST         239          1.0000000000
       718       240  TIP3  OH2         -14.0858497448        8.7655257582       -0.3005635987  CLST         240          1.0000000000
       719       240  TIP3  H1          -14.6108426711        8.9493594546        0.4649511661  CLST         240          1.0000000000
       720       240  TIP3  H2          -13.8306002901        7.8144303738       -0.0152729554  CLST         240          1.0000000000
       721       241  TIP3  OH2          -7.6679732861       -7.9029074322       -8.5908885295  CLST         241          1.0000000000
       722       241  TIP3  H1           -8.0684038319       -8.1554122641       -7.6860110711  CLST         241          1.0000000000
       723       241  TIP3  H2           -7.3954667256       -6.9761458453       -8.3638954770  CLST         241          1.0000000000
       724       242  TIP3  OH2           6.1145426811       -5.5858938048        9.6828752896  CLST         242          1.0000000000
       725       242  TIP3  H1            6.6310621534       -4.8155022307        9.2904632606  CLST         242          1.0000000000
       726       242  TIP3  H2            6.7440373781       -6.3118268617        9.4342082198  CLST         242          1.0000000000
       727       243  TIP3  OH2          -6.6499591282       -7.1132336576       -4.1711737339  CLST         243          1.0000000000
       728       243  TIP3  H1           -6.1652343761       -7.9064278765       -4.4950461580  CLST         243          1.0000000000
       729       243  TIP3  H2           -6.6768736327       -7.5597721500       -3.2322216008  CLST         243          1.0000000000
       730       244  TIP3  OH2           4.8243465062        5.8058156460        5.3671663677  CLST         244          1.0000000000
       731       244  TIP3  H1            5.1223511571        5.2597052732        4.5663183556  CLST         244          1.0000000000
       732       244  TIP3  H2            4.1185847265        5.1351163171        5.6110172554  CLST         244          1.0000000000
       733       245  TIP3  OH2          -6.9295057406        3.6842809003       -7.6541171652  CLST         245          1.0000000000
       734       245  TIP3  H1           -7.0598827656        3.1546961263       -6.8432433633  CLST         245          1.0000000000
       735       245  TIP3  H2           -7.4411751985        4.4690784970       -7.3198688691  CLST         245          1.0000000000
       736       246  TIP3  OH2           2.0767327658       -6.4613663542       -1.9094170998  CLST         246          1.0000000000
       737       246  TIP3  H1            1.9842551271       -5.6953025069       -2.6102934009  CLST         246          1.0000000000
       738       246  TIP3  H2            3.0367167779       -6.6261394670       -1.8960253733  CLST         246          1.0000000000
       739       247  TIP3  OH2           5.7840141104        8.0483386652        0.6869670335  CLST         247          1.0000000000
       740       247  TIP3  H1            6.0423831052        7.7955101925       -0.2060873519  CLST         247          1.0000000000
       741       247  TIP3  H2            5.7502627937        9.0388362336        0.5711100835  CLST         247          1.0000000000
       742       248  TIP3  OH2          -2.5989581772        8.4336679034      -11.9476712027  CLST         248          1.0000000000
       743       248  TIP3  H1           -2.3865027958        8.8135702972      -12.8170112359  CLST         248          1.0000000000
       744       248  TIP3  H2           -2.3477191892        9.1867531057      -11.3635279004  CLST         248          1.0000000000
       745       249  TIP3  OH2           8.8971734756        4.8299443820       -7.7489922210  CLST         249          1.0000000000
       746       249  TIP3  H1            8.4550847549        5.5714202549       -7.2720324420  CLST         249          1.0000000000
       747       249  TIP3  H2            8.6101047240        4.0165807922       -7.3058744508  CLST         249          1.0000000000
       748       250  TIP3  OH2          -7.6043986809        9.6650639082       -5.3124797823  CLST         250          1.0000000000
       749       250  TIP3  H1           -7.8732922988        8.8324004119       -5.6323669359  CLST         250          1.0000000000
       750       250  TIP3  H2           -7.9198698482       10.3673689887       -5.8972394189  CLST         250          1.0000000000
       751       251  TIP3  OH2          -3.5453589828       12.3813454182        3.0458892785  CLST         251          1.0000000000
       752       251  TIP3  H1           -3.2201059342       13.1938556820        2.7992506162  CLST         251          1.0000000000
       753       251  TIP3  H2           -3.0040896159       12.1947019709        3.8519041102  CLST         251          1.0000000000
       754       252  TIP3  OH2           5.9443055866        5.2517386527       14.4915561903  CLST         252          1.0000000000
       755       252  TIP3  H1            5.8527619283        6.2389405824       14.5745098818  CLST         252          1.0000000000
       756       252  TIP3  H2            5.5116474890        4.9259904813       15.2469780674  CLST         252          1.0000000000
       757       253  TIP3  OH2           5.9342563161       13.9859154490        3.1983283564  CLST         253          1.0000000000
       758       253  TIP3  H1            5.0500389861       13.6978920940        3.4789860832  CLST         253          1.0000000000
       759       253  TIP3  H2            5.7383973489       13.8816623147        2.2531843414  CLST         253          1.0000000000
       760       254  TIP3  OH2          -4.1167022793        7.9112851936        3.0162082851  CLST         254          1.0000000000
       761       254  TIP3  H1           -4.5345424531        8.7939395333        2.8481456399  CLST         254          1.0000000000
       762       254  TIP3  H2           -4.9563845154        7.3950710369        3.0919147378  CLST         254          1.0000000000
       763       255  TIP3  OH2          -6.9276913182       10.4551765470        4.1710103463  CLST         255          1.0000000000
       764       255  TIP3  H1           -7.8768628342       10.6888856155        3.9941538324  CLST         255          1.0000000000
       765       255  TIP3  H2           -7.0611374834        9.6737664131        4.7816587293  CLST         255          1.0000000000
       766       256  TIP3  OH2          11.4501489784        3.7680961516       -1.2588833226  CLST         256          1.0000000000
       767       256  TIP3  H1           11.8729443921        3.1312729588       -1.8900702776  CLST         256          1.0000000000
       768       256  TIP3  H2           11.0404661400        3.1190598864       -0.6142838330  CLST         256          1.0000000000
       769       257  TIP3  OH2          -8.4021356320       -1.2305158720       -4.9388428984  CLST         257          1.0000000000
       770       257  TIP3  H1           -7.5466659371       -0.8585383101       -4.5856799201  CLST         257          1.0000000000
       771       257  TIP3  H2           -8.2069702377       -1.1898702890       -5.8801752443  CLST         257          1.0000000000
       772       258  TIP3  OH2          -5.2272496606       10.2324662872        7.9253298636  CLST         258          1.0000000000
       773       258  TIP3  H1           -5.1487823128       10.8938767085        7.1700676523  CLST         258          1.0000000000
       774       258  TIP3  H2           -5.8066568212       10.7896711849        8.4939467433  CLST         258          1.0000000000
       775       259  TIP3  OH2          10.1734661607        6.1162542327        0.8715280170  CLST         259          1.0000000000
       776       259  TIP3  H1           11.0088295116        6.6462057495        0.9909139347  CLST         259          1.0000000000
       777       259  TIP3  H2            9.8142142886        6.2855175559        1.7567627403  CLST         259          1.0000000000
       778       260  TIP3  OH2          -4.9645518727        7.7943649149        9.0090589662  CLST         260          1.0000000000
       779       260  TIP3  H1           -5.2678164333        8.5907542022        8.4630257872  CLST         260          1.0000000000
       780       260  TIP3  H2           -5.8484953241        7.3335312728        9.0794078170  CLST         260          1.0000000000
       781       261  TIP3  OH2           0.6359765592       -4.2519019042       12.3974486260  CLST         261          1.0000000000
       782       261  TIP3  H1            0.3877804936       -5.2163106256       12.3890938658  CLST         261          1.0000000000
       783       261  TIP3  H2            1.5484906562       -4.4054281351       12.6432098135  CLST         261          1.0000000000
       784       262  TIP3  OH2         -11.0194269989        4.8329753684        6.1406560561  CLST         262          1.0000000000
       785       262  TIP3  H1          -10.3728249684        4.5502330570        5.4315251863  CLST         262          1.0000000000
       786       262  TIP3  H2          -11.8328014465        5.0522729671        5.6152955416  CLST         262          1.0000000000
       787       263  TIP3  OH2           1.7222083040        0.8952072385        6.6454984635  CLST         263          1.0000000000
       788       263  TIP3  H1            2.0859292571        1.7585280510        6.3422151343  CLST         263          1.0000000000
       789       263  TIP3  H2            2.4683428902        0.4515435366        7.1443742579  CLST         263          1.0000000000
       790       264  TIP3  OH2           5.1412979852       -4.2531104563       -9.6595561468  CLST         264          1.0000000000
       791       264  TIP3  H1            4.8823775900       -5.2207267927       -9.8449937200  CLST         264          1.0000000000
       792       264  TIP3  H2            4.3924161779       -3.8649814184      -10.1834538494  CLST         264          1.0000000000
       793       265  TIP3  OH2           7.5796319334        4.9665154065      -10.2272995638  CLST         265          1.0000000000
       794       265  TIP3  H1            7.8316197894        5.8129050526      -10.6547556346  CLST         265          1.0000000000
       795       265  TIP3  H2            8.1716021103        5.0494271935       -9.4343760471  CLST         265          1.0000000000
       796       266  TIP3  OH2          -8.0042963125       -8.9825913843       -0.0202083335  CLST         266          1.0000000000
       797       266  TIP3  H1           -7.8648504425       -9.4258653392        0.8323752751  CLST         266          1.0000000000
       798       266  TIP3  H2           -8.4278209172       -8.1329161160        0.2206474170  CLST         266          1.0000000000
       799       267  TIP3  OH2           1.2859589653        2.6501901609       -5.1995728714  CLST         267          1.0000000000
       800       267  TIP3  H1            1.4701952192        3.4935467861       -4.6775928009  CLST         267          1.0000000000
       801       267  TIP3  H2            1.8792571194        2.0172731849       -4.7709824876  CLST         267          1.0000000000
       802       268  TIP3  OH2           5.1587306144       -4.5240521651       -6.8448880823  CLST         268          1.0000000000
       803       268  TIP3  H1            5.1494547309       -4.3684319554       -7.8377539435  CLST         268          1.0000000000
       804       268  TIP3  H2            4.8134944729       -5.4511492158       -6.8499329557  CLST         268          1.0000000000
       805       269  TIP3  OH2           5.5760583416       10.7403602274       -0.1317272021  CLST         269          1.0000000000
       806       269  TIP3  H1            6.5179242288       10.6337701650       -0.4439012298  CLST         269          1.0000000000
       807       269  TIP3  H2            5.7694899396       11.6547820327        0.1873647903  CLST         269          1.0000000000
       808       270  TIP3  OH2           1.3615359098        9.3683984912       -7.9646397923  CLST         270          1.0000000000
       809       270  TIP3  H1            1.5452084279        8.5775732422       -8.5029469588  CLST         270          1.0000000000
       810       270  TIP3  H2            0.8056266571        8.9313541559       -7.2341464233  CLST         270          1.0000000000
       811       271  TIP3  OH2          -6.5526380616       -9.0439065531       -2.1372655448  CLST         271          1.0000000000
       812       271  TIP3  H1           -5.8079800499       -8.8999115137       -1.5137898296  CLST         271          1.0000000000
       813       271  TIP3  H2           -7.2384408111       -9.0394696012       -1.3906987649  CLST         271          1.0000000000
       814       272  TIP3  OH2           9.4314918780       -8.2853925580        5.7805709307  CLST         272          1.0000000000
       815       272  TIP3  H1            8.4606403497       -8.2632191091        5.8095642022  CLST         272          1.0000000000
       816       272  TIP3  H2            9.6103874325       -7.7654596804        4.9225583936  CLST         272          1.0000000000
       817       273  TIP3  OH2         -14.0000944795        9.5232238235        3.2646678600  CLST         273          1.0000000000
       818       273  TIP3  H1          -14.4669139924        9.8462748692        4.0727844842  CLST         273          1.0000000000
       819       273  TIP3  H2          -13.6229922891        8.7777783515        3.8202283801  CLST         273          1.0000000000
       820       274  TIP3  OH2           4.0845120934       12.9884412054       -4.1200926634  CLST         274          1.0000000000
       821       274  TIP3  H1            3.8143447362       12.3715872982       -3.3257874876  CLST         274          1.0000000000
       822       274  TIP3  H2            4.3512240958       13.7981643214       -3.8061371782  CLST         274          1.0000000000
       823       275  TIP3  OH2           8.8256366321      -11.3475372098        5.7709999223  CLST         275          1.0000000000
       824       275  TIP3  H1            9.3890308162      -10.5948473578        5.8674539438  CLST         275          1.0000000000
       825       275  TIP3  H2            9.3271446843      -12.1050443157        5.4539890344  CLST         275          1.0000000000
       826       276  TIP3  OH2          -0.3009786338       -5.9566997722        1.3562873863  CLST         276          1.0000000000
       827       276  TIP3  H1           -0.8895601677       -6.3975935354        0.7249036832  CLST         276          1.0000000000
       828       276  TIP3  H2           -0.8846714875       -5.1927748888        1.7674107815  CLST         276          1.0000000000
       829       277  TIP3  OH2           6.4157568097        6.3228576836       -7.0520440344  CLST         277          1.0000000000
       830       277  TIP3  H1            5.7805871655        5.8310049852       -7.6049979764  CLST         277          1.0000000000
       831       277  TIP3  H2            6.5495430242        7.1390172512       -7.5905214770  CLST         277          1.0000000000
       832       278  TIP3  OH2          -0.6872863551       -7.5501485469        3.4768567922  CLST         278          1.0000000000
       833       278  TIP3  H1           -0.5170767861       -6.9410369967        2.6816500205  CLST         278          1.0000000000
       834       278  TIP3  H2           -0.7864270837       -6.7995331202        4.1008474867  CLST         278          1.0000000000
       835       279  TIP3  OH2         -13.4668209299        6.4772580495        0.4532421238  CLST         279          1.0000000000
       836       279  TIP3  H1          -13.8012347747        5.5422591450        0.2765087362  CLST         279          1.0000000000
       837       279  TIP3  H2          -12.5434989436        6.3406293501        0.8061640541  CLST         279          1.0000000000
       838       280  TIP3  OH2          -3.3592070866      -10.1073158580        5.5731000339  CLST         280          1.0000000000
       839       280  TIP3  H1           -3.2743594678       -9.5422315035        6.3693539784  CLST         280          1.0000000000
       840       280  TIP3  H2           -3.8250755753       -9.4799188816        4.9801155383  CLST         280          1.0000000000
       841       281  TIP3  OH2           8.1693861408        7.8464462184      -10.6842154405  CLST         281          1.0000000000
       842       281  TIP3  H1            8.5855602377        8.7123962583      -10.4727449924  CLST         281          1.0000000000
       843       281  TIP3  H2            7.2043748025        8.0349083649      -10.4842257158  CLST         281          1.0000000000
       844       282  TIP3  OH2          -7.7440548212      -11.7788069807       10.0366955046  CLST         282          1.0000000000
       845       282  TIP3  H1           -8.5145845760      -11.5539963590        9.5284449373  CLST         282          1.0000000000
       846       282  TIP3  H2           -7.2104143968      -12.2804229709        9.3452921976  CLST         282          1.0000000000
       847       283  TIP3  OH2           4.5202999962        8.5688163542       -4.6609210957  CLST         283          1.0000000000
       848       283  TIP3  H1            4.6851297491        9.5038352550       -4.8207263630  CLST         283          1.0000000000
       849       283  TIP3  H2            3.9255873487        8.6057332509       -3.8089013298  CLST         283          1.0000000000
       850       284  TIP3  OH2          11.9071889520        8.4923254690       -1.2488847464  CLST         284          1.0000000000
       851       284  TIP3  H1           12.0545825323        7.8861618083       -2.0064630652  CLST         284          1.0000000000
       852       284  TIP3  H2           10.9975089639        8.8070913281       -1.4760018527  CLST         284          1.0000000000
       853       285  TIP3  OH2          -5.4101044935        1.9683297277        8.9300924828  CLST         285          1.0000000000
       854       285  TIP3  H1           -4.6676322450        1.6911919651        8.3480798545  CLST         285          1.0000000000
       855       285  TIP3  H2           -4.8856934242        2.7138786618        9.3260538798  CLST         285          1.0000000000
       856       286  TIP3  OH2           2.9131507574        5.7523624044       -0.5985383995  CLST         286          1.0000000000
       857       286  TIP3  H1            2.2846132426        5.7763545887        0.1677742086  CLST         286          1.0000000000
       858       286  TIP3  H2            3.7402390724        5.7642956505       -0.0269939857  CLST         286          1.0000000000
       859       287  TIP3  OH2          -4.2482723694        9.2753953821       11.1742214387  CLST         287          1.0000000000
       860       287  TIP3  H1           -4.7682272669        9.9372379280       11.6812323459  CLST         287          1.0000000000
       861       287  TIP3  H2           -4.9212110422        8.8221807184       10.6208664405  CLST         287          1.0000000000
       862       288  TIP3  OH2           5.5479590831        3.3766210617       -9.4280683918  CLST         288          1.0000000000
       863       288  TIP3  H1            5.5094372590        2.7080866834      -10.0966676937  CLST         288          1.0000000000
       864       288  TIP3  H2            6.4256795923        3.8288678251       -9.6719953291  CLST         288          1.0000000000
       865       289  TIP3  OH2          -6.9960240534       -5.0556709065       -8.4044431777  CLST         289          1.0000000000
       866       289  TIP3  H1           -7.7555210644       -4.4658968988       -8.2443355894  CLST         289          1.0000000000
       867       289  TIP3  H2           -6.2922221817       -4.8417146948       -7.9382760873  CLST         289          1.0000000000
       868       290  TIP3  OH2           2.2746639229      -12.1054988310       11.2653595466  CLST         290          1.0000000000
       869       290  TIP3  H1            3.0899740934      -12.3755654874       10.8594204627  CLST         290          1.0000000000
       870       290  TIP3  H2            2.5417867285      -11.7727171349       12.1598656618  CLST         290          1.0000000000
       871       291  TIP3  OH2         -10.3803599753       -3.4532063273        2.7412210130  CLST         291          1.0000000000
       872       291  TIP3  H1          -11.1714718648       -3.9074700177        3.1339623068  CLST         291          1.0000000000
       873       291  TIP3  H2          -10.4723673088       -3.6787127458        1.8415256187  CLST         291          1.0000000000
       874       292  TIP3  OH2          12.1039712301        3.5065223066       -4.7226336764  CLST         292          1.0000000000
       875       292  TIP3  H1           11.1604403377        3.3557073851       -4.5050329301  CLST         292          1.0000000000
       876       292  TIP3  H2           12.0065269999        4.0543616841       -5.5532297999  CLST         292          1.0000000000
       877       293  TIP3  OH2           8.9962543816       10.6104268072       11.0518208085  CLST         293          1.0000000000
       878       293  TIP3  H1            8.6374344090       11.1787950535       11.6819250464  CLST         293          1.0000000000
       879       293  TIP3  H2            8.9708528133       11.2603921876       10.2504974823  CLST         293          1.0000000000
       880       294  TIP3  OH2           4.1902134885        4.4999202890       -2.4983124152  CLST         294          1.0000000000
       881       294  TIP3  H1            3.7065211373        4.9939519768       -1.7630638132  CLST         294          1.0000000000
       882       294  TIP3  H2            4.1736253404        5.1138016468       -3.2755930792  CLST         294          1.0000000000
       883       295  TIP3  OH2          -2.4296975543      -13.5560379208       -8.6189139164  CLST         295          1.0000000000
       884       295  TIP3  H1           -3.0419677757      -13.2177010873       -7.9698307803  CLST         295          1.0000000000
       885       295  TIP3  H2           -1.5843966725      -13.5673758643       -8.1146748213  CLST         295          1.0000000000
       886       296  TIP3  OH2          -1.7374328709       11.5906904635      -13.0367782654  CLST         296          1.0000000000
       887       296  TIP3  H1           -0.9217009258       11.2317440195      -13.4321676062  CLST         296          1.0000000000
       888       296  TIP3  H2           -1.6573667572       11.3815401943      -12.0580133956  CLST         296          1.0000000000
       889       297  TIP3  OH2           8.0983612964       -0.2950166157       11.5507327756  CLST         297          1.0000000000
       890       297  TIP3  H1            8.4861701081       -0.9294077261       10.8874933607  CLST         297          1.0000000000
       891       297  TIP3  H2            7.3585931379       -0.8709280564       11.8115977575  CLST         297          1.0000000000
       892       298  TIP3  OH2           1.0844368909       -1.2960374421       -7.5258900864  CLST         298          1.0000000000
       893       298  TIP3  H1            1.5414794037       -0.7007219027       -8.1916138933  CLST         298          1.0000000000
       894       298  TIP3  H2            0.9432633707       -2.0267733566       -8.2243807384  CLST         298          1.0000000000
       895       299  TIP3  OH2           2.9728113590       10.1328758716       12.6028510023  CLST         299          1.0000000000
       896       299  TIP3  H1            2.2504034998       10.7500323378       12.3127935140  CLST         299          1.0000000000
       897       299  TIP3  H2            2.2659610785        9.5785382169       12.9289424040  CLST         299          1.0000000000
       898       300  TIP3  OH2         -10.7045068563        5.1897142656       -3.6077496416  CLST         300          1.0000000000
       899       300  TIP3  H1          -10.5867568809        5.7202635220       -4.4348563321  CLST         300          1.0000000000
       900       300  TIP3  H2          -10.8962922475        6.0535355392       -3.0688901880  CLST         300          1.0000000000
       901       301  TIP3  OH2           9.5430707319       -8.2728603200       11.3214165244  CLST         301          1.0000000000
       902       301  TIP3  H1            9.3186771293       -8.0420647351       12.2320196337  CLST         301          1.0000000000
       903       301  TIP3  H2            9.4521589162       -9.2683508471       11.3394962546  CLST         301          1.0000000000
       904       302  TIP3  OH2           8.0192775359       12.8264553283        5.2965506359  CLST         302          1.0000000000
       905       302  TIP3  H1            7.6169537329       13.4981322744        4.6908817589  CLST         302          1.0000000000
       906       302  TIP3  H2            7.2977619962       12.1364422618        5.1347948457  CLST         302          1.0000000000
       907       303  TIP3  OH2         -10.8786793798        1.2208680899       -2.0440704505  CLST         303          1.0000000000
       908       303  TIP3  H1           -9.9439406665        1.2323893203       -1.7635174903  CLST         303          1.0000000000
       909       303  TIP3  H2          -10.8115667724        0.5717083581       -2.8032077256  CLST         303          1.0000000000
       910       304  TIP3  OH2          -7.9811841717        1.1921413705      -14.9564124041  CLST         304          1.0000000000
       911       304  TIP3  H1           -7.4229915234        0.3615879340      -14.6966328494  CLST         304          1.0000000000
       912       304  TIP3  H2           -7.5487176055        1.6265753479      -15.6810776648  CLST         304          1.0000000000
       913       305  TIP3  OH2           3.3407655218       -3.7978743992       13.9018686326  CLST         305          1.0000000000
       914       305  TIP3  H1            4.1974560162       -4.0812930503       13.5866480987  CLST         305          1.0000000000
       915       305  TIP3  H2            3.2581147386       -2.8169494063       13.8919938446  CLST         305          1.0000000000
       916       306  TIP3  OH2           8.7610105536      -12.0455525268      -11.3615382348  CLST         306          1.0000000000
       917       306  TIP3  H1            9.5341431894      -11.9044896407      -12.0051139076  CLST         306          1.0000000000
       918       306  TIP3  H2            9.2262113159      -12.5677602323      -10.7542227097  CLST         306          1.0000000000
       919       307  TIP3  OH2           9.2743547860        7.8611968260       -7.4478447937  CLST         307          1.0000000000
       920       307  TIP3  H1            8.5360432181        8.5179871051       -7.5637633886  CLST         307          1.0000000000
       921       307  TIP3  H2            9.5755505656        7.9901829968       -6.5043427896  CLST         307          1.0000000000
       922       308  TIP3  OH2         -10.9113302719       -4.9127758934        8.7349174838  CLST         308          1.0000000000
       923       308  TIP3  H1          -10.8747302110       -5.7663644110        9.2624658948  CLST         308          1.0000000000
       924       308  TIP3  H2           -9.9559319048       -4.6906765655        8.7410909557  CLST         308          1.0000000000
       925       309  TIP3  OH2          -1.9867200095       -0.5233914368        5.4584485301  CLST         309          1.0000000000
       926       309  TIP3  H1           -2.7932288706       -0.7842533520        4.9607301489  CLST         309          1.0000000000
       927       309  TIP3  H2           -1.8438820186       -1.3716636342        5.9493468567  CLST         309          1.0000000000
       928       310  TIP3  OH2          -4.9921195610       -0.6067677126        7.1349326482  CLST         310          1.0000000000
       929       310  TIP3  H1           -4.2853343972        0.0496259963        7.2997852125  CLST         310          1.0000000000
       930       310  TIP3  H2           -5.0469624979       -1.1564037239        7.9604934844  CLST         310          1.0000000000
       931       311  TIP3  OH2          -7.1061379390        8.4718633463      -12.3576240542  CLST         311          1.0000000000
       932       311  TIP3  H1           -6.4509651716        7.7218842649      -12.6256120849  CLST         311          1.0000000000
       933       311  TIP3  H2           -7.0432638387        8.2905171360      -11.4025064064  CLST         311          1.0000000000
       934       312  TIP3  OH2           6.5879367953       -0.7640523384       -6.2778716730  CLST         312          1.0000000000
       935       312  TIP3  H1            6.1955839014       -0.1660138923       -5.5725591621  CLST         312          1.0000000000
       936       312  TIP3  H2            6.4944543432       -1.5678337701       -5.7423539723  CLST         312          1.0000000000
       937       313  TIP3  OH2          -8.9538779865      -10.6128983556        7.2921480777  CLST         313          1.0000000000
       938       313  TIP3  H1           -8.2121469316       -9.8922169161        7.1087657797  CLST         313          1.0000000000
       939       313  TIP3  H2           -9.3475611139      -10.6723749549        6.3410263983  CLST         313          1.0000000000
       940       314  TIP3  OH2          -1.3875109384      -12.1745765277      -10.6964129282  CLST         314          1.0000000000
       941       314  TIP3  H1           -1.2934880162      -11.3867485725      -10.1173494394  CLST         314          1.0000000000
       942       314  TIP3  H2           -1.7979807647      -12.8138248504       -9.9928811218  CLST         314          1.0000000000
       943       315  TIP3  OH2          -1.4534533321       -0.7110346767       -6.4236599125  CLST         315          1.0000000000
       944       315  TIP3  H1           -0.5592717028       -1.0009833580       -6.6959819824  CLST         315          1.0000000000
       945       315  TIP3  H2           -1.2681319948       -0.1921954747       -5.5998600065  CLST         315          1.0000000000
       946       316  TIP3  OH2         -13.3358632834       -3.9142695286       -5.5187226732  CLST         316          1.0000000000
       947       316  TIP3  H1          -12.6719090976       -4.3067392223       -6.1336031966  CLST         316          1.0000000000
       948       316  TIP3  H2          -12.9480526058       -3.0272955260       -5.5971315018  CLST         316          1.0000000000
       949       317  TIP3  OH2          -6.1977328797        0.0867926042       -3.7925558960  CLST         317          1.0000000000
       950       317  TIP3  H1           -5.3206842452        0.0769673531       -3.2798570525  CLST         317          1.0000000000
       951       317  TIP3  H2           -6.7382985621        0.3217068024       -2.9943744117  CLST         317          1.0000000000
       952       318  TIP3  OH2          -3.9966722311       -9.6686300837       -9.5181122909  CLST         318          1.0000000000
       953       318  TIP3  H1           -4.0694929376       -9.9197454043       -8.5554519688  CLST         318          1.0000000000
       954       318  TIP3  H2           -3.0443506116       -9.4673500383       -9.4763217247  CLST         318          1.0000000000
       955       319  TIP3  OH2           5.7289541614       10.8296852536        8.7457998030  CLST         319          1.0000000000
       956       319  TIP3  H1            6.4665016246       10.7217458381        8.1080163884  CLST         319          1.0000000000
       957       319  TIP3  H2            6.1643036796       11.3374583382        9.4116800728  CLST         319          1.0000000000
       958       320  TIP3  OH2         -10.6237657250        0.8727210266      -14.5887417804  CLST         320          1.0000000000
       959       320  TIP3  H1           -9.6354503131        0.9194111364      -14.6295239444  CLST         320          1.0000000000
       960       320  TIP3  H2          -10.5830825805        0.0423666396      -14.0189434308  CLST         320          1.0000000000
       961       321  TIP3  OH2          -9.8511237995       10.2281072086       -9.6866982826  CLST         321          1.0000000000
       962       321  TIP3  H1          -10.6749510901       10.1493830273       -9.5064184035  CLST         321          1.0000000000
       963       321  TIP3  H2           -9.7849428381       10.1667097960      -10.6825635074  CLST         321          1.0000000000
       964       322  TIP3  OH2         -12.6533433020       -1.7392493525       -2.4158819419  CLST         322          1.0000000000
       965       322  TIP3  H1          -12.2736306536       -1.3301196327       -3.2250702791  CLST         322          1.0000000000
       966       322  TIP3  H2          -11.7868132435       -1.6950894877       -1.9153139107  CLST         322          1.0000000000
       967       323  TIP3  OH2          -1.0254364556        3.9986861406        4.2293268293  CLST         323          1.0000000000
       968       323  TIP3  H1           -0.2795327490        3.3440861535        4.2250808625  CLST         323          1.0000000000
       969       323  TIP3  H2           -1.0352724988        4.1327734656        3.2596959508  CLST         323          1.0000000000
       970       324  TIP3  OH2         -11.0261543634        6.2903240527        1.4697055205  CLST         324          1.0000000000
       971       324  TIP3  H1          -11.1930682052        5.7356452951        2.2502784903  CLST         324          1.0000000000
       972       324  TIP3  H2          -10.1875798423        6.7875286532        1.7947757735  CLST         324          1.0000000000
       973       325  TIP3  OH2          -4.7327581205        0.7634142662        3.6108370467  CLST         325          1.0000000000
       974       325  TIP3  H1           -5.7914376514        0.7378623480        3.7098926551  CLST         325          1.0000000000
       975       325  TIP3  H2           -4.6247165232        1.6418836867        3.3103922879  CLST         325          1.0000000000
       976       326  TIP3  OH2           9.0807178497        8.6847975536       -2.7718895800  CLST         326          1.0000000000
       977       326  TIP3  H1            8.9398865920        8.1225621275       -1.9903621099  CLST         326          1.0000000000
       978       326  TIP3  H2            8.1791399249        8.6009113855       -3.1973018776  CLST         326          1.0000000000
       979       327  TIP3  OH2          10.3153072931       -3.6938161982      -12.9853352106  CLST         327          1.0000000000
       980       327  TIP3  H1           10.7148674375       -3.6873738451      -13.7643971645  CLST         327          1.0000000000
       981       327  TIP3  H2           10.1352821436       -2.9531391403      -12.3922679226  CLST         327          1.0000000000
       982       328  TIP3  OH2           2.1184847606        7.1388651962       -9.6703860792  CLST         328          1.0000000000
       983       328  TIP3  H1            1.9644729112        6.2461618784       -9.3128482431  CLST         328          1.0000000000
       984       328  TIP3  H2            3.0549813955        7.1199100130       -9.3776774169  CLST         328          1.0000000000
       985       329  TIP3  OH2           1.5243224046      -11.6603221465       -2.3111697624  CLST         329          1.0000000000
       986       329  TIP3  H1            1.6028204849      -10.5906963781       -2.5027469908  CLST         329          1.0000000000
       987       329  TIP3  H2            2.3459065063      -11.6865394318       -1.7541061869  CLST         329          1.0000000000
       988       330  TIP3  OH2          -9.2861144512       -0.9923025039        3.4706753655  CLST         330          1.0000000000
       989       330  TIP3  H1           -9.5844007926       -1.9468923002        3.2821619073  CLST         330          1.0000000000
       990       330  TIP3  H2          -10.1635783148       -0.6467246118        3.8186895474  CLST         330          1.0000000000
       991       331  TIP3  OH2          12.3526305195        9.8650255161       -8.9988055978  CLST         331          1.0000000000
       992       331  TIP3  H1           13.0227941022        9.7655514119       -9.6789144612  CLST         331          1.0000000000
       993       331  TIP3  H2           11.8631305757        9.0236654873       -8.9696494620  CLST         331          1.0000000000
       994       332  TIP3  OH2          11.2077264296       -1.3807116378       -4.5397592870  CLST         332          1.0000000000
       995       332  TIP3  H1           12.0304927482       -1.6584147550       -5.0136661433  CLST         332          1.0000000000
       996       332  TIP3  H2           11.5889681246       -0.6883621164       -3.9568721958  CLST         332          1.0000000000
       997       333  TIP3  OH2          10.6057137692      -14.1217557420        8.1070709258  CLST         333          1.0000000000
       998       333  TIP3  H1            9.6965239923      -13.8667955305        8.2127987815  CLST         333          1.0000000000
       999       333  TIP3  H2           10.7081365850      -13.9760358057        7.1691985645  CLST         333          1.0000000000
      1000       334  TIP3  OH2         -10.7948778049       -9.5632747487        9.1940080262  CLST         334          1.0000000000
      1001       334  TIP3  H1          -11.5436583836       -9.9898084790        8.7222320853  CLST         334          1.0000000000
      1002       334  TIP3  H2          -10.1149235895       -9.9084096933        8.6002286872  CLST         334          1.0000000000
      1003       335  TIP3  OH2           6.8272657441       -9.8442487752        1.4719578483  CLST         335          1.0000000000
      1004       335  TIP3  H1            6.7900342655       -9.8229891796        2.4390442281  CLST         335          1.0000000000
      1005       335  TIP3  H2            5.9151354689      -10.0891087341        1.2490987462  CLST         335          1.0000000000
      1006       336  TIP3  OH2          -9.1519698487       -3.6043252603       -3.5322835634  CLST         336          1.0000000000
      1007       336  TIP3  H1           -9.5244653882       -4.4280353384       -4.0182361848  CLST         336          1.0000000000
      1008       336  TIP3  H2           -8.9937622785       -3.2278860073       -4.4402972155  CLST         336          1.0000000000
      1009       337  TIP3  OH2          -1.4184682946       -4.9323638090        8.0350889149  CLST         337          1.0000000000
      1010       337  TIP3  H1           -1.2736714977       -4.4474633441        8.9078803805  CLST         337          1.0000000000
      1011       337  TIP3  H2           -1.9045473264       -4.1258848848        7.6831799689  CLST         337          1.0000000000
      1012       338  TIP3  OH2          -0.4286392856        2.6089015567       10.6785738245  CLST         338          1.0000000000
      1013       338  TIP3  H1           -0.4652331290        2.3230833381        9.7149626472  CLST         338          1.0000000000
      1014       338  TIP3  H2           -0.0145717677        1.8802642215       11.1408358033  CLST         338          1.0000000000
      1015       339  TIP3  OH2           7.8399508486        8.0920687407        2.7247849350  CLST         339          1.0000000000
      1016       339  TIP3  H1            7.4271898504        8.7063220403        3.4133252879  CLST         339          1.0000000000
      1017       339  TIP3  H2            7.0852167035        7.7354722253        2.2435115937  CLST         339          1.0000000000
      1018       340  TIP3  OH2          -4.6245694748      -11.6301117865      -11.1982436317  CLST         340          1.0000000000
      1019       340  TIP3  H1           -4.3667921986      -10.9381218991      -10.5331207356  CLST         340          1.0000000000
      1020       340  TIP3  H2           -4.3024893967      -12.4175899460      -10.7391960209  CLST         340          1.0000000000
      1021       341  TIP3  OH2          -6.7301785048        4.6667459562        9.3218033977  CLST         341          1.0000000000
      1022       341  TIP3  H1           -5.7564728149        4.5963249716        9.5172498340  CLST         341          1.0000000000
      1023       341  TIP3  H2           -7.0186459097        3.7111312905        9.3520944401  CLST         341          1.0000000000
      1024       342  TIP3  OH2          -4.4174521469      -11.0945991740       13.9066947490  CLST         342          1.0000000000
      1025       342  TIP3  H1           -5.1194172484      -11.1008512251       13.2746813998  CLST         342          1.0000000000
      1026       342  TIP3  H2           -4.5790595062      -11.2161143920       14.7271705027  CLST         342          1.0000000000
      1027       343  TIP3  OH2           1.3282973697       -9.0016361781       -9.8698083567  CLST         343          1.0000000000
      1028       343  TIP3  H1            1.4214960433       -8.1840823698      -10.4108949850  CLST         343          1.0000000000
      1029       343  TIP3  H2            1.5548205261       -9.6715408396      -10.5441906634  CLST         343          1.0000000000
      1030       344  TIP3  OH2           5.5896222917       -4.1276077335        6.4844427453  CLST         344          1.0000000000
      1031       344  TIP3  H1            5.0040239807       -4.7487281211        6.9843645083  CLST         344          1.0000000000
      1032       344  TIP3  H2            6.2236001202       -4.6844731372        5.9237707240  CLST         344          1.0000000000
      1033       345  TIP3  OH2          13.1469666472        7.2407231239        8.8496172960  CLST         345          1.0000000000
      1034       345  TIP3  H1           12.4510317670        6.7107058919        8.4594517683  CLST         345          1.0000000000
      1035       345  TIP3  H2           12.6122647344        7.4520917432        9.7149820067  CLST         345          1.0000000000
      1036       346  TIP3  OH2           9.4859693814        9.2535209248        1.0007505623  CLST         346          1.0000000000
      1037       346  TIP3  H1            9.7774322560       10.0410127100        1.5483025659  CLST         346          1.0000000000
      1038       346  TIP3  H2            8.9464264047        8.7611308263        1.6603164045  CLST         346          1.0000000000
      1039       347  TIP3  OH2          -4.9919160918        2.9539493346       -9.7538742021  CLST         347          1.0000000000
      1040       347  TIP3  H1           -5.6326128413        3.1490832520       -9.0236619461  CLST         347          1.0000000000
      1041       347  TIP3  H2           -4.2610481030        2.7385761272       -9.1775715976  CLST         347          1.0000000000
      1042       348  TIP3  OH2          -1.1964481870        6.2014544351        5.8076692305  CLST         348          1.0000000000
      1043       348  TIP3  H1           -1.3727823244        5.4676290961        5.1765116629  CLST         348          1.0000000000
      1044       348  TIP3  H2           -0.4516160907        6.5590663841        5.2069669552  CLST         348          1.0000000000
      1045       349  TIP3  OH2          -4.0616758950        5.0963534843       -2.6286004603  CLST         349          1.0000000000
      1046       349  TIP3  H1           -3.6539950603        4.5278707934       -3.3258362046  CLST         349          1.0000000000
      1047       349  TIP3  H2           -3.3280406402        5.7961185345       -2.7352069160  CLST         349          1.0000000000
      1048       350  TIP3  OH2          -2.7358633558        8.9287387074        5.1044716586  CLST         350          1.0000000000
      1049       350  TIP3  H1           -3.1828850322        8.5629342876        4.2775600983  CLST         350          1.0000000000
      1050       350  TIP3  H2           -2.6855960105        8.0755502452        5.5644257538  CLST         350          1.0000000000
      1051       351  TIP3  OH2           4.7943100171       -7.5403292310       -7.6530960200  CLST         351          1.0000000000
      1052       351  TIP3  H1            4.1209742749       -8.2529072106       -7.6381588984  CLST         351          1.0000000000
      1053       351  TIP3  H2            4.7656279725       -7.3844416758       -8.6420525803  CLST         351          1.0000000000
      1054       352  TIP3  OH2         -10.4039554626      -11.0313447395        1.7833489003  CLST         352          1.0000000000
      1055       352  TIP3  H1           -9.4868368061      -10.7713014592        1.5431289616  CLST         352          1.0000000000
      1056       352  TIP3  H2          -10.9419083325      -10.2963234201        1.3560482937  CLST         352          1.0000000000
      1057       353  TIP3  OH2          10.7719264080       -8.2082285985       -8.7531309039  CLST         353          1.0000000000
      1058       353  TIP3  H1            9.8153824732       -8.4738136676       -8.9129492383  CLST         353          1.0000000000
      1059       353  TIP3  H2           10.8658135047       -8.2479511543       -7.8131979762  CLST         353          1.0000000000
      1060       354  TIP3  OH2           6.8519360609      -10.6083630653        3.9629462106  CLST         354          1.0000000000
      1061       354  TIP3  H1            7.6247486208      -10.9303875954        4.5477261191  CLST         354          1.0000000000
      1062       354  TIP3  H2            6.6431267476       -9.8964883638        4.6301219739  CLST         354          1.0000000000
      1063       355  TIP3  OH2          -7.1054621866        9.0777190937       -8.8718469314  CLST         355          1.0000000000
      1064       355  TIP3  H1           -6.8055742071        9.9567214707       -8.6127973919  CLST         355          1.0000000000
      1065       355  TIP3  H2           -8.0702024419        9.2338240295       -8.9325160058  CLST         355          1.0000000000
      1066       356  TIP3  OH2          12.4954029301        1.0504820375       -1.9659982758  CLST         356          1.0000000000
      1067       356  TIP3  H1           11.4975236141        0.8603665255       -2.1013896883  CLST         356          1.0000000000
      1068       356  TIP3  H2           12.6805581197        1.0936395627       -1.0423751473  CLST         356          1.0000000000
      1069       357  TIP3  OH2          -0.6341601274       -0.4344663920       -2.0265327869  CLST         357          1.0000000000
      1070       357  TIP3  H1            0.2299778276       -0.9511861353       -2.0275011928  CLST         357          1.0000000000
      1071       357  TIP3  H2           -0.5998701583       -0.1564933517       -2.9969460215  CLST         357          1.0000000000
      1072       358  TIP3  OH2          -5.6239818663        6.9911158027       -7.5509938159  CLST         358          1.0000000000
      1073       358  TIP3  H1           -5.9655985900        7.7361202151       -8.0877007439  CLST         358          1.0000000000
      1074       358  TIP3  H2           -6.4400539147        6.6054162612       -7.1687992310  CLST         358          1.0000000000
      1075       359  TIP3  OH2          -5.1318876909       12.0610414791        6.0752756142  CLST         359          1.0000000000
      1076       359  TIP3  H1           -5.4976277779       11.8138276246        5.2178853857  CLST         359          1.0000000000
      1077       359  TIP3  H2           -4.1525809453       12.1595167105        5.9169634638  CLST         359          1.0000000000
      1078       360  TIP3  OH2          -6.9619622819        5.8427284999       -3.3318429648  CLST         360          1.0000000000
      1079       360  TIP3  H1           -7.1228428616        6.3419106103       -2.5209833066  CLST         360          1.0000000000
      1080       360  TIP3  H2           -5.9850063500        5.6221973094       -3.1659551907  CLST         360          1.0000000000
      1081       361  TIP3  OH2          -1.5939927483       -0.9480332564       10.0296591071  CLST         361          1.0000000000
      1082       361  TIP3  H1           -1.5173264564       -0.3540083000       10.8263474349  CLST         361          1.0000000000
      1083       361  TIP3  H2           -1.8692155434       -1.7697080449       10.5122111216  CLST         361          1.0000000000
      1084       362  TIP3  OH2         -10.5310434172        2.6718543705        0.4302544733  CLST         362          1.0000000000
      1085       362  TIP3  H1          -10.5850615507        3.3527342798       -0.2914249503  CLST         362          1.0000000000
      1086       362  TIP3  H2          -11.1167985601        2.0629274614       -0.0923933012  CLST         362          1.0000000000
      1087       363  TIP3  OH2          10.5288153876        2.4943067436       10.0850296580  CLST         363          1.0000000000
      1088       363  TIP3  H1           10.9374222116        1.4701489710       10.0905479042  CLST         363          1.0000000000
      1089       363  TIP3  H2           10.8807715709        3.2123353805       10.4737268610  CLST         363          1.0000000000
      1090       364  TIP3  OH2           7.4974699832       -5.5367735539       -6.2575286793  CLST         364          1.0000000000
      1091       364  TIP3  H1            6.6929659549       -5.0307160894       -6.5120894988  CLST         364          1.0000000000
      1092       364  TIP3  H2            7.9967062700       -5.6913681075       -7.1346318010  CLST         364          1.0000000000
      1093       365  TIP3  OH2          -6.1084733706       -6.8678870237        2.6433056147  CLST         365          1.0000000000
      1094       365  TIP3  H1           -6.5502012503       -5.9753927031        2.5358060509  CLST         365          1.0000000000
      1095       365  TIP3  H2           -7.0002522032       -7.2839917957        3.0254236313  CLST         365          1.0000000000
      1096       366  TIP3  OH2           1.9158451861       -1.4383465785       -2.8637555680  CLST         366          1.0000000000
      1097       366  TIP3  H1            2.8912921017       -1.4600004956       -2.6628638787  CLST         366          1.0000000000
      1098       366  TIP3  H2            2.0471069496       -1.0218803857       -3.7576194094  CLST         366          1.0000000000
      1099       367  TIP3  OH2          -5.2643403983       11.7111529759       12.2986555172  CLST         367          1.0000000000
      1100       367  TIP3  H1           -6.0210336114       12.0800016995       11.7475366884  CLST         367          1.0000000000
      1101       367  TIP3  H2           -5.1514141814       12.0054884815       13.1125587570  CLST         367          1.0000000000
      1102       368  TIP3  OH2          -2.7724851213        6.4624936476        1.1563600104  CLST         368          1.0000000000
      1103       368  TIP3  H1           -2.9689082068        7.2109512607        0.4480918252  CLST         368          1.0000000000
      1104       368  TIP3  H2           -3.2819486126        6.9826455811        1.8523048317  CLST         368          1.0000000000
      1105       369  TIP3  OH2         -11.4975315196       -1.6906348095       -6.5101973513  CLST         369          1.0000000000
      1106       369  TIP3  H1          -10.7172503322       -2.2723452936       -6.5369949593  CLST         369          1.0000000000
      1107       369  TIP3  H2          -11.7960186253       -2.0985479151       -7.4304053368  CLST         369          1.0000000000
      1108       370  TIP3  OH2         -12.0239773324        5.5875017837      -11.5893538456  CLST         370          1.0000000000
      1109       370  TIP3  H1          -12.3597649254        4.9138875433      -12.3162405552  CLST         370          1.0000000000
      1110       370  TIP3  H2          -12.8193846936        5.5986148524      -11.1315772027  CLST         370          1.0000000000
      1111       371  TIP3  OH2           2.2235420849        7.7605635531        5.8279886983  CLST         371          1.0000000000
      1112       371  TIP3  H1            2.1274882035        7.6187712405        6.8010661433  CLST         371          1.0000000000
      1113       371  TIP3  H2            3.1614309547        7.4957299343        5.6393574419  CLST         371          1.0000000000
      1114       372  TIP3  OH2           8.1392324775       -7.4210547200        9.1470197554  CLST         372          1.0000000000
      1115       372  TIP3  H1            8.8936209533       -7.5775351688        8.5606427935  CLST         372          1.0000000000
      1116       372  TIP3  H2            8.6593576321       -7.6307239053        9.9982129951  CLST         372          1.0000000000
      1117       373  TIP3  OH2          11.0855173933       -0.5461604984        6.4935578478  CLST         373          1.0000000000
      1118       373  TIP3  H1           11.2561643909        0.2726267018        5.9656464434  CLST         373          1.0000000000
      1119       373  TIP3  H2           10.1898938970       -0.5097215873        6.1868749962  CLST         373          1.0000000000
      1120       374  TIP3  OH2          -9.4398321535        4.5572668502      -12.2583866166  CLST         374          1.0000000000
      1121       374  TIP3  H1           -9.4090510016        5.3759687576      -12.7102079710  CLST         374          1.0000000000
      1122       374  TIP3  H2          -10.1861232489        4.8698797017      -11.6926883386  CLST         374          1.0000000000
      1123       375  TIP3  OH2           9.8263359431       -5.4443267321       -2.7767791969  CLST         375          1.0000000000
      1124       375  TIP3  H1           10.2782399771       -5.1214063421       -3.6008574400  CLST         375          1.0000000000
      1125       375  TIP3  H2           10.2474571949       -6.3482575641       -2.8275780279  CLST         375          1.0000000000
      1126       376  TIP3  OH2          -2.2195709734      -11.1555801831       12.1009722062  CLST         376          1.0000000000
      1127       376  TIP3  H1           -2.7770926779      -10.8552503835       12.9008284036  CLST         376          1.0000000000
      1128       376  TIP3  H2           -2.9950296188      -11.5145773185       11.6161732271  CLST         376          1.0000000000
      1129       377  TIP3  OH2         -10.1524452819       12.6450994604       10.4264735935  CLST         377          1.0000000000
      1130       377  TIP3  H1           -9.2035599422       12.4066359602       10.6777671280  CLST         377          1.0000000000
      1131       377  TIP3  H2          -10.0382214003       12.8645675384        9.5015906274  CLST         377          1.0000000000
      1132       378  TIP3  OH2           2.1788863600       -7.9823214986        7.4061861276  CLST         378          1.0000000000
      1133       378  TIP3  H1            2.1987177680       -7.0395833813        7.1677614387  CLST         378          1.0000000000
      1134       378  TIP3  H2            1.4810587041       -8.0447377383        8.0947393170  CLST         378          1.0000000000
      1135       379  TIP3  OH2          -9.4181585494        9.2905935547       -1.2168058833  CLST         379          1.0000000000
      1136       379  TIP3  H1           -8.8105433730        9.6011026477       -0.4942392730  CLST         379          1.0000000000
      1137       379  TIP3  H2           -9.7182506096       10.2026743077       -1.5336128183  CLST         379          1.0000000000
      1138       380  TIP3  OH2           2.9266317004       -4.1184538603      -11.1582249560  CLST         380          1.0000000000
      1139       380  TIP3  H1            2.3643306981       -3.6146072488      -12.1585707727  CLST         380          1.0000000000
      1140       380  TIP3  H2            2.6957100937       -4.3602651972      -12.5039354946  CLST         380          1.0000000000
      1141       381  TIP3  OH2          10.1283919407        4.3127731798        3.4252876772  CLST         381          1.0000000000
      1142       381  TIP3  H1            9.3058633881        4.7302988357        3.8132774789  CLST         381          1.0000000000
      1143       381  TIP3  H2           10.7576798034        5.0541460897        3.7167021217  CLST         381          1.0000000000
      1144       382  TIP3  OH2           1.9366291580       -5.4982758584        5.8162067735  CLST         382          1.0000000000
      1145       382  TIP3  H1            2.3708907663       -5.0833889188        6.6173105213  CLST         382          1.0000000000
      1146       382  TIP3  H2            2.7731993565       -5.9750980318        5.5187881332  CLST         382          1.0000000000
      1147       383  TIP3  OH2          10.3174383729        8.8186934464        4.7195038275  CLST         383          1.0000000000
      1148       383  TIP3  H1            9.4818999238        9.1039454856        4.3032657072  CLST         383          1.0000000000
      1149       383  TIP3  H2           10.6828266409        9.7393632930        4.8468331079  CLST         383          1.0000000000
      1150       384  TIP3  OH2          -3.3138676944       -1.6661288576       -8.2919878962  CLST         384          1.0000000000
      1151       384  TIP3  H1           -2.9539309228       -2.6129299930       -8.3789609993  CLST         384          1.0000000000
      1152       384  TIP3  H2           -2.6225082012       -1.4437285774       -7.5417626666  CLST         384          1.0000000000
      1153       385  TIP3  OH2           3.6302070754      -11.7515427831       -0.7038407682  CLST         385          1.0000000000
      1154       385  TIP3  H1            4.5547473537      -12.2243140442       -0.6647656482  CLST         385          1.0000000000
      1155       385  TIP3  H2            3.7799289733      -11.0881760660        0.0350554069  CLST         385          1.0000000000
      1156       386  TIP3  OH2          -4.3150330570        9.3436505506       -6.0510927407  CLST         386          1.0000000000
      1157       386  TIP3  H1           -4.6333422465        8.5046964686       -6.4675539200  CLST         386          1.0000000000
      1158       386  TIP3  H2           -4.2506627371        9.8040549182       -6.9239755004  CLST         386          1.0000000000
      1159       387  TIP3  OH2          -9.6906271879       10.7000350556        2.8703088468  CLST         387          1.0000000000
      1160       387  TIP3  H1          -10.4985858417       10.4875309795        2.3869731857  CLST         387          1.0000000000
      1161       387  TIP3  H2           -9.0368645940       10.4357425943        2.1349824697  CLST         387          1.0000000000
      1162       388  TIP3  OH2          -1.7822845486      -12.2267079869        5.9445524823  CLST         388          1.0000000000
      1163       388  TIP3  H1           -2.0275033451      -11.3158875255        5.6166724971  CLST         388          1.0000000000
      1164       388  TIP3  H2           -2.0459599470      -12.0095188121        6.8896921881  CLST         388          1.0000000000
      1165       389  TIP3  OH2          -8.0936969743        3.3899316896       -3.6185690734  CLST         389          1.0000000000
      1166       389  TIP3  H1           -7.7965737873        4.2523350243       -3.2110076534  CLST         389          1.0000000000
      1167       389  TIP3  H2           -8.9138344042        3.7837496443       -3.9740197746  CLST         389          1.0000000000
      1168       390  TIP3  OH2          -5.7794690854       -3.9763767908        4.4951704489  CLST         390          1.0000000000
      1169       390  TIP3  H1           -5.3489094342       -3.0607790475        4.5848051348  CLST         390          1.0000000000
      1170       390  TIP3  H2           -5.1053359668       -4.3747246367        3.9468415560  CLST         390          1.0000000000
      1171       391  TIP3  OH2          -8.7859543444       -8.8249086722       -6.1896602912  CLST         391          1.0000000000
      1172       391  TIP3  H1           -9.4406157636       -9.3666525195       -6.6171897443  CLST         391          1.0000000000
      1173       391  TIP3  H2           -8.1038242153       -9.4758629277       -5.8717928159  CLST         391          1.0000000000
      1174       392  TIP3  OH2           0.9958696899       -2.0917654337       10.0801090720  CLST         392          1.0000000000
      1175       392  TIP3  H1            0.2192979126       -2.6265010083       10.3604633258  CLST         392          1.0000000000
      1176       392  TIP3  H2            0.3993864018       -1.4190438426        9.6770318933  CLST         392          1.0000000000
      1177       393  TIP3  OH2          10.8924280668      -12.2274314358       -0.7641124668  CLST         393          1.0000000000
      1178       393  TIP3  H1           11.4732392184      -11.3929275153       -0.7578381055  CLST         393          1.0000000000
      1179       393  TIP3  H2           11.2391275376      -12.9413181830       -1.1592320458  CLST         393          1.0000000000
      1180       394  TIP3  OH2           0.2880492005       11.9188350756       -8.5988610755  CLST         394          1.0000000000
      1181       394  TIP3  H1            0.9280306115       12.4772361144       -8.1108616038  CLST         394          1.0000000000
      1182       394  TIP3  H2            0.5591765809       11.0714031238       -8.1639473917  CLST         394          1.0000000000
      1183       395  TIP3  OH2           6.8129585527        7.5680663633       -4.4970448586  CLST         395          1.0000000000
      1184       395  TIP3  H1            5.8757490970        7.9948465840       -4.5563765603  CLST         395          1.0000000000
      1185       395  TIP3  H2            6.7317831547        7.1712779944       -5.4238402853  CLST         395          1.0000000000
      1186       396  TIP3  OH2          -1.0671350513       -9.8854483315       -9.0508598217  CLST         396          1.0000000000
      1187       396  TIP3  H1           -1.1958061879       -9.7734949229       -8.0653888997  CLST         396          1.0000000000
      1188       396  TIP3  H2           -0.1363971995       -9.5038246204       -9.2209069515  CLST         396          1.0000000000
      1189       397  TIP3  OH2          11.3376906368        7.0904354139       -8.9270482238  CLST         397          1.0000000000
      1190       397  TIP3  H1           11.8632716926        6.6078822254       -8.2702040261  CLST         397          1.0000000000
      1191       397  TIP3  H2           10.4926023889        7.1759895705       -8.4009550979  CLST         397          1.0000000000
      1192       398  TIP3  OH2          10.6717251682        7.7415903602       -4.9908163232  CLST         398          1.0000000000
      1193       398  TIP3  H1           10.0897482357        8.0367050355       -4.2507330014  CLST         398          1.0000000000
      1194       398  TIP3  H2           11.3665050968        7.3237474023       -4.3698075093  CLST         398          1.0000000000
      1195       399  TIP3  OH2           1.7869093915       11.1958832999        4.8203998249  CLST         399          1.0000000000
      1196       399  TIP3  H1            1.0569246792       10.6042882543        5.0208232885  CLST         399          1.0000000000
      1197       399  TIP3  H2            2.1983093423       10.9989039641        5.7692159523  CLST         399          1.0000000000
      1198       400  TIP3  OH2           4.1373088949       -2.8989347800       -5.0550711905  CLST         400          1.0000000000
      1199       400  TIP3  H1            4.8696570983       -2.6377288092       -4.4719606322  CLST         400          1.0000000000
      1200       400  TIP3  H2            4.6103884978       -3.5301438405       -5.6696785152  CLST         400          1.0000000000
      1201       401  TIP3  OH2         -14.8609804594        9.8854143739        5.5862490451  CLST         401          1.0000000000
      1202       401  TIP3  H1          -14.3281053028       10.1214677133        6.3633611541  CLST         401          1.0000000000
      1203       401  TIP3  H2          -15.7111649562        9.7355485334        6.0120128732  CLST         401          1.0000000000
      1204       402  TIP3  OH2           1.6739093580       -1.7164570296       12.9429816515  CLST         402          1.0000000000
      1205       402  TIP3  H1            1.1057139447       -2.5141424808       12.8978933457  CLST         402          1.0000000000
      1206       402  TIP3  H2            1.9662491857       -1.7717707400       12.0205393637  CLST         402          1.0000000000
      1207       403  TIP3  OH2          -2.0535936337       -6.9838941048       -0.7748959405  CLST         403          1.0000000000
      1208       403  TIP3  H1           -2.1889005777       -6.4599285430       -1.5442172997  CLST         403          1.0000000000
      1209       403  TIP3  H2           -1.8289567440       -7.8793221966       -1.2335476628  CLST         403          1.0000000000
      1210       404  TIP3  OH2          -4.8304471112       -2.4531009717        9.1874541464  CLST         404          1.0000000000
      1211       404  TIP3  H1           -4.9831692791       -2.6458957355       10.1267963410  CLST         404          1.0000000000
      1212       404  TIP3  H2           -5.2065680771       -3.2667778883        8.7146008502  CLST         404          1.0000000000
      1213       405  TIP3  OH2         -11.9576389412        7.3048752199       11.3778131810  CLST         405          1.0000000000
      1214       405  TIP3  H1          -11.6794497322        6.4654322119       10.9403002935  CLST         405          1.0000000000
      1215       405  TIP3  H2          -12.8517711233        7.0627735600       11.5024200207  CLST         405          1.0000000000
      1216       406  TIP3  OH2           0.9931021714        7.7756456969      -12.0535983039  CLST         406          1.0000000000
      1217       406  TIP3  H1            1.3058066754        8.7209908548      -12.2818730913  CLST         406          1.0000000000
      1218       406  TIP3  H2            1.5448523034        7.7619082372      -11.2029261144  CLST         406          1.0000000000
      1219       407  TIP3  OH2          10.3448374165      -13.2017266433        5.1173036852  CLST         407          1.0000000000
      1220       407  TIP3  H1           10.5305454974      -13.2287960866        4.1456835522  CLST         407          1.0000000000
      1221       407  TIP3  H2           11.2505138598      -12.6972079972        5.2625482504  CLST         407          1.0000000000
      1222       408  TIP3  OH2          -2.9706294084      -11.7507585091        1.7690997161  CLST         408          1.0000000000
      1223       408  TIP3  H1           -2.1813214593      -11.1527120863        1.7196432358  CLST         408          1.0000000000
      1224       408  TIP3  H2           -2.3454884277      -12.4903457667        1.9952319199  CLST         408          1.0000000000
      1225       409  TIP3  OH2           1.2497851967       -9.5293193627        9.7884852864  CLST         409          1.0000000000
      1226       409  TIP3  H1            0.7776236297       -9.5084472685       10.6459875133  CLST         409          1.0000000000
      1227       409  TIP3  H2            1.7784349754      -10.3320925103        9.9057387728  CLST         409          1.0000000000
      1228       410  TIP3  OH2           9.8095705243       -7.1161764367       -5.2682013238  CLST         410          1.0000000000
      1229       410  TIP3  H1            8.9157449045       -6.7637864771       -5.5863955609  CLST         410          1.0000000000
      1230       410  TIP3  H2           10.3014154513       -6.2930875750       -5.5571693271  CLST         410          1.0000000000
      1231       411  TIP3  OH2          -9.9303561496       -2.4684111565       -1.2660084703  CLST         411          1.0000000000
      1232       411  TIP3  H1           -9.0699150326       -1.9776759867       -1.1218080819  CLST         411          1.0000000000
      1233       411  TIP3  H2           -9.5317128803       -2.8347576702       -2.1192186942  CLST         411          1.0000000000
      1234       412  TIP3  OH2           6.5885097613      -10.6650568626      -11.9756972883  CLST         412          1.0000000000
      1235       412  TIP3  H1            6.0186441116      -10.8914994970      -11.2185508272  CLST         412          1.0000000000
      1236       412  TIP3  H2            7.3981856644      -11.2674167619      -11.8350869812  CLST         412          1.0000000000
      1237       413  TIP3  OH2           7.1358538281       12.9986693517        0.3524819111  CLST         413          1.0000000000
      1238       413  TIP3  H1            7.7698474365       12.5420944063       -0.2104348513  CLST         413          1.0000000000
      1239       413  TIP3  H2            7.7456515873       13.5218649253        0.8721606720  CLST         413          1.0000000000
      1240       414  TIP3  OH2           1.5433140531       -2.5133346195      -12.3863982565  CLST         414          1.0000000000
      1241       414  TIP3  H1            0.6335685791       -2.0453014469      -12.0853318915  CLST         414          1.0000000000
      1242       414  TIP3  H2            1.5395313959       -2.2955229842      -13.3537042155  CLST         414          1.0000000000
      1243       415  TIP3  OH2           4.0250251833        5.2649972871       -8.2322774580  CLST         415          1.0000000000
      1244       415  TIP3  H1            3.4705846248        4.4451931685       -7.9929493305  CLST         415          1.0000000000
      1245       415  TIP3  H2            4.5489611113        4.6486285625       -8.8935348640  CLST         415          1.0000000000
      1246       416  TIP3  OH2           5.6816723418       12.2442882104       -7.7322019735  CLST         416          1.0000000000
      1247       416  TIP3  H1            5.4454078251       13.0855802857       -7.9595877893  CLST         416          1.0000000000
      1248       416  TIP3  H2            6.5021287191       12.1224729790       -8.3152485831  CLST         416          1.0000000000
      1249       417  TIP3  OH2          12.6376334097      -11.2247923150        2.7664246754  CLST         417          1.0000000000
      1250       417  TIP3  H1           12.0698700695      -11.8607842039        2.3069052675  CLST         417          1.0000000000
      1251       417  TIP3  H2           12.4517126533      -10.4219662923        2.2392336019  CLST         417          1.0000000000
      1252       418  TIP3  OH2          -9.2667811915       -1.6919676036        8.4097011318  CLST         418          1.0000000000
      1253       418  TIP3  H1           -8.6944408106       -1.2856701262        7.7294240082  CLST         418          1.0000000000
      1254       418  TIP3  H2           -9.4495875168       -1.0078096136        9.0643546312  CLST         418          1.0000000000
      1255       419  TIP3  OH2          14.9560536734        0.4538992093       -6.1066008848  CLST         419          1.0000000000
      1256       419  TIP3  H1           14.3515196988        0.8447996077       -5.4158846448  CLST         419          1.0000000000
      1257       419  TIP3  H2           15.7111649562        0.9757029824       -5.8973945986  CLST         419          1.0000000000
      1258       420  TIP3  OH2          -8.1920965760       -8.2463488704        3.5142983906  CLST         420          1.0000000000
      1259       420  TIP3  H1           -9.0288872290       -8.1337392055        2.9712266471  CLST         420          1.0000000000
      1260       420  TIP3  H2           -8.2435715249       -9.2279139929        3.6372812902  CLST         420          1.0000000000
      1261       421  TIP3  OH2           3.4682397066       -6.2094267957      -13.1436593335  CLST         421          1.0000000000
      1262       421  TIP3  H1            4.3230069104       -6.7073290256      -13.1414740488  CLST         421          1.0000000000
      1263       421  TIP3  H2            2.9043538365       -7.0417984488      -13.2445962524  CLST         421          1.0000000000
      1264       422  TIP3  OH2          -1.7990388402       -9.4172795141       -1.7455704087  CLST         422          1.0000000000
      1265       422  TIP3  H1           -1.1044341971      -10.0233227640       -2.0069662379  CLST         422          1.0000000000
      1266       422  TIP3  H2           -2.5561425055      -10.1040616524       -1.6802038620  CLST         422          1.0000000000
      1267       423  TIP3  OH2           1.6613002786        5.0028064794       -4.0127021573  CLST         423          1.0000000000
      1268       423  TIP3  H1            2.4691232365        5.4937902588       -4.3459887175  CLST         423          1.0000000000
      1269       423  TIP3  H2            1.9177457482        4.7507946240       -3.0908342961  CLST         423          1.0000000000
      1270       424  TIP3  OH2          -9.0430678332        4.1853424358        4.4044820969  CLST         424          1.0000000000
      1271       424  TIP3  H1           -8.8130249577        3.5259736213        3.7245943786  CLST         424          1.0000000000
      1272       424  TIP3  H2           -8.6293051989        4.9952853007        4.0679241376  CLST         424          1.0000000000
      1273       425  TIP3  OH2           8.1635561896      -12.6645680821        8.3102703291  CLST         425          1.0000000000
      1274       425  TIP3  H1            8.2621067879      -12.0912935937        7.5009445350  CLST         425          1.0000000000
      1275       425  TIP3  H2            7.8026225167      -11.9145505600        8.8767595956  CLST         425          1.0000000000
      1276       426  TIP3  OH2           8.3731046490        2.3761940221        8.1343642328  CLST         426          1.0000000000
      1277       426  TIP3  H1            9.0705260831        2.2870992103        8.8053713453  CLST         426          1.0000000000
      1278       426  TIP3  H2            8.5262784836        3.3055034782        7.8058027185  CLST         426          1.0000000000
      1279       427  TIP3  OH2          11.4621087476        7.5394646585       10.9657622363  CLST         427          1.0000000000
      1280       427  TIP3  H1           11.3695289447        8.1761715208       11.7113896265  CLST         427          1.0000000000
      1281       427  TIP3  H2           10.5602414484        7.1292747408       10.9711102371  CLST         427          1.0000000000
      1282       428  TIP3  OH2          12.3936734383        7.6239074341        1.1477065095  CLST         428          1.0000000000
      1283       428  TIP3  H1           12.1632034892        7.9754291929        0.1794794204  CLST         428          1.0000000000
      1284       428  TIP3  H2           13.2650284602        7.4011274342        0.8899613466  CLST         428          1.0000000000
      1285       429  TIP3  OH2          11.9783903673       -9.9328379780       -0.7708795710  CLST         429          1.0000000000
      1286       429  TIP3  H1           12.2424498532       -9.4644363158        0.0542278429  CLST         429          1.0000000000
      1287       429  TIP3  H2           11.4792972919       -9.2540715350       -1.2408932330  CLST         429          1.0000000000
      1288       430  TIP3  OH2           9.7947026864       -6.7967758406        3.7426521822  CLST         430          1.0000000000
      1289       430  TIP3  H1            9.6210651479       -7.1114625071        2.8098686617  CLST         430          1.0000000000
      1290       430  TIP3  H2           10.7734327374       -6.8025543124        3.6582815827  CLST         430          1.0000000000
      1291       431  TIP3  OH2         -12.9322011027        9.2704429263       -2.5389088751  CLST         431          1.0000000000
      1292       431  TIP3  H1          -13.4658559355        9.5563003294       -3.1458809891  CLST         431          1.0000000000
      1293       431  TIP3  H2          -13.5191722979        9.2833575097       -1.6756458846  CLST         431          1.0000000000
      1294       432  TIP3  OH2           5.3273799713        8.4137769648      -10.1382699977  CLST         432          1.0000000000
      1295       432  TIP3  H1            5.4826506200        8.7209192591       -9.2301412221  CLST         432          1.0000000000
      1296       432  TIP3  H2            4.5635391779        9.0112986378      -10.2321280910  CLST         432          1.0000000000
      1297       433  TIP3  OH2          -0.6995284989        8.1982879582        7.7920295170  CLST         433          1.0000000000
      1298       433  TIP3  H1           -1.5687464697        8.6667008669        7.9522262931  CLST         433          1.0000000000
      1299       433  TIP3  H2           -0.9428111678        7.4828985838        7.1689395392  CLST         433          1.0000000000
      1300       434  TIP3  OH2          -7.2817243372        0.6318699024        3.8059233754  CLST         434          1.0000000000
      1301       434  TIP3  H1           -7.7088767121        1.2343277668        3.1560309714  CLST         434          1.0000000000
      1302       434  TIP3  H2           -7.9922059846       -0.0819127202        3.6713621252  CLST         434          1.0000000000
      1303       435  TIP3  OH2           9.8896254427       -0.3377495700       -7.2057576238  CLST         435          1.0000000000
      1304       435  TIP3  H1            9.4289351275       -0.3511539059       -6.3676175717  CLST         435          1.0000000000
      1305       435  TIP3  H2           10.1521332635        0.5753286299       -7.3471235252  CLST         435          1.0000000000
      1306       436  TIP3  OH2           3.6774238958       10.4257095064       -8.9735890458  CLST         436          1.0000000000
      1307       436  TIP3  H1            3.8992979577       11.2345677498       -8.5196075967  CLST         436          1.0000000000
      1308       436  TIP3  H2            2.8530564237       10.1143363070       -8.5322816968  CLST         436          1.0000000000
      1309       437  TIP3  OH2          -8.2884058192       -0.8953032424       -8.0335528917  CLST         437          1.0000000000
      1310       437  TIP3  H1           -8.6077864631       -0.5098771260       -8.8488904015  CLST         437          1.0000000000
      1311       437  TIP3  H2           -7.3265153768       -0.7610140330       -8.0733931994  CLST         437          1.0000000000
      1312       438  TIP3  OH2          -3.3622442755        5.5300593487       -8.0610999549  CLST         438          1.0000000000
      1313       438  TIP3  H1           -4.1783738868        6.1213479570       -7.7830520531  CLST         438          1.0000000000
      1314       438  TIP3  H2           -3.6854412094        5.6037263676       -9.0202180660  CLST         438          1.0000000000
      1315       439  TIP3  OH2          14.1468703849        1.6708492048       -4.0446108682  CLST         439          1.0000000000
      1316       439  TIP3  H1           13.4794225755        2.4337501485       -4.2669131914  CLST         439          1.0000000000
      1317       439  TIP3  H2           13.6301504863        1.2809630207       -3.2443056877  CLST         439          1.0000000000
      1318       440  TIP3  OH2           1.2083286451      -12.9287730272      -11.2272282270  CLST         440          1.0000000000
      1319       440  TIP3  H1            0.2176123711      -12.6228622179      -11.2206247769  CLST         440          1.0000000000
      1320       440  TIP3  H2            1.3293348503      -13.5304800442      -11.8338865828  CLST         440          1.0000000000
      1321       441  TIP3  OH2          -1.4595781539       -4.2447423324        3.1991917221  CLST         441          1.0000000000
      1322       441  TIP3  H1           -1.5326159715       -3.3835348062        3.1879683943  CLST         441          1.0000000000
      1323       441  TIP3  H2           -1.1308969901       -4.6476941948        4.0859120932  CLST         441          1.0000000000
      1324       442  TIP3  OH2           3.2285643235       -9.8400243468       -8.0126976995  CLST         442          1.0000000000
      1325       442  TIP3  H1            3.5672274795      -10.4534359073       -8.7074995365  CLST         442          1.0000000000
      1326       442  TIP3  H2            2.4259473356       -9.4518467458       -8.4419475744  CLST         442          1.0000000000
      1327       443  TIP3  OH2           1.2438954943       10.3908216089      -12.9307054630  CLST         443          1.0000000000
      1328       443  TIP3  H1            1.3746104093       11.2041755058      -12.2210236682  CLST         443          1.0000000000
      1329       443  TIP3  H2            1.6892273460       10.9364606171      -13.6039438388  CLST         443          1.0000000000
      1330       444  TIP3  OH2          -7.9143458325        1.3152329114       -1.8784185445  CLST         444          1.0000000000
      1331       444  TIP3  H1           -7.9486868173        2.0104877134       -2.6060983199  CLST         444          1.0000000000
      1332       444  TIP3  H2           -7.3621220788        1.8199003717       -1.2367703077  CLST         444          1.0000000000
      1333       445  TIP3  OH2         -11.4889082492       -5.3122725616        6.1418477037  CLST         445          1.0000000000
      1334       445  TIP3  H1          -11.2781561499       -4.4068859146        5.8092779023  CLST         445          1.0000000000
      1335       445  TIP3  H2          -11.5537243893       -5.1362826639        7.0839887451  CLST         445          1.0000000000
      1336       446  TIP3  OH2          -2.8400662566        4.7562493955       -5.1354849383  CLST         446          1.0000000000
      1337       446  TIP3  H1           -3.2433920942        4.9807730315       -5.9799549333  CLST         446          1.0000000000
      1338       446  TIP3  H2           -1.9567975307        5.1930790847       -5.2455597305  CLST         446          1.0000000000
      1339       447  TIP3  OH2          -4.9410885575      -12.6799824479       -3.9417746149  CLST         447          1.0000000000
      1340       447  TIP3  H1           -5.3528435665      -13.2570273183       -3.3090956356  CLST         447          1.0000000000
      1341       447  TIP3  H2           -4.5510728933      -12.0570720302       -3.2765180704  CLST         447          1.0000000000
      1342       448  TIP3  OH2           7.2166656804        9.6263865614        4.7061275474  CLST         448          1.0000000000
      1343       448  TIP3  H1            7.5403816152        9.5555873546        5.6606422803  CLST         448          1.0000000000
      1344       448  TIP3  H2            6.3621657084       10.1181840714        4.7424921309  CLST         448          1.0000000000
      1345       449  TIP3  OH2           4.2231844164        5.0868461619        8.5983604979  CLST         449          1.0000000000
      1346       449  TIP3  H1            4.9639311994        4.5392660106        8.9699363817  CLST         449          1.0000000000
      1347       449  TIP3  H2            3.7104461981        4.4853605826        8.0297409452  CLST         449          1.0000000000
      1348       450  TIP3  OH2          -4.0306645361        0.4909074968       -2.0971322520  CLST         450          1.0000000000
      1349       450  TIP3  H1           -3.6361969101        1.1162014646       -2.7502224262  CLST         450          1.0000000000
      1350       450  TIP3  H2           -3.4282383559       -0.2077966627       -1.9445883028  CLST         450          1.0000000000
      1351       451  TIP3  OH2          13.5945230406       -1.9793565739       -5.8323468525  CLST         451          1.0000000000
      1352       451  TIP3  H1           14.4907158220       -2.4836264766       -5.6718750107  CLST         451          1.0000000000
      1353       451  TIP3  H2           14.7182087189       -0.5051788318       -6.1806938945  CLST         451          1.0000000000
      1354       452  TIP3  OH2           8.5761084448        5.0527185956        7.9989883898  CLST         452          1.0000000000
      1355       452  TIP3  H1            7.7512435344        5.5670637427        7.7909392237  CLST         452          1.0000000000
      1356       452  TIP3  H2            9.2200153800        5.6804592547        7.5920523187  CLST         452          1.0000000000
      1357       453  TIP3  OH2           7.2113165602        2.8635484902       -6.0987401588  CLST         453          1.0000000000
      1358       453  TIP3  H1            6.4684131518        2.5346760759       -5.5054637503  CLST         453          1.0000000000
      1359       453  TIP3  H2            6.6245218131        2.8044808217       -6.9094751377  CLST         453          1.0000000000
      1360       454  TIP3  OH2           1.1150711233        5.4547202310        1.9043177220  CLST         454          1.0000000000
      1361       454  TIP3  H1            0.2528851185        5.0104425179        1.6685784327  CLST         454          1.0000000000
      1362       454  TIP3  H2            0.8685434857        6.2251805993        2.5112176609  CLST         454          1.0000000000
      1363       455  TIP3  OH2          -1.1807257121        0.7541279449      -10.4027695325  CLST         455          1.0000000000
      1364       455  TIP3  H1           -1.6414685658        1.5777254843      -10.1771034939  CLST         455          1.0000000000
      1365       455  TIP3  H2           -0.3135031130        1.2101506711      -10.3484735162  CLST         455          1.0000000000
      1366       456  TIP3  OH2           5.2705871033       11.3285857584        5.1890430207  CLST         456          1.0000000000
      1367       456  TIP3  H1            4.6074939316       11.7735101194        4.5741489540  CLST         456          1.0000000000
      1368       456  TIP3  H2            4.5970799710       11.0704308499        5.8756662592  CLST         456          1.0000000000
      1369       457  TIP3  OH2          -4.8839356879       -7.7241728323        4.8897053018  CLST         457          1.0000000000
      1370       457  TIP3  H1           -5.6136813274       -7.3962978355        5.4834024533  CLST         457          1.0000000000
      1371       457  TIP3  H2           -5.2358282808       -7.5920997703        3.9767955796  CLST         457          1.0000000000
      1372       458  TIP3  OH2           7.9450360906       -6.4388206273      -11.4010920725  CLST         458          1.0000000000
      1373       458  TIP3  H1            8.8875351253       -6.1988018821      -11.5321690168  CLST         458          1.0000000000
      1374       458  TIP3  H2            7.7974958548       -5.6060972127      -10.8671655358  CLST         458          1.0000000000
      1375       459  TIP3  OH2           6.5538830991      -10.0102918735       -7.9401711504  CLST         459          1.0000000000
      1376       459  TIP3  H1            6.1641208530       -9.1051538650       -7.6719562886  CLST         459          1.0000000000
      1377       459  TIP3  H2            7.3114598186       -9.6086752940       -8.3815309078  CLST         459          1.0000000000
      1378       460  TIP3  OH2           9.2355238251       -2.1284463788       -2.8386973232  CLST         460          1.0000000000
      1379       460  TIP3  H1            9.7540735752       -2.5702785791       -2.1506334013  CLST         460          1.0000000000
      1380       460  TIP3  H2            9.9486027078       -1.7948736708       -3.4566624801  CLST         460          1.0000000000
      1381       461  TIP3  OH2          -1.4334161079      -12.7552236359       -5.3299637373  CLST         461          1.0000000000
      1382       461  TIP3  H1           -0.7855256244      -13.1426817628       -5.9595373904  CLST         461          1.0000000000
      1383       461  TIP3  H2           -1.0865885629      -13.1780113986       -4.5287186639  CLST         461          1.0000000000
      1384       462  TIP3  OH2           0.0010936076        5.4422861653      -12.6451691726  CLST         462          1.0000000000
      1385       462  TIP3  H1            0.1585352351        6.3943908563      -12.3438417086  CLST         462          1.0000000000
      1386       462  TIP3  H2            0.9554601847        5.3173356603      -12.8529026261  CLST         462          1.0000000000
      1387       463  TIP3  OH2          -1.8171056022        2.0142999962       -7.7404909889  CLST         463          1.0000000000
      1388       463  TIP3  H1           -1.5522284821        1.1223052124       -7.4612622107  CLST         463          1.0000000000
      1389       463  TIP3  H2           -2.7375114577        1.9802789280       -7.3972490384  CLST         463          1.0000000000
      1390       464  TIP3  OH2          -6.4725995190        6.2222885766        4.3249129807  CLST         464          1.0000000000
      1391       464  TIP3  H1           -5.9727567707        5.8566835466        5.0532058255  CLST         464          1.0000000000
      1392       464  TIP3  H2           -6.8082381816        7.0466675802        4.7945261633  CLST         464          1.0000000000
      1393       465  TIP3  OH2          -4.6185161567      -12.6194225198        6.3344957699  CLST         465          1.0000000000
      1394       465  TIP3  H1           -3.8131561336      -13.1051004290        5.9937660854  CLST         465          1.0000000000
      1395       465  TIP3  H2           -4.1229541870      -11.7198504250        6.3476550267  CLST         465          1.0000000000
      1396       466  TIP3  OH2          -2.3915168217        9.2072978472       -4.2520730536  CLST         466          1.0000000000
      1397       466  TIP3  H1           -3.0381321361        9.2889705924       -5.0089380373  CLST         466          1.0000000000
      1398       466  TIP3  H2           -2.6799330997        9.8527016215       -3.6011085049  CLST         466          1.0000000000
      1399       467  TIP3  OH2           8.4272970757        5.9924989228        4.6347113767  CLST         467          1.0000000000
      1400       467  TIP3  H1            9.0711018765        6.2866337929        5.3060179421  CLST         467          1.0000000000
      1401       467  TIP3  H2            8.3395470207        6.8142555718        4.0587515821  CLST         467          1.0000000000
      1402       468  TIP3  OH2          -0.5803362509      -12.2507893006       10.3874453001  CLST         468          1.0000000000
      1403       468  TIP3  H1           -1.1404623327      -12.0056808062       11.1847241227  CLST         468          1.0000000000
      1404       468  TIP3  H2            0.2679522028      -12.4542486879       10.7688986646  CLST         468          1.0000000000
      1405       469  TIP3  OH2           5.4641715698        8.4935039167       14.0665110084  CLST         469          1.0000000000
      1406       469  TIP3  H1            6.1550689226        8.5356292791       13.3240531412  CLST         469          1.0000000000
      1407       469  TIP3  H2            4.7974141156        9.0316427912       13.7537847984  CLST         469          1.0000000000
      1408       470  TIP3  OH2         -11.2858503084       12.7096828873        0.6697679649  CLST         470          1.0000000000
      1409       470  TIP3  H1          -10.7894363946       12.4668802102       -0.1038450478  CLST         470          1.0000000000
      1410       470  TIP3  H2          -11.8575257314       11.9128082528        0.9541174182  CLST         470          1.0000000000
      1411       471  TIP3  OH2          -4.3159817146        9.8249052835       -9.0392526078  CLST         471          1.0000000000
      1412       471  TIP3  H1           -4.0737516615        8.9674034060       -9.3634478058  CLST         471          1.0000000000
      1413       471  TIP3  H2           -4.6986624857       10.1462637008       -9.8988963224  CLST         471          1.0000000000
      1414       472  TIP3  OH2         -11.9387668931        3.9632606134        3.0076320731  CLST         472          1.0000000000
      1415       472  TIP3  H1          -12.5674922756        3.1989562424        3.0382498067  CLST         472          1.0000000000
      1416       472  TIP3  H2          -11.2448128355        3.5055613974        2.4840650200  CLST         472          1.0000000000
      1417       473  TIP3  OH2           5.4506689712        0.7496688040       10.1761380405  CLST         473          1.0000000000
      1418       473  TIP3  H1            6.1001996594        1.4919829596       10.1890608711  CLST         473          1.0000000000
      1419       473  TIP3  H2            4.6338993145        1.2023806022       10.3183563161  CLST         473          1.0000000000
      1420       474  TIP3  OH2           1.3720810638        1.6564992274        1.4807837927  CLST         474          1.0000000000
      1421       474  TIP3  H1            0.4016831161        1.7983727557        1.3760087398  CLST         474          1.0000000000
      1422       474  TIP3  H2            1.4796059353        0.9744067704        0.8448903142  CLST         474          1.0000000000
      1423       475  TIP3  OH2           5.9921980085       -8.7155561648       11.8912835758  CLST         475          1.0000000000
      1424       475  TIP3  H1            6.9200115719       -8.5973460385       12.1328749116  CLST         475          1.0000000000
      1425       475  TIP3  H2            6.0082941834       -9.0825801779       10.9746741827  CLST         475          1.0000000000
      1426       476  TIP3  OH2         -11.6056440950       -9.0630519929        0.0240849180  CLST         476          1.0000000000
      1427       476  TIP3  H1          -12.4114980458       -8.6285274001       -0.1631205492  CLST         476          1.0000000000
      1428       476  TIP3  H2          -11.0625385285       -8.7666649395       -0.7282838059  CLST         476          1.0000000000
      1429       477  TIP3  OH2         -12.3772262335        3.6337540183      -13.5886049001  CLST         477          1.0000000000
      1430       477  TIP3  H1          -12.9058299625        2.8860545837      -13.7854378836  CLST         477          1.0000000000
      1431       477  TIP3  H2          -11.5588779997        3.2627768701      -13.9418097632  CLST         477          1.0000000000
      1432       478  TIP3  OH2          -4.1170617817        6.5900544794      -10.7233866039  CLST         478          1.0000000000
      1433       478  TIP3  H1           -4.5303131701        6.2143386895      -11.5304406979  CLST         478          1.0000000000
      1434       478  TIP3  H2           -3.5522134373        7.2410648243      -11.2502834235  CLST         478          1.0000000000
      1435       479  TIP3  OH2           7.8942179444       -1.5457804593       -8.5949638582  CLST         479          1.0000000000
      1436       479  TIP3  H1            8.6769126920       -1.0400862654       -8.2717133351  CLST         479          1.0000000000
      1437       479  TIP3  H2            7.3412737194       -1.3497230042       -7.8055971187  CLST         479          1.0000000000
      1438       480  TIP3  OH2          -6.0482122878        7.6338547697       -0.0766047487  CLST         480          1.0000000000
      1439       480  TIP3  H1           -5.1318572661        8.0638218501       -0.1330603649  CLST         480          1.0000000000
      1440       480  TIP3  H2           -5.7371074950        6.6877751184       -0.0997110258  CLST         480          1.0000000000
      1441       481  TIP3  OH2          -3.1433942982        2.4154658287       11.9392628628  CLST         481          1.0000000000
      1442       481  TIP3  H1           -2.2036923124        2.5543172302       11.5881418157  CLST         481          1.0000000000
      1443       481  TIP3  H2           -2.9034237426        1.6495638607       12.4391704599  CLST         481          1.0000000000
      1444       482  TIP3  OH2          -7.9775309781       11.6309901928       -7.5785617411  CLST         482          1.0000000000
      1445       482  TIP3  H1           -8.5436058896       11.3336420563       -8.2980663945  CLST         482          1.0000000000
      1446       482  TIP3  H2           -7.1605578469       11.9992241457       -8.1093053281  CLST         482          1.0000000000
      1447       483  TIP3  OH2           6.2478530339       -5.9550347038       12.6933413708  CLST         483          1.0000000000
      1448       483  TIP3  H1            5.5560771940       -6.6418916493       12.6153565896  CLST         483          1.0000000000
      1449       483  TIP3  H2            6.2944912410       -5.6473314649       11.7737661271  CLST         483          1.0000000000
      1450       484  TIP3  OH2           6.7316542186       -3.0469606094        2.9791527767  CLST         484          1.0000000000
      1451       484  TIP3  H1            5.7628051700       -3.3073928470        2.9638568213  CLST         484          1.0000000000
      1452       484  TIP3  H2            6.6370356805       -2.3337729583        3.6420977594  CLST         484          1.0000000000
      1453       485  TIP3  OH2         -11.6740015821        4.4667209114       10.0994797463  CLST         485          1.0000000000
      1454       485  TIP3  H1          -11.2944776775        3.5454129837       10.1055277498  CLST         485          1.0000000000
      1455       485  TIP3  H2          -12.2999945299        4.2050239295        9.4083025086  CLST         485          1.0000000000
      1456       486  TIP3  OH2           8.4565801179       -7.1698179329       13.7271712080  CLST         486          1.0000000000
      1457       486  TIP3  H1            8.8619873219       -7.0792016817       14.4856935630  CLST         486          1.0000000000
      1458       486  TIP3  H2            7.6151745495       -6.6295304257       13.5077482329  CLST         486          1.0000000000
      1459       487  TIP3  OH2          12.2018434806       -8.4467505798        6.1887287863  CLST         487          1.0000000000
      1460       487  TIP3  H1           11.2169950307       -8.3369145067        6.2795080260  CLST         487          1.0000000000
      1461       487  TIP3  H2           12.3024198620       -8.5904021669        7.1727139445  CLST         487          1.0000000000
      1462       488  TIP3  OH2          15.0686725609        8.4472798824        7.7716247800  CLST         488          1.0000000000
      1463       488  TIP3  H1           15.7111649562        7.8068047614        8.0516724559  CLST         488          1.0000000000
      1464       488  TIP3  H2           14.2589835250        7.9275524753        8.1752758139  CLST         488          1.0000000000
      1465       489  TIP3  OH2          -6.0847360026      -10.8165266837       11.8203152614  CLST         489          1.0000000000
      1466       489  TIP3  H1           -6.3152162577       -9.9775621435       11.8896229497  CLST         489          1.0000000000
      1467       489  TIP3  H2           -6.9080973323      -11.2024882745       11.2814018477  CLST         489          1.0000000000
      1468       490  TIP3  OH2           6.9951502810      -12.9486439870        2.3307366192  CLST         490          1.0000000000
      1469       490  TIP3  H1            6.8390499759      -12.0390875605        2.6873529023  CLST         490          1.0000000000
      1470       490  TIP3  H2            6.9987660808      -13.6449694739        3.0594923102  CLST         490          1.0000000000
      1471       491  TIP3  OH2           3.0507777871       -9.2391027022        5.0819124176  CLST         491          1.0000000000
      1472       491  TIP3  H1            2.0806583581       -9.1367373824        5.1660114576  CLST         491          1.0000000000
      1473       491  TIP3  H2            3.1739293517       -9.9347937034        4.4434710425  CLST         491          1.0000000000
      1474       492  TIP3  OH2          -0.4751127977       -6.5785824448       12.2427597213  CLST         492          1.0000000000
      1475       492  TIP3  H1           -0.3695830294       -7.5561098138       12.2888988138  CLST         492          1.0000000000
      1476       492  TIP3  H2           -1.3507974040       -6.5479965262       11.8169084126  CLST         492          1.0000000000
      1477       493  TIP3  OH2           3.3780057211       10.6767420786        7.1635061180  CLST         493          1.0000000000
      1478       493  TIP3  H1            4.0376299549       10.9495282068        7.8649985661  CLST         493          1.0000000000
      1479       493  TIP3  H2            2.6966248091       10.2171726474        7.7555262529  CLST         493          1.0000000000
      1480       494  TIP3  OH2          -9.1366379452        5.5418742646       -0.8353147693  CLST         494          1.0000000000
      1481       494  TIP3  H1           -9.4190338357        6.2178322702       -1.5122042144  CLST         494          1.0000000000
      1482       494  TIP3  H2           -9.7626255380        5.7339236287       -0.1047235502  CLST         494          1.0000000000
      1483       495  TIP3  OH2           5.1500657718       -6.9069741737       -2.0701230088  CLST         495          1.0000000000
      1484       495  TIP3  H1            5.6700953343       -6.3665033645       -2.7404923774  CLST         495          1.0000000000
      1485       495  TIP3  H2            6.0630802590       -7.1992892326       -1.7298676317  CLST         495          1.0000000000
      1486       496  TIP3  OH2         -12.7416080984      -10.8253419194        7.4522079150  CLST         496          1.0000000000
      1487       496  TIP3  H1          -13.3000452402      -11.2297129793        8.0471090351  CLST         496          1.0000000000
      1488       496  TIP3  H2          -12.6261883190      -11.6057182603        6.8073381371  CLST         496          1.0000000000
      1489       497  TIP3  OH2          -9.6822753966      -13.4823067842       -7.3148020410  CLST         497          1.0000000000
      1490       497  TIP3  H1           -9.7541343272      -14.2532055050       -7.8699566582  CLST         497          1.0000000000
      1491       497  TIP3  H2           -9.8869565087      -12.8172615529       -7.9385556645  CLST         497          1.0000000000
      1492       498  TIP3  OH2          -5.6115229258        0.4959573739      -11.1870510213  CLST         498          1.0000000000
      1493       498  TIP3  H1           -6.1800880728        0.5290236500      -11.9566689835  CLST         498          1.0000000000
      1494       498  TIP3  H2           -5.4768834953        1.4324875236      -10.9875427213  CLST         498          1.0000000000
      1495       499  TIP3  OH2          11.6331211151        6.6362172289        3.6254484200  CLST         499          1.0000000000
      1496       499  TIP3  H1           12.2763412728        6.9195252802        3.0053653856  CLST         499          1.0000000000
      1497       499  TIP3  H2           11.2400228724        7.4779226696        3.9161792417  CLST         499          1.0000000000
      1498       500  TIP3  OH2           2.3275816020       -8.7003197614      -13.3575280739  CLST         500          1.0000000000
      1499       500  TIP3  H1            2.0761328660       -8.8895876366      -14.1257386833  CLST         500          1.0000000000
      1500       500  TIP3  H2            2.4418766680       -9.5385021538      -12.7794147114  CLST         500          1.0000000000
      1501       501  TIP3  OH2           1.4652373648      -11.0703551026       13.8331598110  CLST         501          1.0000000000
      1502       501  TIP3  H1            1.6300028679      -11.7964763859       14.4407286333  CLST         501          1.0000000000
      1503       501  TIP3  H2            2.3498869976      -10.6112900296       13.8767421153  CLST         501          1.0000000000
      1504       502  TIP3  OH2           6.1700757767        3.7539625382        9.6997804578  CLST         502          1.0000000000
      1505       502  TIP3  H1            6.5460174061        4.1236905501       10.4999170684  CLST         502          1.0000000000
      1506       502  TIP3  H2            6.9967901995        3.5212016004        9.2035278693  CLST         502          1.0000000000
      1507       503  TIP3  OH2          10.3929702018       -0.6188621932        0.3894520665  CLST         503          1.0000000000
      1508       503  TIP3  H1           11.3540961750       -0.5887770329        0.6158856075  CLST         503          1.0000000000
      1509       503  TIP3  H2           10.4006236190        0.0928036320       -0.2516564163  CLST         503          1.0000000000
      1510       504  TIP3  OH2           8.2724855195      -13.8072893646       10.7319339344  CLST         504          1.0000000000
      1511       504  TIP3  H1            7.9571181621      -13.7052889568        9.8271563635  CLST         504          1.0000000000
      1512       504  TIP3  H2            8.3458341764      -14.6396197739       10.9932914039  CLST         504          1.0000000000
      1513       505  TIP3  OH2           3.5779943319      -10.9324463151       -5.6235208098  CLST         505          1.0000000000
      1514       505  TIP3  H1            3.3877778298      -10.3115248703       -6.3503146376  CLST         505          1.0000000000
      1515       505  TIP3  H2            3.1759857026      -10.5013882697       -4.8656347912  CLST         505          1.0000000000
      1516       506  TIP3  OH2          -9.1579272608       -3.4436677899       -8.0980587552  CLST         506          1.0000000000
      1517       506  TIP3  H1           -8.8069951614       -2.5009206439       -7.9378530082  CLST         506          1.0000000000
      1518       506  TIP3  H2           -9.7809420696       -3.2622359327       -8.7786074118  CLST         506          1.0000000000
      1519       507  TIP3  OH2          11.1251594004        9.7663256310      -12.8459011705  CLST         507          1.0000000000
      1520       507  TIP3  H1           11.5247839940        9.8066240889      -13.7174866890  CLST         507          1.0000000000
      1521       507  TIP3  H2           11.0462038197        8.7863826400      -12.6055085036  CLST         507          1.0000000000
      1522       508  TIP3  OH2           9.1460614756       12.2778261681        8.8739906356  CLST         508          1.0000000000
      1523       508  TIP3  H1            8.5353792008       12.7232954141        8.2665809653  CLST         508          1.0000000000
      1524       508  TIP3  H2            9.9154336158       12.2438070782        8.2824667566  CLST         508          1.0000000000
      1525       509  TIP3  OH2          -0.8767257008       -1.5435974962      -11.4300296189  CLST         509          1.0000000000
      1526       509  TIP3  H1           -1.8235621285       -1.9016687033      -11.3271996233  CLST         509          1.0000000000
      1527       509  TIP3  H2           -1.0930812410       -0.6718723957      -10.9849812503  CLST         509          1.0000000000
      1528       510  TIP3  OH2           8.2203641433        2.2599742917       11.6582913328  CLST         510          1.0000000000
      1529       510  TIP3  H1            8.1714341453        1.2359819231       11.6331170988  CLST         510          1.0000000000
      1530       510  TIP3  H2            9.0164411505        2.3810578448       11.1096277216  CLST         510          1.0000000000
      1531       511  TIP3  OH2          -8.9570169065       -5.9230570883       -0.7311266881  CLST         511          1.0000000000
      1532       511  TIP3  H1           -9.8717480954       -6.2612589316       -0.8611504951  CLST         511          1.0000000000
      1533       511  TIP3  H2           -9.1166636066       -5.1950030301       -1.3713212035  CLST         511          1.0000000000
      1534       512  TIP3  OH2          10.0825043833        6.9596339987        6.9124506185  CLST         512          1.0000000000
      1535       512  TIP3  H1           10.3399019172        7.6315513102        7.6112060506  CLST         512          1.0000000000
      1536       512  TIP3  H2           10.2702933353        7.6281353167        6.1835341224  CLST         512          1.0000000000
      1537       513  TIP3  OH2         -11.6749669636       10.5309508852        9.2603184950  CLST         513          1.0000000000
      1538       513  TIP3  H1          -11.1542765271       11.3130100054        9.5500102085  CLST         513          1.0000000000
      1539       513  TIP3  H2          -11.5299720825        9.9256839681       10.0286847323  CLST         513          1.0000000000
      1540       514  TIP3  OH2          -4.8338947315        4.9927152167        0.2109689835  CLST         514          1.0000000000
      1541       514  TIP3  H1           -4.1051182078        5.4648263255        0.7362711264  CLST         514          1.0000000000
      1542       514  TIP3  H2           -4.4319716460        4.8985049079       -0.6763696943  CLST         514          1.0000000000
      1543       515  TIP3  OH2          -0.7216126109        0.9606566091       -4.3782526303  CLST         515          1.0000000000
      1544       515  TIP3  H1           -1.5363228715        1.4537333066       -4.1269731933  CLST         515          1.0000000000
      1545       515  TIP3  H2           -0.0657716065        1.6466186376       -4.5968395630  CLST         515          1.0000000000
      1546       516  TIP3  OH2          -7.2050761300       -8.3894929915        6.4248043924  CLST         516          1.0000000000
      1547       516  TIP3  H1           -7.4996290948       -8.2624675222        5.4826123846  CLST         516          1.0000000000
      1548       516  TIP3  H2           -7.7475294113       -7.5651581541        6.7288361946  CLST         516          1.0000000000
      1549       517  TIP3  OH2           0.5338193519       11.1039524359       11.5553077852  CLST         517          1.0000000000
      1550       517  TIP3  H1            0.4947617592       10.8895717322       10.6005054835  CLST         517          1.0000000000
      1551       517  TIP3  H2           -0.4461287854       11.3277085312       11.6384840692  CLST         517          1.0000000000
      1552       518  TIP3  OH2         -11.7222613765       -3.5365575270      -11.5171171395  CLST         518          1.0000000000
      1553       518  TIP3  H1          -11.8072409826       -3.0315381616      -12.3438300676  CLST         518          1.0000000000
      1554       518  TIP3  H2          -10.9791116085       -4.0380919014      -11.8772701003  CLST         518          1.0000000000
      1555       519  TIP3  OH2           2.2371279219        3.4181575808        3.2393593204  CLST         519          1.0000000000
      1556       519  TIP3  H1            1.7217373122        4.0926569137        2.6902840544  CLST         519          1.0000000000
      1557       519  TIP3  H2            2.0134039801        2.5877039969        2.7864345420  CLST         519          1.0000000000
      1558       520  TIP3  OH2         -10.2773606710        6.2839645669        8.2191506060  CLST         520          1.0000000000
      1559       520  TIP3  H1          -10.6025882703        5.7595772590        7.4388185382  CLST         520          1.0000000000
      1560       520  TIP3  H2          -10.5746191846        5.6441173338        8.9248758145  CLST         520          1.0000000000
      1561       521  TIP3  OH2           8.3305919058       -8.8031218334       -9.5866516273  CLST         521          1.0000000000
      1562       521  TIP3  H1            8.4359808183       -9.3843574973      -10.3977958010  CLST         521          1.0000000000
      1563       521  TIP3  H2            8.0126973403       -8.0184973953      -10.0822714675  CLST         521          1.0000000000
      1564       522  TIP3  OH2          -5.6250116451       -7.0062995553        8.2521520472  CLST         522          1.0000000000
      1565       522  TIP3  H1           -5.8893886453       -7.7710055837        7.7158730970  CLST         522          1.0000000000
      1566       522  TIP3  H2           -4.7249130854       -7.2503307312        8.5391095027  CLST         522          1.0000000000
      1567       523  TIP3  OH2          -4.0629320995       12.0120002825      -13.6078203133  CLST         523          1.0000000000
      1568       523  TIP3  H1           -2.7593081899       11.8492974075      -13.4651903295  CLST         523          1.0000000000
      1569       523  TIP3  H2           -4.3854783686       12.3645440221      -14.4083327811  CLST         523          1.0000000000
      1570       524  TIP3  OH2           6.9584957936        3.8289166756       -1.7966122612  CLST         524          1.0000000000
      1571       524  TIP3  H1            7.2628350152        2.9712293321       -2.1159813084  CLST         524          1.0000000000
      1572       524  TIP3  H2            6.0028086684        3.7933941714       -2.0086945124  CLST         524          1.0000000000
      1573       525  TIP3  OH2           0.4274491897        6.8729758685       -2.5698371574  CLST         525          1.0000000000
      1574       525  TIP3  H1            0.6923114655        6.1573495914       -3.2098671289  CLST         525          1.0000000000
      1575       525  TIP3  H2            0.3194053184        6.2135633454       -1.8090638936  CLST         525          1.0000000000
      1576       526  TIP3  OH2           7.0990963066       -5.6565737784       -3.5602857661  CLST         526          1.0000000000
      1577       526  TIP3  H1            7.2363341760       -5.5633413111       -4.5458639945  CLST         526          1.0000000000
      1578       526  TIP3  H2            8.0275198954       -5.8756365723       -3.3125871945  CLST         526          1.0000000000
      1579       527  TIP3  OH2           0.4826611285        7.1854677825        3.9875651864  CLST         527          1.0000000000
      1580       527  TIP3  H1            1.1560239799        7.5891303498        4.5622616350  CLST         527          1.0000000000
      1581       527  TIP3  H2           -0.1016229405        7.8030192458        3.5426269919  CLST         527          1.0000000000
      1582       528  TIP3  OH2          -2.6745817576        9.8801335167        8.7791628052  CLST         528          1.0000000000
      1583       528  TIP3  H1           -2.9430725923        9.5307269345        9.6710707248  CLST         528          1.0000000000
      1584       528  TIP3  H2           -3.5493532909        9.9296859966        8.3455551114  CLST         528          1.0000000000
      1585       529  TIP3  OH2          -5.8874115680       12.3683717314       -9.2147968595  CLST         529          1.0000000000
      1586       529  TIP3  H1           -4.9479345791       12.4483128493       -9.1002550507  CLST         529          1.0000000000
      1587       529  TIP3  H2           -5.9057659874       11.8580143829      -10.0730854020  CLST         529          1.0000000000
      1588       530  TIP3  OH2          -4.5226775026       -5.5734026029      -13.1709093236  CLST         530          1.0000000000
      1589       530  TIP3  H1           -4.4066895007       -6.5438807798      -13.3948265417  CLST         530          1.0000000000
      1590       530  TIP3  H2           -3.5957814405       -5.2433069985      -13.0634931881  CLST         530          1.0000000000
      1591       531  TIP3  OH2         -11.6813205357       -0.1860281890       10.4331702747  CLST         531          1.0000000000
      1592       531  TIP3  H1          -12.3292302160       -0.0754755737       11.0509312610  CLST         531          1.0000000000
      1593       531  TIP3  H2          -11.9984201297       -0.8802777461        9.8089546715  CLST         531          1.0000000000
      1594       532  TIP3  OH2         -12.0808189389       -3.0069264422       -8.7585191772  CLST         532          1.0000000000
      1595       532  TIP3  H1          -12.6202122445       -3.7984032375       -8.6430873246  CLST         532          1.0000000000
      1596       532  TIP3  H2          -11.9942580873       -3.1606441149       -9.7793819436  CLST         532          1.0000000000
      1597       533  TIP3  OH2          -2.8611790833       -7.3077008390        8.6644703841  CLST         533          1.0000000000
      1598       533  TIP3  H1           -2.1471542907       -7.9068643276        8.3419146827  CLST         533          1.0000000000
      1599       533  TIP3  H2           -2.4666469957       -6.4547516321        8.4071352840  CLST         533          1.0000000000
      1600       534  TIP3  OH2           0.3299857720      -13.2877078560       -7.6614876572  CLST         534          1.0000000000
      1601       534  TIP3  H1            0.4499388810      -13.0781279136       -8.6162299642  CLST         534          1.0000000000
      1602       534  TIP3  H2            1.2897762628      -13.1578823055       -7.4008716042  CLST         534          1.0000000000
      1603       535  TIP3  OH2           2.7122976969        3.2369177328       -7.5754569741  CLST         535          1.0000000000
      1604       535  TIP3  H1            3.2777118453        2.7424962292       -6.9168758018  CLST         535          1.0000000000
      1605       535  TIP3  H2            1.9189611680        3.3061004947       -6.9634259104  CLST         535          1.0000000000
      1606       536  TIP3  OH2           7.9580282485      -12.7453933024       -3.3098979844  CLST         536          1.0000000000
      1607       536  TIP3  H1            7.4865475226      -12.7922913828       -4.1825358826  CLST         536          1.0000000000
      1608       536  TIP3  H2            8.4703113612      -13.5372878669       -3.3855811447  CLST         536          1.0000000000
      1609       537  TIP3  OH2          11.7338016670       -2.8217912158       -7.5987613726  CLST         537          1.0000000000
      1610       537  TIP3  H1           10.9986265041       -2.1676609361       -7.7123033029  CLST         537          1.0000000000
      1611       537  TIP3  H2           12.2700731397       -2.3185354844       -6.9198158528  CLST         537          1.0000000000
      1612       538  TIP3  OH2          -5.1429512894      -10.9525968519        0.8240221496  CLST         538          1.0000000000
      1613       538  TIP3  H1           -4.3983884289      -11.4030835300        1.3088974775  CLST         538          1.0000000000
      1614       538  TIP3  H2           -4.7481680375      -10.0074806998        1.0059992589  CLST         538          1.0000000000
      1615       539  TIP3  OH2           2.3830350831       -5.1006310520        0.8086437187  CLST         539          1.0000000000
      1616       539  TIP3  H1            1.4828860340       -5.3812046133        1.2061186188  CLST         539          1.0000000000
      1617       539  TIP3  H2            2.1060977485       -5.5347847489       -0.0464788073  CLST         539          1.0000000000
      1618       540  TIP3  OH2           3.9817580953       -6.8970647563        4.7031241395  CLST         540          1.0000000000
      1619       540  TIP3  H1            3.6400300137       -7.8609969370        4.8751908880  CLST         540          1.0000000000
      1620       540  TIP3  H2            4.3148944365       -7.0201784872        3.7220930593  CLST         540          1.0000000000
      1621       541  TIP3  OH2          -5.4303555847       10.5290818760        2.1696113992  CLST         541          1.0000000000
      1622       541  TIP3  H1           -5.9668447402       10.5868160190        2.9993120495  CLST         541          1.0000000000
      1623       541  TIP3  H2           -4.8523750204       11.2790505167        2.3381372770  CLST         541          1.0000000000
      1624       542  TIP3  OH2         -10.9590915330       14.4787140080        5.4889141545  CLST         542          1.0000000000
      1625       542  TIP3  H1          -10.6880396056       15.2821938127        5.0789260353  CLST         542          1.0000000000
      1626       542  TIP3  H2          -10.9524936154       13.9818876343        4.5846108968  CLST         542          1.0000000000
      1627       543  TIP3  OH2         -10.5956474160       11.4736761388       -2.4075378241  CLST         543          1.0000000000
      1628       543  TIP3  H1          -11.2948982184       10.8442180123       -2.7304351745  CLST         543          1.0000000000
      1629       543  TIP3  H2          -10.3983765943       11.8950063288       -3.2938195714  CLST         543          1.0000000000
      1630       544  TIP3  OH2          -0.3358748234        5.7472726314       -5.6076808903  CLST         544          1.0000000000
      1631       544  TIP3  H1           -0.2509900116        5.1412758363       -6.4385054587  CLST         544          1.0000000000
      1632       544  TIP3  H2            0.4095285410        5.4234568345       -5.0014081668  CLST         544          1.0000000000
      1633       545  TIP3  OH2          -7.7360339017        2.3849974834      -12.5158812599  CLST         545          1.0000000000
      1634       545  TIP3  H1           -7.9042328748        2.0830428393      -13.4598809821  CLST         545          1.0000000000
      1635       545  TIP3  H2           -8.4445447125        3.1045651768      -12.4385393048  CLST         545          1.0000000000
      1636       546  TIP3  OH2           3.8368049451       11.2112462184       -2.1903575181  CLST         546          1.0000000000
      1637       546  TIP3  H1            3.3046729079       10.4909029383       -1.9655189240  CLST         546          1.0000000000
      1638       546  TIP3  H2            4.4824564908       11.0587983092       -1.3671640530  CLST         546          1.0000000000
      1639       547  TIP3  OH2          -3.5564314472       -2.1035377596      -11.1009841421  CLST         547          1.0000000000
      1640       547  TIP3  H1           -3.5338022812       -1.9555372737      -10.1350625975  CLST         547          1.0000000000
      1641       547  TIP3  H2           -3.9443046670       -1.2525267448      -11.4034023238  CLST         547          1.0000000000
      1642       548  TIP3  OH2          10.5749142571        2.3890060328        1.4120366069  CLST         548          1.0000000000
      1643       548  TIP3  H1            9.6840529789        2.0159051841        1.6120897357  CLST         548          1.0000000000
      1644       548  TIP3  H2           10.4594609443        3.2104231773        1.9467737992  CLST         548          1.0000000000
