* Geometry rescue: EQUI at step 5000
*
        1644  EXT
         1         1  TIP3  OH2           4.4678512631       -1.6110759800       -2.2133062782  CLST           1          1.0000000000
         2         1  TIP3  H1            4.7242898220       -1.7069211324       -1.2990281966  CLST           1          1.0000000000
         3         1  TIP3  H2            5.2271641982       -2.0094921360       -2.6558802665  CLST           1          1.0000000000
         4         2  TIP3  OH2          10.6085809307        7.3653845104      -11.7169055166  CLST           2          1.0000000000
         5         2  TIP3  H1           10.8957025764        7.0432420480      -10.8355333226  CLST           2          1.0000000000
         6         2  TIP3  H2            9.6237771558        7.4176710899      -11.4512731920  CLST           2          1.0000000000
         7         3  TIP3  OH2           8.7935975312        5.2828470143       -4.2997959800  CLST           3          1.0000000000
         8         3  TIP3  H1            9.0309977105        5.5673305541       -3.3846112646  CLST           3          1.0000000000
         9         3  TIP3  H2            8.8875263101        6.1379834678       -4.7412357756  CLST           3          1.0000000000
        10         4  TIP3  OH2          -2.7176602435        6.7898396468       10.1527729691  CLST           4          1.0000000000
        11         4  TIP3  H1           -3.4800156162        7.1721783954        9.5907804397  CLST           4          1.0000000000
        12         4  TIP3  H2           -2.9199443300        7.4628191528       10.8506544411  CLST           4          1.0000000000
        13         5  TIP3  OH2           9.1147490007        6.2865007945       10.5684546286  CLST           5          1.0000000000
        14         5  TIP3  H1            8.6680204153        5.6047921037       11.1126901541  CLST           5          1.0000000000
        15         5  TIP3  H2            8.7761326819        5.9654883513        9.7062226818  CLST           5          1.0000000000
        16         6  TIP3  OH2          10.4656645708       -5.9196651405      -11.6434671575  CLST           6          1.0000000000
        17         6  TIP3  H1           11.0435382584       -5.4467951673      -10.9800533009  CLST           6          1.0000000000
        18         6  TIP3  H2           10.3866990012       -5.1152428812      -12.2717883828  CLST           6          1.0000000000
        19         7  TIP3  OH2         -12.3509441550        8.3048413058        5.7669731037  CLST           7          1.0000000000
        20         7  TIP3  H1          -12.6375726065        9.1751821144        6.1757254219  CLST           7          1.0000000000
        21         7  TIP3  H2          -11.4757161372        8.2342354349        6.1982135716  CLST           7          1.0000000000
        22         8  TIP3  OH2          -4.3719301793       -8.3536160869        0.7057045267  CLST           8          1.0000000000
        23         8  TIP3  H1           -4.9799000792       -7.6576442079        0.9901545139  CLST           8          1.0000000000
        24         8  TIP3  H2           -3.6713599324       -7.8404832189        0.2690004120  CLST           8          1.0000000000
        25         9  TIP3  OH2           2.6048655453      -14.2165108712       -4.1178238743  CLST           9          1.0000000000
        26         9  TIP3  H1            1.6914168023      -14.3190612625       -3.7820770512  CLST           9          1.0000000000
        27         9  TIP3  H2            2.9994032235      -13.9179359728       -3.3041103529  CLST           9          1.0000000000
        28        10  TIP3  OH2         -14.1184681867       -1.0907976199       -0.3454836137  CLST          10          1.0000000000
        29        10  TIP3  H1          -13.6594056370       -1.4367120975       -1.2087299170  CLST          10          1.0000000000
        30        10  TIP3  H2          -14.3618050132       -1.7590753275        0.1338021555  CLST          10          1.0000000000
        31        11  TIP3  OH2           6.9885091264        6.5652837229       -1.8400296972  CLST          11          1.0000000000
        32        11  TIP3  H1            7.1454276372        5.6206894804       -2.0655641752  CLST          11          1.0000000000
        33        11  TIP3  H2            6.9159270045        6.8647045928       -2.8213729943  CLST          11          1.0000000000
        34        12  TIP3  OH2          -8.2249812239        2.6079020215        1.8892751283  CLST          12          1.0000000000
        35        12  TIP3  H1           -7.6873464506        2.8778353669        1.0690096409  CLST          12          1.0000000000
        36        12  TIP3  H2           -9.0847891464        2.4161966075        1.4724888800  CLST          12          1.0000000000
        37        13  TIP3  OH2           7.8183627856        2.5656771635        2.2128026155  CLST          13          1.0000000000
        38        13  TIP3  H1            7.4969668580        3.2731078212        1.6227056911  CLST          13          1.0000000000
        39        13  TIP3  H2            7.6718312468        2.9182708016        3.1164705963  CLST          13          1.0000000000
        40        14  TIP3  OH2          -0.3144733710        2.2022725391        8.0599142234  CLST          14          1.0000000000
        41        14  TIP3  H1            0.0644738391        2.9391362687        7.5160300531  CLST          14          1.0000000000
        42        14  TIP3  H2            0.4226578395        1.5461842562        7.7497394318  CLST          14          1.0000000000
        43        15  TIP3  OH2          -8.9633627336       -3.8543828444      -12.7544138253  CLST          15          1.0000000000
        44        15  TIP3  H1           -8.2355517120       -3.6159584786      -13.3311769185  CLST          15          1.0000000000
        45        15  TIP3  H2           -8.4673393268       -4.5494141613      -12.2330560053  CLST          15          1.0000000000
        46        16  TIP3  OH2          -3.8011226744      -12.7508005266       -6.1806204137  CLST          16          1.0000000000
        47        16  TIP3  H1           -4.2728020513      -12.7507330687       -5.2964177544  CLST          16          1.0000000000
        48        16  TIP3  H2           -2.8933121168      -12.8752683953       -5.8232649761  CLST          16          1.0000000000
        49        17  TIP3  OH2           4.8291810468      -13.5411547524       -8.4797451126  CLST          17          1.0000000000
        50        17  TIP3  H1            5.3171060719      -13.6060287914       -7.6073706036  CLST          17          1.0000000000
        51        17  TIP3  H2            3.9868568380      -13.4942039412       -7.8892455609  CLST          17          1.0000000000
        52        18  TIP3  OH2         -11.7748276237       -6.7965815173       -1.5268606816  CLST          18          1.0000000000
        53        18  TIP3  H1          -12.1125829394       -5.8583439562       -1.8672248150  CLST          18          1.0000000000
        54        18  TIP3  H2          -11.7914928244       -7.2027963712       -2.4842766782  CLST          18          1.0000000000
        55        19  TIP3  OH2          10.9295247315       -0.0667061438        9.5463778507  CLST          19          1.0000000000
        56        19  TIP3  H1           10.6944225854       -0.9568784599        9.8877118376  CLST          19          1.0000000000
        57        19  TIP3  H2           10.8494317496       -0.1518815393        8.5865994377  CLST          19          1.0000000000
        58        20  TIP3  OH2         -13.1625140235        1.4057772470        2.7648131196  CLST          20          1.0000000000
        59        20  TIP3  H1          -12.9241267953        1.2421887528        1.8168300220  CLST          20          1.0000000000
        60        20  TIP3  H2          -14.0533257394        1.7166544144        2.6385184033  CLST          20          1.0000000000
        61        21  TIP3  OH2         -10.0921502843       12.6540172093       -5.3919593004  CLST          21          1.0000000000
        62        21  TIP3  H1          -10.2890713831       13.3191943751       -6.0327967967  CLST          21          1.0000000000
        63        21  TIP3  H2           -9.3368474352       12.3821757725       -5.9285312109  CLST          21          1.0000000000
        64        22  TIP3  OH2           2.8191629916       12.2293090297       -6.5354842568  CLST          22          1.0000000000
        65        22  TIP3  H1            3.4107851296       11.5071273768       -6.1265089192  CLST          22          1.0000000000
        66        22  TIP3  H2            3.1095171035       12.8296221969       -5.7436392196  CLST          22          1.0000000000
        67        23  TIP3  OH2           5.6834844643       -1.6826171068       11.5240502180  CLST          23          1.0000000000
        68        23  TIP3  H1            5.3387486439       -2.3297545724       10.8703657654  CLST          23          1.0000000000
        69        23  TIP3  H2            5.2463872156       -0.9448864835       11.0646329650  CLST          23          1.0000000000
        70        24  TIP3  OH2          -0.1258581882        1.1379092206        4.4719824887  CLST          24          1.0000000000
        71        24  TIP3  H1            0.5288228683        0.9710716386        5.1794395311  CLST          24          1.0000000000
        72        24  TIP3  H2           -0.8708289469        0.5504143183        4.7784325260  CLST          24          1.0000000000
        73        25  TIP3  OH2           3.3264087952        1.9995563215       -2.6254977206  CLST          25          1.0000000000
        74        25  TIP3  H1            3.7409521538        1.6285193489       -1.8281744705  CLST          25          1.0000000000
        75        25  TIP3  H2            3.6334409152        2.9534321901       -2.6089500189  CLST          25          1.0000000000
        76        26  TIP3  OH2          11.2112848143        5.3586609566       -6.6184385262  CLST          26          1.0000000000
        77        26  TIP3  H1           10.3328940967        5.0633169922       -7.0170079929  CLST          26          1.0000000000
        78        26  TIP3  H2           11.0669590288        6.2474551515       -6.2712168344  CLST          26          1.0000000000
        79        27  TIP3  OH2         -10.3780480649        7.3933405985       -5.4211740464  CLST          27          1.0000000000
        80        27  TIP3  H1          -10.5937063991        7.8813921843       -4.6057484153  CLST          27          1.0000000000
        81        27  TIP3  H2          -10.9549750375        7.7837259015       -6.0794217535  CLST          27          1.0000000000
        82        28  TIP3  OH2          -4.3113940103      -10.1790586022       -6.7167722269  CLST          28          1.0000000000
        83        28  TIP3  H1           -4.4283211940      -11.1453613928       -6.4498788956  CLST          28          1.0000000000
        84        28  TIP3  H2           -5.1935061490       -9.9421146315       -6.3756162619  CLST          28          1.0000000000
        85        29  TIP3  OH2         -10.6944921731        7.4895216778       -2.5824512912  CLST          29          1.0000000000
        86        29  TIP3  H1          -10.1003057453        8.1318446657       -2.0787869102  CLST          29          1.0000000000
        87        29  TIP3  H2          -11.5469634909        7.9635079627       -2.3934992495  CLST          29          1.0000000000
        88        30  TIP3  OH2           8.6750417887      -10.4449171575       -2.1544617911  CLST          30          1.0000000000
        89        30  TIP3  H1            9.1916067184      -11.1457308695       -1.6157990000  CLST          30          1.0000000000
        90        30  TIP3  H2            8.1717392398      -11.1445149232       -2.7032804260  CLST          30          1.0000000000
        91        31  TIP3  OH2          -9.7296863432       -1.1011289874      -12.9866908780  CLST          31          1.0000000000
        92        31  TIP3  H1           -9.6768499271       -2.0439885838      -12.8046499243  CLST          31          1.0000000000
        93        31  TIP3  H2           -9.5997262029       -0.7010685606      -12.0866501198  CLST          31          1.0000000000
        94        32  TIP3  OH2          -8.8441335221       -6.4480235494        6.9120546591  CLST          32          1.0000000000
        95        32  TIP3  H1           -9.7574969835       -6.1095221468        7.1290099795  CLST          32          1.0000000000
        96        32  TIP3  H2           -8.6164976467       -5.8310523520        6.1539742521  CLST          32          1.0000000000
        97        33  TIP3  OH2          11.7532137811       -8.9522825903        8.9312009640  CLST          33          1.0000000000
        98        33  TIP3  H1           11.8398530808       -9.8578231063        9.2725343658  CLST          33          1.0000000000
        99        33  TIP3  H2           11.4657547368       -8.5100221159        9.7182208094  CLST          33          1.0000000000
       100        34  TIP3  OH2           4.1665411604       -4.0535875041        2.9321985237  CLST          34          1.0000000000
       101        34  TIP3  H1            3.5568084910       -4.1799535125        2.1863420794  CLST          34          1.0000000000
       102        34  TIP3  H2            4.2387193571       -4.9629205526        3.2297474826  CLST          34          1.0000000000
       103        35  TIP3  OH2           6.2118237946       -0.9093495674        4.4139497912  CLST          35          1.0000000000
       104        35  TIP3  H1            5.3304191758       -1.1785822980        4.8566303066  CLST          35          1.0000000000
       105        35  TIP3  H2            6.7345733922       -0.3837606423        5.0317538782  CLST          35          1.0000000000
       106        36  TIP3  OH2          -1.5401974907        1.3188423265        2.2700626627  CLST          36          1.0000000000
       107        36  TIP3  H1           -1.8012274802        0.4073558380        2.5664650275  CLST          36          1.0000000000
       108        36  TIP3  H2           -0.8074491707        1.2845464782        2.9940871362  CLST          36          1.0000000000
       109        37  TIP3  OH2          -4.4153205660       -8.4030217667      -13.0360696805  CLST          37          1.0000000000
       110        37  TIP3  H1           -5.1505114029       -8.5091205970      -12.4442065730  CLST          37          1.0000000000
       111        37  TIP3  H2           -4.1504419367       -9.2511252184      -13.4347964413  CLST          37          1.0000000000
       112        38  TIP3  OH2          -3.1145412188        2.0692331923       -4.4751958185  CLST          38          1.0000000000
       113        38  TIP3  H1           -2.9929619923        2.9627829659       -4.8975651897  CLST          38          1.0000000000
       114        38  TIP3  H2           -3.3458729845        1.5940425300       -5.3023615374  CLST          38          1.0000000000
       115        39  TIP3  OH2           1.6869608194      -10.8895319600        2.0338578071  CLST          39          1.0000000000
       116        39  TIP3  H1            1.5192186502      -11.4627996700        2.8133993666  CLST          39          1.0000000000
       117        39  TIP3  H2            0.7645375294      -10.5832342343        1.7629397433  CLST          39          1.0000000000
       118        40  TIP3  OH2          -7.0468457775       12.4944043246        8.2646957365  CLST          40          1.0000000000
       119        40  TIP3  H1           -7.9368261331       12.8423303067        8.0374951865  CLST          40          1.0000000000
       120        40  TIP3  H2           -6.5705123051       12.7509278038        7.4560151650  CLST          40          1.0000000000
       121        41  TIP3  OH2           9.7012839418       -2.3834270142      -11.0738810115  CLST          41          1.0000000000
       122        41  TIP3  H1            8.9045096784       -2.9895831567      -10.8557049369  CLST          41          1.0000000000
       123        41  TIP3  H2            9.1632148492       -1.5798994175      -10.9696671084  CLST          41          1.0000000000
       124        42  TIP3  OH2           9.4898813875       10.2764294179      -10.6241850295  CLST          42          1.0000000000
       125        42  TIP3  H1           10.3518525863       10.1810628139      -10.1963730919  CLST          42          1.0000000000
       126        42  TIP3  H2            9.8651391696       10.2879450159      -11.5674936583  CLST          42          1.0000000000
       127        43  TIP3  OH2          11.9813954170       12.6406918228        7.8209367528  CLST          43          1.0000000000
       128        43  TIP3  H1           12.7609795599       13.1564663755        7.7989680386  CLST          43          1.0000000000
       129        43  TIP3  H2           12.4462777753       11.8309446953        8.2328047739  CLST          43          1.0000000000
       130        44  TIP3  OH2           7.7515707192        1.0473272369        5.8973230532  CLST          44          1.0000000000
       131        44  TIP3  H1            7.9527531389        1.4566067691        6.7992592737  CLST          44          1.0000000000
       132        44  TIP3  H2            7.3945326949        1.9063636218        5.5561123863  CLST          44          1.0000000000
       133        45  TIP3  OH2           7.9747303904        9.5210479788        7.2893548680  CLST          45          1.0000000000
       134        45  TIP3  H1            7.5632375579        8.6424081044        7.4637410969  CLST          45          1.0000000000
       135        45  TIP3  H2            8.8053291795        9.4004409023        7.8291034041  CLST          45          1.0000000000
       136        46  TIP3  OH2          -5.7068601726       -3.2306077493      -12.9031788254  CLST          46          1.0000000000
       137        46  TIP3  H1           -5.3633317745       -4.1723262469      -13.0677884417  CLST          46          1.0000000000
       138        46  TIP3  H2           -4.9642064455       -2.9810401400      -12.3124848776  CLST          46          1.0000000000
       139        47  TIP3  OH2           1.2953505400       -6.6417313393      -11.0893776944  CLST          47          1.0000000000
       140        47  TIP3  H1            1.5300572473       -5.7310717818      -10.8913008177  CLST          47          1.0000000000
       141        47  TIP3  H2            1.4675982959       -6.6757493770      -12.0172083189  CLST          47          1.0000000000
       142        48  TIP3  OH2           5.0649562342        5.5132895353        1.1081624219  CLST          48          1.0000000000
       143        48  TIP3  H1            5.9608123869        5.2633448131        0.7888114387  CLST          48          1.0000000000
       144        48  TIP3  H2            5.3541534247        6.4712881093        1.2403765519  CLST          48          1.0000000000
       145        49  TIP3  OH2          -3.3314797324      -10.7682241541      -13.7303599922  CLST          49          1.0000000000
       146        49  TIP3  H1           -2.5293702928      -10.7821084011      -13.1930902402  CLST          49          1.0000000000
       147        49  TIP3  H2           -3.9889940272      -11.1846268710      -13.1499328486  CLST          49          1.0000000000
       148        50  TIP3  OH2           2.8296931139        3.8428035957        5.9537107164  CLST          50          1.0000000000
       149        50  TIP3  H1            1.9836736106        4.1518773433        6.3773460801  CLST          50          1.0000000000
       150        50  TIP3  H2            2.5540500601        3.7476631037        4.9904326547  CLST          50          1.0000000000
       151        51  TIP3  OH2          -6.4860474574       -9.9906616879       -4.7217282894  CLST          51          1.0000000000
       152        51  TIP3  H1           -6.4729860113       -9.8769008423       -3.7412021821  CLST          51          1.0000000000
       153        51  TIP3  H2           -6.6210371081      -10.9490416126       -4.7902556387  CLST          51          1.0000000000
       154        52  TIP3  OH2           9.0551466190       -5.5504310938       -0.1500327783  CLST          52          1.0000000000
       155        52  TIP3  H1            9.3709470082       -5.3217385412       -1.0501805382  CLST          52          1.0000000000
       156        52  TIP3  H2            8.9623502201       -4.6047687016        0.1883069342  CLST          52          1.0000000000
       157        53  TIP3  OH2          -9.6189356016       10.0086160574      -12.4960167835  CLST          53          1.0000000000
       158        53  TIP3  H1           -9.8229675997       10.4803444618      -13.3002970598  CLST          53          1.0000000000
       159        53  TIP3  H2           -8.7077027861        9.4887139444      -12.5466517317  CLST          53          1.0000000000
       160        54  TIP3  OH2           0.4377659396       -2.9751243285       -9.4556099302  CLST          54          1.0000000000
       161        54  TIP3  H1            1.3203524046       -3.3500211260       -9.7237615474  CLST          54          1.0000000000
       162        54  TIP3  H2            0.2209140430       -2.4965882982      -10.2813424536  CLST          54          1.0000000000
       163        55  TIP3  OH2           3.0149423054       -4.0302968854      -14.6875251675  CLST          55          1.0000000000
       164        55  TIP3  H1            3.2457524547       -4.9033334956      -14.3339959450  CLST          55          1.0000000000
       165        55  TIP3  H2            3.0279751650       -3.7793549871      -15.4701374266  CLST          55          1.0000000000
       166        56  TIP3  OH2         -10.0865887856       11.0387672592        5.8384555301  CLST          56          1.0000000000
       167        56  TIP3  H1          -10.0670514039       10.1833485709        6.3404939214  CLST          56          1.0000000000
       168        56  TIP3  H2          -10.3129455705       10.6962400678        4.9545655920  CLST          56          1.0000000000
       169        57  TIP3  OH2           1.8015163507      -13.3484964366        0.3888971331  CLST          57          1.0000000000
       170        57  TIP3  H1            1.8846296057      -12.4173662259        0.7257072534  CLST          57          1.0000000000
       171        57  TIP3  H2            2.6873922723      -13.2774947657       -0.0620637492  CLST          57          1.0000000000
       172        58  TIP3  OH2         -13.0865729106       10.7090819534        6.8688802646  CLST          58          1.0000000000
       173        58  TIP3  H1          -12.4064336996       11.2807989278        6.5116150272  CLST          58          1.0000000000
       174        58  TIP3  H2          -12.8630270145       10.7136304279        7.8336623983  CLST          58          1.0000000000
       175        59  TIP3  OH2         -11.6136904181       -2.6887971912        5.5223625238  CLST          59          1.0000000000
       176        59  TIP3  H1          -12.0200078331       -2.5083109760        6.3985881438  CLST          59          1.0000000000
       177        59  TIP3  H2          -11.5179545317       -1.7601089728        5.1761804293  CLST          59          1.0000000000
       178        60  TIP3  OH2           1.4111237331        9.5089985255        8.5923090675  CLST          60          1.0000000000
       179        60  TIP3  H1            0.6155014649        8.9576360026        8.2758548149  CLST          60          1.0000000000
       180        60  TIP3  H2            1.9031488805        8.6526490600        8.7933838123  CLST          60          1.0000000000
       181        61  TIP3  OH2           2.7318586983       -0.6645320007       -5.5018657761  CLST          61          1.0000000000
       182        61  TIP3  H1            3.2427019959       -1.5229086153       -5.4460162691  CLST          61          1.0000000000
       183        61  TIP3  H2            2.1624023974       -0.9113551916       -6.3084051965  CLST          61          1.0000000000
       184        62  TIP3  OH2           7.8681917930        8.4055878248       12.4849949969  CLST          62          1.0000000000
       185        62  TIP3  H1            8.0657340394        7.5385259245       12.0912042743  CLST          62          1.0000000000
       186        62  TIP3  H2            7.9131977261        8.9996383277       11.7908989292  CLST          62          1.0000000000
       187        63  TIP3  OH2           4.6357706710       -6.9514221219      -10.3537947824  CLST          63          1.0000000000
       188        63  TIP3  H1            3.7650155799       -6.9044368623      -10.7551330555  CLST          63          1.0000000000
       189        63  TIP3  H2            5.1706309603       -7.4575039786      -11.0651377769  CLST          63          1.0000000000
       190        64  TIP3  OH2          -2.2723325251       11.8101234060        5.3072032129  CLST          64          1.0000000000
       191        64  TIP3  H1           -2.4358866445       10.8270131219        5.4468340101  CLST          64          1.0000000000
       192        64  TIP3  H2           -1.5322662885       11.7494810380        6.0137769030  CLST          64          1.0000000000
       193        65  TIP3  OH2          10.8697930592       -4.3566889540       -5.4658899655  CLST          65          1.0000000000
       194        65  TIP3  H1           11.1616068810       -4.0168682314       -6.3332486265  CLST          65          1.0000000000
       195        65  TIP3  H2           10.6893859855       -3.4840259390       -5.1227946293  CLST          65          1.0000000000
       196        66  TIP3  OH2           6.3123910489       -9.8657988257        9.3525189898  CLST          66          1.0000000000
       197        66  TIP3  H1            5.5840646457       -9.4518749756        8.8075667800  CLST          66          1.0000000000
       198        66  TIP3  H2            7.0411588061       -9.2304051813        9.1390454162  CLST          66          1.0000000000
       199        67  TIP3  OH2         -11.5514584250       -7.5090798408       -4.0676953851  CLST          67          1.0000000000
       200        67  TIP3  H1          -10.7762772886       -7.0392167645       -4.4515616936  CLST          67          1.0000000000
       201        67  TIP3  H2          -11.5962681790       -8.3772066719       -4.4710002834  CLST          67          1.0000000000
       202        68  TIP3  OH2          -0.6562564384       -5.3940593972        5.2004388976  CLST          68          1.0000000000
       203        68  TIP3  H1            1.0589206850       -5.4029292700        5.5386894813  CLST          68          1.0000000000
       204        68  TIP3  H2           -0.9141466329       -5.1159248757        6.7503133071  CLST          68          1.0000000000
       205        69  TIP3  OH2           7.9484307847       11.5959106705       -8.7216928676  CLST          69          1.0000000000
       206        69  TIP3  H1            8.4391759507       11.2503538865       -9.5149622012  CLST          69          1.0000000000
       207        69  TIP3  H2            8.7521214160       11.9502620730       -8.2745105394  CLST          69          1.0000000000
       208        70  TIP3  OH2          -1.0726552906      -12.4866618449       -0.4909449857  CLST          70          1.0000000000
       209        70  TIP3  H1           -0.0855424818      -12.5632675448       -0.5096525737  CLST          70          1.0000000000
       210        70  TIP3  H2           -1.1896444250      -12.8130658931        0.4376509712  CLST          70          1.0000000000
       211        71  TIP3  OH2         -10.2757311132       -7.3771784885        2.0145045974  CLST          71          1.0000000000
       212        71  TIP3  H1          -10.8611960052       -6.7321049008        2.4008108947  CLST          71          1.0000000000
       213        71  TIP3  H2          -10.7089019400       -7.8247084482        1.2402071769  CLST          71          1.0000000000
       214        72  TIP3  OH2           0.2032798327        2.0389833310       -1.6540674175  CLST          72          1.0000000000
       215        72  TIP3  H1           -0.3555341568        1.2326897940       -1.7031105035  CLST          72          1.0000000000
       216        72  TIP3  H2            1.0047307369        1.8299955305       -2.1720832689  CLST          72          1.0000000000
       217        73  TIP3  OH2          -9.7514935347       13.1582974250        7.4592752787  CLST          73          1.0000000000
       218        73  TIP3  H1           -9.9660966716       12.4007631609        6.8520901737  CLST          73          1.0000000000
       219        73  TIP3  H2          -10.2408475570       13.8065444297        6.8389629367  CLST          73          1.0000000000
       220        74  TIP3  OH2           6.5652916850       -2.9476544203       -3.7242485703  CLST          74          1.0000000000
       221        74  TIP3  H1            6.5570404580       -3.8389939140       -3.2870390254  CLST          74          1.0000000000
       222        74  TIP3  H2            7.4421475036       -2.6563775088       -3.3235311959  CLST          74          1.0000000000
       223        75  TIP3  OH2           2.8791835636      -13.1544054810       -6.6136785572  CLST          75          1.0000000000
       224        75  TIP3  H1            2.9959384997      -12.2746813688       -6.1029854682  CLST          75          1.0000000000
       225        75  TIP3  H2            2.8565663802      -13.8053064918       -5.8384640181  CLST          75          1.0000000000
       226        76  TIP3  OH2           3.9446905715       -9.7495688774        1.2316433307  CLST          76          1.0000000000
       227        76  TIP3  H1            4.2321765497       -8.8281914959        1.5657728096  CLST          76          1.0000000000
       228        76  TIP3  H2            3.0219493882       -9.9549670363        1.5602343744  CLST          76          1.0000000000
       229        77  TIP3  OH2          10.1509205519       -8.1712271522       -2.5210213556  CLST          77          1.0000000000
       230        77  TIP3  H1            9.4494840124       -8.8869126218       -2.4574958056  CLST          77          1.0000000000
       231        77  TIP3  H2           10.3370313262       -8.3251901901       -3.4773757539  CLST          77          1.0000000000
       232        78  TIP3  OH2          10.5471724665       11.7307609481       -7.8747125611  CLST          78          1.0000000000
       233        78  TIP3  H1           11.1994611706       11.0791238771       -8.2640181480  CLST          78          1.0000000000
       234        78  TIP3  H2           11.1610049902       12.2663977855       -7.4449574595  CLST          78          1.0000000000
       235        79  TIP3  OH2          12.8423717516        0.7284814746        1.1096487318  CLST          79          1.0000000000
       236        79  TIP3  H1           13.5855650534        0.9055018993        1.6412835195  CLST          79          1.0000000000
       237        79  TIP3  H2           12.1416864925        1.3489100092        1.3819328122  CLST          79          1.0000000000
       238        80  TIP3  OH2          -7.5694528108       -0.0798089743        6.6137029764  CLST          80          1.0000000000
       239        80  TIP3  H1           -7.6264772969        0.4695723443        5.8147323876  CLST          80          1.0000000000
       240        80  TIP3  H2           -6.6886111353       -0.5119186837        6.6593750710  CLST          80          1.0000000000
       241        81  TIP3  OH2          -7.5768906902      -10.8384551441        2.2581718347  CLST          81          1.0000000000
       242        81  TIP3  H1           -6.7305810702      -10.9874315568        1.6964723924  CLST          81          1.0000000000
       243        81  TIP3  H2           -7.2415575236      -11.0281692067        3.1878905696  CLST          81          1.0000000000
       244        82  TIP3  OH2          -1.5157418967       -9.8953166732       -6.5330553239  CLST          82          1.0000000000
       245        82  TIP3  H1           -2.4440932142       -9.8108806375       -6.3848162693  CLST          82          1.0000000000
       246        82  TIP3  H2           -1.3545520695      -10.7982531525       -6.1546841045  CLST          82          1.0000000000
       247        83  TIP3  OH2          12.3618256697       -8.7089184210        1.4191309182  CLST          83          1.0000000000
       248        83  TIP3  H1           12.7432495582       -8.1718488335        2.1753406280  CLST          83          1.0000000000
       249        83  TIP3  H2           11.4131364086       -8.4053242194        1.5593967510  CLST          83          1.0000000000
       250        84  TIP3  OH2          -3.6370995134       10.9956516603       -2.1088862618  CLST          84          1.0000000000
       251        84  TIP3  H1           -4.5759253481       10.9550452665       -2.6352297106  CLST          84          1.0000000000
       252        84  TIP3  H2           -3.8383365770       11.8474631437       -1.7403704895  CLST          84          1.0000000000
       253        85  TIP3  OH2           5.6472187529       -2.1728947978        0.1250826277  CLST          85          1.0000000000
       254        85  TIP3  H1            5.8365682546       -1.5233186366        0.8039783350  CLST          85          1.0000000000
       255        85  TIP3  H2            6.3801698686       -2.8042087343        0.3887879795  CLST          85          1.0000000000
       256        86  TIP3  OH2           6.7458325954       -8.3459205749        5.8599622797  CLST          86          1.0000000000
       257        86  TIP3  H1            6.0463631201       -8.6413560836        6.5252697602  CLST          86          1.0000000000
       258        86  TIP3  H2            6.4447438782       -7.3723444849        5.8024276605  CLST          86          1.0000000000
       259        87  TIP3  OH2          -1.4629964368       -3.6678150157       10.6536633869  CLST          87          1.0000000000
       260        87  TIP3  H1           -0.9634074941       -4.0618108398       11.3984105932  CLST          87          1.0000000000
       261        87  TIP3  H2           -2.3753877977       -4.0498648749       10.8004936694  CLST          87          1.0000000000
       262        88  TIP3  OH2          -0.7283917087        4.5454161182       -7.9455614822  CLST          88          1.0000000000
       263        88  TIP3  H1           -1.1132063208        3.6063988493       -7.8340857130  CLST          88          1.0000000000
       264        88  TIP3  H2           -1.6423789817        4.9783188246       -8.1261623666  CLST          88          1.0000000000
       265        89  TIP3  OH2           3.5924665413        0.9077142340      -11.9076745729  CLST          89          1.0000000000
       266        89  TIP3  H1            3.4528170750        1.6953056830      -12.2467612236  CLST          89          1.0000000000
       267        89  TIP3  H2            3.6957960957        0.2912804977      -12.5554831181  CLST          89          1.0000000000
       268        90  TIP3  OH2           5.5885966063       11.2012282683       -5.4520298843  CLST          90          1.0000000000
       269        90  TIP3  H1            5.1779955336       11.9414252351       -4.8568001510  CLST          90          1.0000000000
       270        90  TIP3  H2            5.6812154921       11.9101937691       -6.2471322275  CLST          90          1.0000000000
       271        91  TIP3  OH2           5.9091944655       -7.9338972660      -12.4618733736  CLST          91          1.0000000000
       272        91  TIP3  H1            6.2295474552       -8.8767357384      -12.3394742889  CLST          91          1.0000000000
       273        91  TIP3  H2            6.7749453429       -7.4642021429      -12.2792052998  CLST          91          1.0000000000
       274        92  TIP3  OH2           9.9365756772       11.6848923730        2.5461125222  CLST          92          1.0000000000
       275        92  TIP3  H1           10.2054480378       11.9858612634        3.4712895655  CLST          92          1.0000000000
       276        92  TIP3  H2            9.6072112159       12.4688584613        2.0840613813  CLST          92          1.0000000000
       277        93  TIP3  OH2          -8.8149778036        7.0593258192        2.7043421216  CLST          93          1.0000000000
       278        93  TIP3  H1           -8.5844837102        7.9555303485        3.0594106888  CLST          93          1.0000000000
       279        93  TIP3  H2           -7.9261884957        6.6839311789        2.6922644678  CLST          93          1.0000000000
       280        94  TIP3  OH2         -14.1288416666        6.5274066558        6.5241053617  CLST          94          1.0000000000
       281        94  TIP3  H1          -13.4894540290        7.3154982450        6.3959204935  CLST          94          1.0000000000
       282        94  TIP3  H2          -14.2004598802        6.4038732868        5.5802628388  CLST          94          1.0000000000
       283        95  TIP3  OH2           9.7853311229        5.8197340319       -1.8467615437  CLST          95          1.0000000000
       284        95  TIP3  H1            9.8405046153        6.0622551902       -0.8848525384  CLST          95          1.0000000000
       285        95  TIP3  H2           10.5488663842        5.1753573678       -1.7974369145  CLST          95          1.0000000000
       286        96  TIP3  OH2           9.5203525271      -10.9692071096       11.3175262045  CLST          96          1.0000000000
       287        96  TIP3  H1           10.2420914165      -11.3463148215       10.8561210667  CLST          96          1.0000000000
       288        96  TIP3  H2            8.9157905639      -11.7764819564       11.2355493354  CLST          96          1.0000000000
       289        97  TIP3  OH2          -7.7145098420        6.8632229415        8.5235732750  CLST          97          1.0000000000
       290        97  TIP3  H1           -7.4308584172        5.9717079538        8.9316632846  CLST          97          1.0000000000
       291        97  TIP3  H2           -8.7058037201        6.6039936361        8.4441239869  CLST          97          1.0000000000
       292        98  TIP3  OH2           5.9791485536        0.5665733606       -3.4672309676  CLST          98          1.0000000000
       293        98  TIP3  H1            6.6010354658        0.2345905664       -2.7669972045  CLST          98          1.0000000000
       294        98  TIP3  H2            5.1960877111        0.0869409400       -3.0658311739  CLST          98          1.0000000000
       295        99  TIP3  OH2          -6.8165527708      -11.3572996670        4.7885259465  CLST          99          1.0000000000
       296        99  TIP3  H1           -7.2697343249      -11.3587580562        5.6293729975  CLST          99          1.0000000000
       297        99  TIP3  H2           -5.9547013314      -11.6974397721        5.1142803720  CLST          99          1.0000000000
       298       100  TIP3  OH2           2.5246379738        0.4357937472       -9.2559001938  CLST         100          1.0000000000
       299       100  TIP3  H1            2.8328815805        0.4387879369      -10.1879084911  CLST         100          1.0000000000
       300       100  TIP3  H2            3.0982845830        1.1345232343       -8.9527524156  CLST         100          1.0000000000
       301       101  TIP3  OH2          12.7822225161       -6.8996988502        3.8316592143  CLST         101          1.0000000000
       302       101  TIP3  H1           12.6472179250       -7.4761012682        4.6150525578  CLST         101          1.0000000000
       303       101  TIP3  H2           13.5088319086       -6.4238373400        4.2813898578  CLST         101          1.0000000000
       304       102  TIP3  OH2         -12.0943411632       10.3941635867        1.4095310675  CLST         102          1.0000000000
       305       102  TIP3  H1          -12.7270815376        9.9782308642        2.0627341476  CLST         102          1.0000000000
       306       102  TIP3  H2          -12.5900225153       10.0311788948        0.6364432425  CLST         102          1.0000000000
       307       103  TIP3  OH2          -0.6686516902       -9.2972689764        7.8229690166  CLST         103          1.0000000000
       308       103  TIP3  H1           -0.0149062734       -9.4990807795        8.6213680554  CLST         103          1.0000000000
       309       103  TIP3  H2           -1.2043377354      -10.1686408031        8.0157490790  CLST         103          1.0000000000
       310       104  TIP3  OH2          -4.4630643416      -12.2156937345        9.9967209154  CLST         104          1.0000000000
       311       104  TIP3  H1           -4.9610153801      -11.8661634028       10.7386899762  CLST         104          1.0000000000
       312       104  TIP3  H2           -5.0526987934      -12.8626194535        9.5323734234  CLST         104          1.0000000000
       313       105  TIP3  OH2          -5.1064881257       10.5450132728      -11.5312369493  CLST         105          1.0000000000
       314       105  TIP3  H1           -4.6799003341       10.9987226113      -12.3048936351  CLST         105          1.0000000000
       315       105  TIP3  H2           -5.7452764859        9.8898259377      -11.9430928903  CLST         105          1.0000000000
       316       106  TIP3  OH2           7.4021256522       -8.0991885725       -1.4486536622  CLST         106          1.0000000000
       317       106  TIP3  H1            8.1907704974       -7.6035354174       -1.7073642467  CLST         106          1.0000000000
       318       106  TIP3  H2            7.7000741246       -9.0386225812       -1.4126781825  CLST         106          1.0000000000
       319       107  TIP3  OH2          -8.2713059269       -4.7749880636        5.0143341171  CLST         107          1.0000000000
       320       107  TIP3  H1           -8.7566151794       -4.2324484794        4.3637595126  CLST         107          1.0000000000
       321       107  TIP3  H2           -7.3542496176       -4.4549187977        4.8244825627  CLST         107          1.0000000000
       322       108  TIP3  OH2         -10.4459559167        1.9792060409        9.5525635522  CLST         108          1.0000000000
       323       108  TIP3  H1           -9.5155284137        1.7546424520        9.2787034930  CLST         108          1.0000000000
       324       108  TIP3  H2          -10.7151731805        1.1017848334        9.9487658463  CLST         108          1.0000000000
       325       109  TIP3  OH2           2.3358396317        7.0803037578        8.7777483184  CLST         109          1.0000000000
       326       109  TIP3  H1            1.6466068546        6.6064441417        9.2922145012  CLST         109          1.0000000000
       327       109  TIP3  H2            3.1096801413        6.4697175651        8.9008458116  CLST         109          1.0000000000
       328       110  TIP3  OH2           1.7369403125       12.4017742923      -11.1323733436  CLST         110          1.0000000000
       329       110  TIP3  H1            2.0212129890       13.2979704366      -11.1289021058  CLST         110          1.0000000000
       330       110  TIP3  H2            1.3437895937       12.3365304832      -10.2377479567  CLST         110          1.0000000000
       331       111  TIP3  OH2          11.8057574681      -11.6501712501        9.3986419211  CLST         111          1.0000000000
       332       111  TIP3  H1           12.6833873762      -11.9580947610        9.4802670666  CLST         111          1.0000000000
       333       111  TIP3  H2           11.4840224346      -12.5048141166        9.0004809200  CLST         111          1.0000000000
       334       112  TIP3  OH2           6.5757555363       -0.0945962595        1.6367025373  CLST         112          1.0000000000
       335       112  TIP3  H1            7.2227662099        0.6205291913        1.7038586543  CLST         112          1.0000000000
       336       112  TIP3  H2            6.3279498243       -0.2089172218        2.6073202464  CLST         112          1.0000000000
       337       113  TIP3  OH2         -12.9445736776        1.1424175687        0.0211631577  CLST         113          1.0000000000
       338       113  TIP3  H1          -13.5483223656        0.3310166468       -0.1041836847  CLST         113          1.0000000000
       339       113  TIP3  H2          -12.4745547784        0.9973706628       -0.8483513304  CLST         113          1.0000000000
       340       114  TIP3  OH2         -13.8448166468        3.6078721618       -0.2153746014  CLST         114          1.0000000000
       341       114  TIP3  H1          -13.6552965843        2.6679768655        0.0027173085  CLST         114          1.0000000000
       342       114  TIP3  H2          -13.2592084957        3.6383618512       -1.0356176760  CLST         114          1.0000000000
       343       115  TIP3  OH2          -8.9498764445        0.3479155975      -10.8685254875  CLST         115          1.0000000000
       344       115  TIP3  H1           -8.2415098624        0.8623827668      -11.3736604919  CLST         115          1.0000000000
       345       115  TIP3  H2           -9.4194320197        1.1766802410      -10.6326629602  CLST         115          1.0000000000
       346       116  TIP3  OH2           6.9624939182       -5.7069621321        1.9224357442  CLST         116          1.0000000000
       347       116  TIP3  H1            7.6550825232       -5.9020501631        1.2732592151  CLST         116          1.0000000000
       348       116  TIP3  H2            7.1959463626       -4.7825610782        2.1877639987  CLST         116          1.0000000000
       349       117  TIP3  OH2          -0.8075358768        0.0532456610       12.4036758613  CLST         117          1.0000000000
       350       117  TIP3  H1           -0.4603395632       -0.8123472954       12.7486903766  CLST         117          1.0000000000
       351       117  TIP3  H2           -0.2830261122        0.5776981330       13.0492169642  CLST         117          1.0000000000
       352       118  TIP3  OH2           0.1701763307       -9.6669693084        5.0098398379  CLST         118          1.0000000000
       353       118  TIP3  H1           -0.0578575763       -9.4343444859        5.9494244739  CLST         118          1.0000000000
       354       118  TIP3  H2           -0.0886472054       -8.8518591298        4.5067554270  CLST         118          1.0000000000
       355       119  TIP3  OH2          -9.2554927191      -10.2301781956       -8.7173096184  CLST         119          1.0000000000
       356       119  TIP3  H1           -9.5916347355      -10.7111536420       -9.5362294890  CLST         119          1.0000000000
       357       119  TIP3  H2           -8.8727313944       -9.4139225186       -9.1621791537  CLST         119          1.0000000000
       358       120  TIP3  OH2           9.6000849367       -7.9464480801        1.3594237546  CLST         120          1.0000000000
       359       120  TIP3  H1            8.9041536088       -8.5628787069        1.0714454434  CLST         120          1.0000000000
       360       120  TIP3  H2            9.6111780064       -7.3214887992        0.6091051001  CLST         120          1.0000000000
       361       121  TIP3  OH2          -5.6043846608       -0.3516402489       -8.0455078783  CLST         121          1.0000000000
       362       121  TIP3  H1           -5.5699250063       -0.1730818907       -8.9931201969  CLST         121          1.0000000000
       363       121  TIP3  H2           -4.8185249183       -0.9787055499       -7.9760858141  CLST         121          1.0000000000
       364       122  TIP3  OH2          10.5063456929       12.1060819262        5.0916342086  CLST         122          1.0000000000
       365       122  TIP3  H1            9.6468600105       12.4897108080        5.4002327231  CLST         122          1.0000000000
       366       122  TIP3  H2           11.0122346019       12.2109912624        5.9461983737  CLST         122          1.0000000000
       367       123  TIP3  OH2          -7.4820804699       -5.4997634852      -11.2647540726  CLST         123          1.0000000000
       368       123  TIP3  H1           -6.8107211566       -6.1688633804      -11.3518062729  CLST         123          1.0000000000
       369       123  TIP3  H2           -7.4671386574       -5.4247126244      -10.2740356401  CLST         123          1.0000000000
       370       124  TIP3  OH2          -6.0135597561       -8.5623822218      -10.7098116303  CLST         124          1.0000000000
       371       124  TIP3  H1           -5.2775587050       -8.8344260865      -10.1062377183  CLST         124          1.0000000000
       372       124  TIP3  H2           -6.6526348008       -8.2398265172      -10.0328227038  CLST         124          1.0000000000
       373       125  TIP3  OH2         -13.3553425848        4.1987973910        8.0798560858  CLST         125          1.0000000000
       374       125  TIP3  H1          -13.4261331396        3.4218960727        7.5763155799  CLST         125          1.0000000000
       375       125  TIP3  H2          -13.6781230673        4.9924465112        7.5937013634  CLST         125          1.0000000000
       376       126  TIP3  OH2          -7.1238033698      -10.7724511239      -12.0407374042  CLST         126          1.0000000000
       377       126  TIP3  H1           -6.2616176819      -11.2744055872      -11.9440600268  CLST         126          1.0000000000
       378       126  TIP3  H2           -6.7686575891       -9.9124330971      -11.6887109829  CLST         126          1.0000000000
       379       127  TIP3  OH2          -7.3543967494      -11.4901047803       -7.2311788836  CLST         127          1.0000000000
       380       127  TIP3  H1           -7.8186381469      -12.3173357744       -7.1346677623  CLST         127          1.0000000000
       381       127  TIP3  H2           -7.9783705811      -11.0374553166       -8.0074100608  CLST         127          1.0000000000
       382       128  TIP3  OH2           9.9704372702        0.7817924126       -2.4619835388  CLST         128          1.0000000000
       383       128  TIP3  H1            9.0535396223        0.5381536258       -2.2927642112  CLST         128          1.0000000000
       384       128  TIP3  H2            9.7219534073        1.5592237333       -3.1329578739  CLST         128          1.0000000000
       385       129  TIP3  OH2          -7.8460810116        9.4819170448        1.0119262892  CLST         129          1.0000000000
       386       129  TIP3  H1           -7.0155394165       10.0214138609        1.2156079226  CLST         129          1.0000000000
       387       129  TIP3  H2           -7.2590754851        8.7278461430        0.6355316885  CLST         129          1.0000000000
       388       130  TIP3  OH2          -3.8710351090        3.9805325628        9.8572422991  CLST         130          1.0000000000
       389       130  TIP3  H1           -3.3299461233        4.8430081431        9.7717990342  CLST         130          1.0000000000
       390       130  TIP3  H2           -3.5527495562        3.5141723269       10.6692038522  CLST         130          1.0000000000
       391       131  TIP3  OH2           7.8123906504       -3.7670283640      -10.0625532741  CLST         131          1.0000000000
       392       131  TIP3  H1            7.7370143053       -3.0257045563       -9.3746165937  CLST         131          1.0000000000
       393       131  TIP3  H2            6.8108286744       -3.9779922941       -9.9873828022  CLST         131          1.0000000000
       394       132  TIP3  OH2         -11.5793971726       11.4641029958       12.2730124995  CLST         132          1.0000000000
       395       132  TIP3  H1          -11.2109528998       12.1259409909       11.6772044591  CLST         132          1.0000000000
       396       132  TIP3  H2          -11.9417500442       11.7036583025       12.9871217002  CLST         132          1.0000000000
       397       133  TIP3  OH2          10.3481696445        9.3723818014        8.5971677004  CLST         133          1.0000000000
       398       133  TIP3  H1           10.4002366929        9.0470393195        9.5114636533  CLST         133          1.0000000000
       399       133  TIP3  H2           11.2188313154        9.8571542157        8.5689366720  CLST         133          1.0000000000
       400       134  TIP3  OH2          -7.7932105303        5.8497993759       -5.9448550697  CLST         134          1.0000000000
       401       134  TIP3  H1           -8.5814886692        6.4411522744       -5.7768756514  CLST         134          1.0000000000
       402       134  TIP3  H2           -7.4179209262        5.8145396545       -5.0491349958  CLST         134          1.0000000000
       403       135  TIP3  OH2          10.9202324229      -11.3297235699      -13.1751139680  CLST         135          1.0000000000
       404       135  TIP3  H1           11.0357570016      -10.4619885837      -12.8029874764  CLST         135          1.0000000000
       405       135  TIP3  H2           10.7708651072      -10.9772136675      -14.0619040431  CLST         135          1.0000000000
       406       136  TIP3  OH2          -4.2488289398        1.8553543810       -7.0761492355  CLST         136          1.0000000000
       407       136  TIP3  H1           -4.7332146984        1.0680251080       -7.4329379648  CLST         136          1.0000000000
       408       136  TIP3  H2           -4.9600085095        2.2696309490       -6.5245776778  CLST         136          1.0000000000
       409       137  TIP3  OH2          12.7822173213       10.2794170226        9.0256767243  CLST         137          1.0000000000
       410       137  TIP3  H1           12.7067565471       10.0582249242        9.9940096448  CLST         137          1.0000000000
       411       137  TIP3  H2           13.6277504516        9.8299813632        8.8213542851  CLST         137          1.0000000000
       412       138  TIP3  OH2          -0.8099391982       -9.9259270694        1.4721426375  CLST         138          1.0000000000
       413       138  TIP3  H1           -1.1132657878       -9.6570568856        0.6178281579  CLST         138          1.0000000000
       414       138  TIP3  H2           -0.8916685834       -9.1672932369        2.0718649547  CLST         138          1.0000000000
       415       139  TIP3  OH2          -9.7031067602      -10.6444515146        4.7035762888  CLST         139          1.0000000000
       416       139  TIP3  H1          -10.5556152848      -10.6806296598        4.1842389905  CLST         139          1.0000000000
       417       139  TIP3  H2           -9.1681617019      -11.2217296692        4.1262034718  CLST         139          1.0000000000
       418       140  TIP3  OH2          -7.1550818447        3.3964464908       -0.2384588319  CLST         140          1.0000000000
       419       140  TIP3  H1           -6.3371499394        3.9931436881       -0.0230947246  CLST         140          1.0000000000
       420       140  TIP3  H2           -7.8211707833        4.1085575765       -0.4313478640  CLST         140          1.0000000000
       421       141  TIP3  OH2           2.0056429037       -4.5108209170       -3.5222154196  CLST         141          1.0000000000
       422       141  TIP3  H1            1.4351594754       -3.7693987570       -3.2129232489  CLST         141          1.0000000000
       423       141  TIP3  H2            2.7307136303       -3.9308960281       -3.8665733461  CLST         141          1.0000000000
       424       142  TIP3  OH2         -11.6531856860        0.0002693285        4.7587818370  CLST         142          1.0000000000
       425       142  TIP3  H1          -11.7004097150        0.6904504144        5.4183066477  CLST         142          1.0000000000
       426       142  TIP3  H2          -11.9434543528        0.5232154362        4.0025600346  CLST         142          1.0000000000
       427       143  TIP3  OH2           9.3759882650       -5.8694014601       -8.2800322591  CLST         143          1.0000000000
       428       143  TIP3  H1            9.5467076719       -5.1772468417       -8.9384849621  CLST         143          1.0000000000
       429       143  TIP3  H2           10.0052060320       -6.6057255856       -8.4834469639  CLST         143          1.0000000000
       430       144  TIP3  OH2           3.3577568359       -2.8918857348        8.9271017393  CLST         144          1.0000000000
       431       144  TIP3  H1            2.5724786951       -2.6303358175        9.4771284174  CLST         144          1.0000000000
       432       144  TIP3  H2            3.3164797365       -2.1117793101        8.2836755465  CLST         144          1.0000000000
       433       145  TIP3  OH2         -10.2641604950       13.3508959772        3.2214508457  CLST         145          1.0000000000
       434       145  TIP3  H1          -10.7651592769       13.2324076017        2.3494490332  CLST         145          1.0000000000
       435       145  TIP3  H2          -10.0636516158       12.3920121289        3.2962923986  CLST         145          1.0000000000
       436       146  TIP3  OH2           9.2478909138        2.7767572522       -4.2327097716  CLST         146          1.0000000000
       437       146  TIP3  H1            8.9385501859        3.7554205494       -4.1461980896  CLST         146          1.0000000000
       438       146  TIP3  H2            8.5429932509        2.6557060575       -4.9432701017  CLST         146          1.0000000000
       439       147  TIP3  OH2         -10.9394940062       -0.3077534102       -4.1200420129  CLST         147          1.0000000000
       440       147  TIP3  H1           -9.9990608220       -0.6189012025       -4.2644433539  CLST         147          1.0000000000
       441       147  TIP3  H2          -11.3149722384       -0.5854601645       -4.9943900635  CLST         147          1.0000000000
       442       148  TIP3  OH2          -7.9315352910        1.2794376503        8.8206185802  CLST         148          1.0000000000
       443       148  TIP3  H1           -7.9549397126        1.0262443765        7.8784363476  CLST         148          1.0000000000
       444       148  TIP3  H2           -6.9020365366        1.3337917826        8.8976075678  CLST         148          1.0000000000
       445       149  TIP3  OH2           8.6385201713       -2.8744823428        0.8457165257  CLST         149          1.0000000000
       446       149  TIP3  H1            9.2958672688       -2.0792248534        0.8025635264  CLST         149          1.0000000000
       447       149  TIP3  H2            8.1116732501       -2.6382287367        1.6799850852  CLST         149          1.0000000000
       448       150  TIP3  OH2          -2.2062571528      -11.5370738586        8.4522004697  CLST         150          1.0000000000
       449       150  TIP3  H1           -3.0270215365      -11.8126276751        8.9598038297  CLST         150          1.0000000000
       450       150  TIP3  H2           -1.5343098964      -11.9248305290        9.1182714845  CLST         150          1.0000000000
       451       151  TIP3  OH2          -9.0569496122       -6.5468383655       -4.9387002989  CLST         151          1.0000000000
       452       151  TIP3  H1           -8.1180832126       -6.5666034147       -4.5557125288  CLST         151          1.0000000000
       453       151  TIP3  H2           -8.8358600775       -7.3870821579       -5.4590430000  CLST         151          1.0000000000
       454       152  TIP3  OH2           3.8587303317       -2.0453702077        5.0164947531  CLST         152          1.0000000000
       455       152  TIP3  H1            4.3909704804       -2.7653964016        5.4418060968  CLST         152          1.0000000000
       456       152  TIP3  H2            3.7456969329       -2.5478214760        4.1800924239  CLST         152          1.0000000000
       457       153  TIP3  OH2          -2.6512421318        4.8722154691      -14.2216400188  CLST         153          1.0000000000
       458       153  TIP3  H1           -2.1730430081        5.6531026804      -14.1607253106  CLST         153          1.0000000000
       459       153  TIP3  H2           -2.3186357734        4.5690131828      -13.3261731743  CLST         153          1.0000000000
       460       154  TIP3  OH2           4.4973446765       -6.9684590569        2.1308434001  CLST         154          1.0000000000
       461       154  TIP3  H1            5.3327992594       -6.5958894367        1.7754309632  CLST         154          1.0000000000
       462       154  TIP3  H2            3.8045877928       -6.4979862788        1.6049654417  CLST         154          1.0000000000
       463       155  TIP3  OH2           9.5292069357       -2.8851260166       10.3623912399  CLST         155          1.0000000000
       464       155  TIP3  H1            8.9197431604       -3.1430982084        9.5946434573  CLST         155          1.0000000000
       465       155  TIP3  H2            9.4914027934       -3.7797130904       10.7142987975  CLST         155          1.0000000000
       466       156  TIP3  OH2          -2.1827056139       11.3865536722       11.5460572701  CLST         156          1.0000000000
       467       156  TIP3  H1           -3.0059238660       11.6823934692       11.9298346077  CLST         156          1.0000000000
       468       156  TIP3  H2           -2.5234470112       10.4949814795       11.3708498646  CLST         156          1.0000000000
       469       157  TIP3  OH2           3.9225119280       -0.8430110836        7.4279970975  CLST         157          1.0000000000
       470       157  TIP3  H1            4.8591848364       -0.9148540150        7.6839582236  CLST         157          1.0000000000
       471       157  TIP3  H2            3.8939848009       -1.0162171820        6.4454725478  CLST         157          1.0000000000
       472       158  TIP3  OH2          10.6568313414        9.0354651675       13.2530370464  CLST         158          1.0000000000
       473       158  TIP3  H1            9.7811635018        8.6547856304       13.4449351280  CLST         158          1.0000000000
       474       158  TIP3  H2           10.3526741275        9.5404233262       12.4747726482  CLST         158          1.0000000000
       475       159  TIP3  OH2           0.4406045514      -12.2388985514        4.2370712246  CLST         159          1.0000000000
       476       159  TIP3  H1           -0.1661767787      -12.5174327003        4.9906376886  CLST         159          1.0000000000
       477       159  TIP3  H2            0.2229417480      -11.2769144670        4.4406181116  CLST         159          1.0000000000
       478       160  TIP3  OH2           7.4966297889       -3.5611073167        8.5410241269  CLST         160          1.0000000000
       479       160  TIP3  H1            7.2935281706       -3.6488900578        7.5704046547  CLST         160          1.0000000000
       480       160  TIP3  H2            6.9946264277       -2.6840149999        8.6131106231  CLST         160          1.0000000000
       481       161  TIP3  OH2          -2.3787256107       -2.4060707963        7.8023181723  CLST         161          1.0000000000
       482       161  TIP3  H1           -1.8302246738       -1.9908151433        8.5181702371  CLST         161          1.0000000000
       483       161  TIP3  H2           -3.2508130835       -2.2143781457        8.2436287894  CLST         161          1.0000000000
       484       162  TIP3  OH2          -0.8018264019        3.5905329410      -10.6386547386  CLST         162          1.0000000000
       485       162  TIP3  H1           -0.4186989475        4.3374662215      -11.1301344468  CLST         162          1.0000000000
       486       162  TIP3  H2           -0.8193437938        3.8469384039       -9.7177775410  CLST         162          1.0000000000
       487       163  TIP3  OH2         -10.1411767960        9.1036441256       11.2594887542  CLST         163          1.0000000000
       488       163  TIP3  H1          -10.7858506928        8.3621982091       11.3580102399  CLST         163          1.0000000000
       489       163  TIP3  H2          -10.4117486570        9.6787056699       11.9995088731  CLST         163          1.0000000000
       490       164  TIP3  OH2           3.9731153172      -10.4079266623       13.1180103911  CLST         164          1.0000000000
       491       164  TIP3  H1            4.5378125653       -9.5873109279       13.1239263341  CLST         164          1.0000000000
       492       164  TIP3  H2            4.7279877429      -10.9279469272       12.8078317241  CLST         164          1.0000000000
       493       165  TIP3  OH2         -12.2147500947       -5.5471188263        3.6445739098  CLST         165          1.0000000000
       494       165  TIP3  H1          -11.9638628390       -5.5625177481        4.6544796537  CLST         165          1.0000000000
       495       165  TIP3  H2          -13.1151384328       -5.7120762491        3.7819590924  CLST         165          1.0000000000
       496       166  TIP3  OH2          -1.5703598556       -6.3386063150      -10.4872560751  CLST         166          1.0000000000
       497       166  TIP3  H1           -0.6110998209       -6.6116688146      -10.6753297386  CLST         166          1.0000000000
       498       166  TIP3  H2           -1.9596197844       -7.1337782189      -10.2104508820  CLST         166          1.0000000000
       499       167  TIP3  OH2           8.1031176949       10.7223423633       -0.8769064101  CLST         167          1.0000000000
       500       167  TIP3  H1            8.6915061796       10.1923777057       -0.2814424021  CLST         167          1.0000000000
       501       167  TIP3  H2            8.5873913628       10.5463935303       -1.7217177583  CLST         167          1.0000000000
       502       168  TIP3  OH2          -0.7663380786      -13.3989544509        2.1032699561  CLST         168          1.0000000000
       503       168  TIP3  H1           -0.3523112722      -12.9089121638        2.9109779744  CLST         168          1.0000000000
       504       168  TIP3  H2            0.0533727596      -13.8907051465        1.8353402084  CLST         168          1.0000000000
       505       169  TIP3  OH2           5.0205634954        3.9285138293        3.3619190275  CLST         169          1.0000000000
       506       169  TIP3  H1            4.0103704812        3.7612952298        3.3192962651  CLST         169          1.0000000000
       507       169  TIP3  H2            5.0155356486        4.5991623049        2.6302749768  CLST         169          1.0000000000
       508       170  TIP3  OH2          -1.1771418042        4.2203566639        1.4456977093  CLST         170          1.0000000000
       509       170  TIP3  H1           -1.8522767698        4.9105951511        1.3048940399  CLST         170          1.0000000000
       510       170  TIP3  H2           -1.6251110983        3.3469015289        1.3508912287  CLST         170          1.0000000000
       511       171  TIP3  OH2          -3.1024452387        1.3197365402        7.3206119778  CLST         171          1.0000000000
       512       171  TIP3  H1           -2.7703500410        0.6634702213        6.6178249451  CLST         171          1.0000000000
       513       171  TIP3  H2           -2.1877896932        1.6665329340        7.5095193752  CLST         171          1.0000000000
       514       172  TIP3  OH2          -6.3506469482      -13.0987169207        8.1082280582  CLST         172          1.0000000000
       515       172  TIP3  H1           -6.7555149767      -13.7816141289        7.7579185037  CLST         172          1.0000000000
       516       172  TIP3  H2           -5.6722483836      -12.7487011416        7.4222876075  CLST         172          1.0000000000
       517       173  TIP3  OH2          10.2029673507      -12.6648041498        1.7736255654  CLST         173          1.0000000000
       518       173  TIP3  H1           10.5213590470      -12.5226114182        0.7932726280  CLST         173          1.0000000000
       519       173  TIP3  H2            9.3292581428      -12.6670330144        1.6616153861  CLST         173          1.0000000000
       520       174  TIP3  OH2           0.0417799754        5.6233726813        9.6573854523  CLST         174          1.0000000000
       521       174  TIP3  H1            0.1159585401        4.7192728266       10.1069344367  CLST         174          1.0000000000
       522       174  TIP3  H2           -0.8409940245        5.9159806191        9.9571431176  CLST         174          1.0000000000
       523       175  TIP3  OH2          -5.8052410111       10.5282017011       -3.6258032963  CLST         175          1.0000000000
       524       175  TIP3  H1           -5.4298578541       10.1338122578       -4.4688458279  CLST         175          1.0000000000
       525       175  TIP3  H2           -6.6773670271       10.0927045097       -3.8425948718  CLST         175          1.0000000000
       526       176  TIP3  OH2           6.7609063306        9.2115932262       -7.7178893736  CLST         176          1.0000000000
       527       176  TIP3  H1            7.1692412044       10.0608776607       -8.0703648495  CLST         176          1.0000000000
       528       176  TIP3  H2            6.0184384105        9.7036109663       -7.2533059792  CLST         176          1.0000000000
       529       177  TIP3  OH2          -3.7373443614      -11.5959822575       -1.6171988985  CLST         177          1.0000000000
       530       177  TIP3  H1           -3.0927400529      -12.2015351091       -1.1467307606  CLST         177          1.0000000000
       531       177  TIP3  H2           -4.3777625545      -11.4584049758       -0.9174640384  CLST         177          1.0000000000
       532       178  TIP3  OH2          10.7168716177       -8.9104528183      -11.3973652849  CLST         178          1.0000000000
       533       178  TIP3  H1           10.9882178029       -8.7301527470      -10.4813102915  CLST         178          1.0000000000
       534       178  TIP3  H2           10.7653063441       -7.9643411237      -11.6838208790  CLST         178          1.0000000000
       535       179  TIP3  OH2           6.5273255416       -0.7860157963        8.3953273311  CLST         179          1.0000000000
       536       179  TIP3  H1            6.2848139859       -0.2094733698        9.1713071344  CLST         179          1.0000000000
       537       179  TIP3  H2            7.1146357073       -0.1923806246        7.9123054528  CLST         179          1.0000000000
       538       180  TIP3  OH2          -7.5340047177        8.2073989099        6.0964850720  CLST         180          1.0000000000
       539       180  TIP3  H1           -7.3884677580        7.6983252930        6.9419110428  CLST         180          1.0000000000
       540       180  TIP3  H2           -8.5007423947        8.1794985663        6.1804956571  CLST         180          1.0000000000
       541       181  TIP3  OH2           5.9557964174      -12.8492129470       -0.3795008967  CLST         181          1.0000000000
       542       181  TIP3  H1            6.6354479499      -12.8546870873       -1.0566740611  CLST         181          1.0000000000
       543       181  TIP3  H2            6.3756417340      -12.8973706007        0.5000626592  CLST         181          1.0000000000
       544       182  TIP3  OH2          -1.7395822355       10.3494897966      -10.4854045441  CLST         182          1.0000000000
       545       182  TIP3  H1           -0.9806639297       10.7104249969       -9.9915037076  CLST         182          1.0000000000
       546       182  TIP3  H2           -2.4800950203       10.4430195645       -9.8313183179  CLST         182          1.0000000000
       547       183  TIP3  OH2          -5.1975446424        3.6784762310      -12.4682771882  CLST         183          1.0000000000
       548       183  TIP3  H1           -4.9661517998        3.5889194908      -11.4681614443  CLST         183          1.0000000000
       549       183  TIP3  H2           -6.1312477000        3.3021430490      -12.3457095727  CLST         183          1.0000000000
       550       184  TIP3  OH2           3.0586309895        8.1150865833       -2.4841575348  CLST         184          1.0000000000
       551       184  TIP3  H1            3.1543363715        7.5199392648       -1.7448387256  CLST         184          1.0000000000
       552       184  TIP3  H2            2.1171247577        7.8623942301       -2.7570953612  CLST         184          1.0000000000
       553       185  TIP3  OH2           7.6888247053        4.7147956186       12.1564006087  CLST         185          1.0000000000
       554       185  TIP3  H1            7.8145853369        3.7224847549       12.2216339467  CLST         185          1.0000000000
       555       185  TIP3  H2            7.2356345913        4.9065141990       13.0247632492  CLST         185          1.0000000000
       556       186  TIP3  OH2           3.7538989164        5.9483490302       -5.1775897819  CLST         186          1.0000000000
       557       186  TIP3  H1            4.1116085018        6.8972628793       -5.2235570521  CLST         186          1.0000000000
       558       186  TIP3  H2            3.8202584935        5.6778427693       -6.1158578504  CLST         186          1.0000000000
       559       187  TIP3  OH2           4.0848141471        1.6354862259       -5.6424603825  CLST         187          1.0000000000
       560       187  TIP3  H1            4.3574384185        1.5822280214       -4.6879116313  CLST         187          1.0000000000
       561       187  TIP3  H2            3.6232248914        0.7261694423       -5.6365422699  CLST         187          1.0000000000
       562       188  TIP3  OH2          -4.5476227186       -1.5362364266        4.8612778474  CLST         188          1.0000000000
       563       188  TIP3  H1           -4.7394026639       -0.6836444960        4.4087311263  CLST         188          1.0000000000
       564       188  TIP3  H2           -4.8548519329       -1.3134175422        5.7795758574  CLST         188          1.0000000000
       565       189  TIP3  OH2          -5.1468561158        3.4516702839      -14.9763478434  CLST         189          1.0000000000
       566       189  TIP3  H1           -4.9800576887        3.5938092178      -14.0064282830  CLST         189          1.0000000000
       567       189  TIP3  H2           -4.2472962734        3.7505244414      -15.2135715207  CLST         189          1.0000000000
       568       190  TIP3  OH2           7.3205498988       -5.7901896861        5.3365875685  CLST         190          1.0000000000
       569       190  TIP3  H1            7.2017142770       -5.9352853319        4.3697306243  CLST         190          1.0000000000
       570       190  TIP3  H2            8.2849566801       -5.8837735488        5.3426296526  CLST         190          1.0000000000
       571       191  TIP3  OH2         -10.9050919783       -4.8696258092       -6.5385874444  CLST         191          1.0000000000
       572       191  TIP3  H1          -10.2178865989       -4.5667147622       -7.1449882540  CLST         191          1.0000000000
       573       191  TIP3  H2          -10.5385983073       -5.7266384906       -6.2890897114  CLST         191          1.0000000000
       574       192  TIP3  OH2           8.8084194786       14.2494061659        1.8517409748  CLST         192          1.0000000000
       575       192  TIP3  H1            8.4111721364       14.3964901967        2.7277346419  CLST         192          1.0000000000
       576       192  TIP3  H2            9.2983277692       15.0888537472        1.7600706306  CLST         192          1.0000000000
       577       193  TIP3  OH2           6.1235883769      -12.0795094896       11.8482616151  CLST         193          1.0000000000
       578       193  TIP3  H1            6.5833691090      -12.9341591639       11.7652304684  CLST         193          1.0000000000
       579       193  TIP3  H2            6.3098587941      -11.4686767432       11.1262086803  CLST         193          1.0000000000
       580       194  TIP3  OH2          -6.3209743167       -4.3400165699       11.1715985370  CLST         194          1.0000000000
       581       194  TIP3  H1           -6.8055625668       -4.0700667833       11.9313784459  CLST         194          1.0000000000
       582       194  TIP3  H2           -6.9977203349       -4.1243061536       10.4537811376  CLST         194          1.0000000000
       583       195  TIP3  OH2          -7.4545097498        9.0544650293       10.2970830771  CLST         195          1.0000000000
       584       195  TIP3  H1           -8.3220236088        8.8672071882       10.7926070694  CLST         195          1.0000000000
       585       195  TIP3  H2           -7.6963111273        8.4961216193        9.5158509008  CLST         195          1.0000000000
       586       196  TIP3  OH2           6.0631861392      -12.2693530585       -5.8900461871  CLST         196          1.0000000000
       587       196  TIP3  H1            6.3153823507      -11.5622128420       -6.5336975720  CLST         196          1.0000000000
       588       196  TIP3  H2            5.1683763491      -11.9216281967       -5.6708082300  CLST         196          1.0000000000
       589       197  TIP3  OH2           2.0828118034       -9.1258498052       -2.7325872855  CLST         197          1.0000000000
       590       197  TIP3  H1            1.7272556654       -8.2038702323       -2.5945449868  CLST         197          1.0000000000
       591       197  TIP3  H2            2.9904800062       -8.9399924585       -2.4669254758  CLST         197          1.0000000000
       592       198  TIP3  OH2          10.8922372387        1.8515683228        4.7832919405  CLST         198          1.0000000000
       593       198  TIP3  H1           10.0070191278        1.8391133884        4.4230521552  CLST         198          1.0000000000
       594       198  TIP3  H2           11.0423704372        2.7462052925        4.4020812699  CLST         198          1.0000000000
       595       199  TIP3  OH2           0.0353235811        8.2985605821       -5.9122085031  CLST         199          1.0000000000
       596       199  TIP3  H1           -0.4621613856        8.7114322054       -5.2551959453  CLST         199          1.0000000000
       597       199  TIP3  H2           -0.2423075641        7.3369259833       -5.8672896797  CLST         199          1.0000000000
       598       200  TIP3  OH2          -7.6718603111       11.8464710271       11.0143903368  CLST         200          1.0000000000
       599       200  TIP3  H1           -7.6694157423       10.8527611480       10.9296525558  CLST         200          1.0000000000
       600       200  TIP3  H2           -7.3596077533       12.0921878988       10.0834403317  CLST         200          1.0000000000
       601       201  TIP3  OH2           4.5132506797        0.9725677768       -0.0800661806  CLST         201          1.0000000000
       602       201  TIP3  H1            4.4500642645        1.8318122128        0.3943134715  CLST         201          1.0000000000
       603       201  TIP3  H2            5.2834547093        0.6997620104        0.4720620157  CLST         201          1.0000000000
       604       202  TIP3  OH2          -1.9882996475       -4.2291638525      -12.4022693856  CLST         202          1.0000000000
       605       202  TIP3  H1           -1.7930431908       -4.9294390970      -11.6917389965  CLST         202          1.0000000000
       606       202  TIP3  H2           -2.7246123600       -3.7295477915      -11.9579634979  CLST         202          1.0000000000
       607       203  TIP3  OH2          -0.7033741537       11.2654489809        7.5133203817  CLST         203          1.0000000000
       608       203  TIP3  H1            0.0372114804       10.7663510698        7.9366950345  CLST         203          1.0000000000
       609       203  TIP3  H2           -1.3864869173       10.8319171051        8.1004141883  CLST         203          1.0000000000
       610       204  TIP3  OH2          -5.4681150508        6.3710415479      -13.1571927904  CLST         204          1.0000000000
       611       204  TIP3  H1           -4.6321805420        6.2297431226      -13.6577518771  CLST         204          1.0000000000
       612       204  TIP3  H2           -5.6830478077        5.3755875773      -13.1444058435  CLST         204          1.0000000000
       613       205  TIP3  OH2          -2.3445475063        7.2089715329       -2.4848291517  CLST         205          1.0000000000
       614       205  TIP3  H1           -2.4049956664        7.7615193968       -3.3550289630  CLST         205          1.0000000000
       615       205  TIP3  H2           -1.3590556187        7.2983429102       -2.4492977919  CLST         205          1.0000000000
       616       206  TIP3  OH2           4.9137948699      -11.1620262519       -9.8206871998  CLST         206          1.0000000000
       617       206  TIP3  H1            5.0444213957      -12.0355188521       -9.3704366777  CLST         206          1.0000000000
       618       206  TIP3  H2            5.5515976923      -10.6032092963       -9.3070932804  CLST         206          1.0000000000
       619       207  TIP3  OH2          12.8856694933       10.1119700741       12.0772718113  CLST         207          1.0000000000
       620       207  TIP3  H1           12.3676920335        9.7794528704       12.8047661982  CLST         207          1.0000000000
       621       207  TIP3  H2           13.4924658580       10.6122910315       12.3667437292  CLST         207          1.0000000000
       622       208  TIP3  OH2         -11.5738098311        2.2725571604        6.8101815006  CLST         208          1.0000000000
       623       208  TIP3  H1          -11.1139805003        2.0727758565        7.6437249534  CLST         208          1.0000000000
       624       208  TIP3  H2          -11.1390604692        3.1725599519        6.5649966402  CLST         208          1.0000000000
       625       209  TIP3  OH2           4.4618536800       -9.2107949318        7.3711828692  CLST         209          1.0000000000
       626       209  TIP3  H1            4.1172205379       -9.6717829941        6.5585147821  CLST         209          1.0000000000
       627       209  TIP3  H2            3.5420298853       -8.7521863047        7.5038824237  CLST         209          1.0000000000
       628       210  TIP3  OH2          12.1673199132      -11.3591958253        5.3877890621  CLST         210          1.0000000000
       629       210  TIP3  H1           12.4767062727      -11.1922377389        4.4392456699  CLST         210          1.0000000000
       630       210  TIP3  H2           12.2210569566      -10.4828498381        5.7951501340  CLST         210          1.0000000000
       631       211  TIP3  OH2          -0.4540345460       -9.2342897017       12.2808013014  CLST         211          1.0000000000
       632       211  TIP3  H1            0.1180751336       -9.6924820642       12.9544608267  CLST         211          1.0000000000
       633       211  TIP3  H2           -1.0477362727      -10.0233378484       12.1519196270  CLST         211          1.0000000000
       634       212  TIP3  OH2         -12.2511671460        3.4314269403       -2.4066397950  CLST         212          1.0000000000
       635       212  TIP3  H1          -11.7658830382        4.0591266368       -2.9864096526  CLST         212          1.0000000000
       636       212  TIP3  H2          -11.6603317073        2.6361517338       -2.4337817168  CLST         212          1.0000000000
       637       213  TIP3  OH2          -9.4831378135      -11.3598514771      -11.6447956343  CLST         213          1.0000000000
       638       213  TIP3  H1           -9.8352006645      -11.3591967840      -12.4435438156  CLST         213          1.0000000000
       639       213  TIP3  H2           -8.4911534355      -11.0924465143      -11.7580372177  CLST         213          1.0000000000
       640       214  TIP3  OH2          -6.3919838396        2.3256782215       -5.4470090738  CLST         214          1.0000000000
       641       214  TIP3  H1           -6.3396367473        1.4832882620       -4.9052706706  CLST         214          1.0000000000
       642       214  TIP3  H2           -6.9879850176        2.7682352432       -4.7106364489  CLST         214          1.0000000000
       643       215  TIP3  OH2         -11.7949135853      -12.8408824416        5.6516434794  CLST         215          1.0000000000
       644       215  TIP3  H1          -10.8401216533      -12.9432757502        5.6436872745  CLST         215          1.0000000000
       645       215  TIP3  H2          -11.8610270011      -12.7831722274        4.6547416176  CLST         215          1.0000000000
       646       216  TIP3  OH2         -11.9272415393       -2.3076406044        8.0764390503  CLST         216          1.0000000000
       647       216  TIP3  H1          -10.9432574667       -2.1783629881        8.1717190429  CLST         216          1.0000000000
       648       216  TIP3  H2          -12.0310957648       -3.0867653796        8.6756729778  CLST         216          1.0000000000
       649       217  TIP3  OH2           7.5747847850       -0.2709204087       -1.5000772272  CLST         217          1.0000000000
       650       217  TIP3  H1            8.1673996864       -1.0397217586       -1.6157334669  CLST         217          1.0000000000
       651       217  TIP3  H2            7.0270004584       -0.5965133999       -0.7592358869  CLST         217          1.0000000000
       652       218  TIP3  OH2          -8.2765790104       -3.9563038800        9.2043352727  CLST         218          1.0000000000
       653       218  TIP3  H1           -8.4186968193       -2.9964149238        8.9151222226  CLST         218          1.0000000000
       654       218  TIP3  H2           -7.7734406756       -4.3937576027        8.4723482812  CLST         218          1.0000000000
       655       219  TIP3  OH2         -12.5232810197       -4.5956248393       -2.7228398901  CLST         219          1.0000000000
       656       219  TIP3  H1          -12.5537317841       -3.6588116334       -2.4407648721  CLST         219          1.0000000000
       657       219  TIP3  H2          -12.9346425040       -4.5460055579       -3.6009709894  CLST         219          1.0000000000
       658       220  TIP3  OH2           6.3988348643        6.8742567621        7.7235557944  CLST         220          1.0000000000
       659       220  TIP3  H1            6.0114230795        6.4056791609        6.9062761876  CLST         220          1.0000000000
       660       220  TIP3  H2            5.5668753055        6.6913553282        8.2511159780  CLST         220          1.0000000000
       661       221  TIP3  OH2         -10.3831806508       -7.0312056913       10.1912159688  CLST         221          1.0000000000
       662       221  TIP3  H1           -9.5734216278       -6.9780048492       10.6391974131  CLST         221          1.0000000000
       663       221  TIP3  H2          -10.3655882121       -7.9017455127        9.7751718005  CLST         221          1.0000000000
       664       222  TIP3  OH2          -6.9049906617       -0.7642932030      -13.6744461911  CLST         222          1.0000000000
       665       222  TIP3  H1           -6.3498173875       -1.6048861728      -13.5122195708  CLST         222          1.0000000000
       666       222  TIP3  H2           -7.6649075282       -0.9508833731      -13.1206501032  CLST         222          1.0000000000
       667       223  TIP3  OH2           2.6777482443      -10.7431775327      -11.5290823330  CLST         223          1.0000000000
       668       223  TIP3  H1            2.1854061529      -11.6758597023      -11.3935602202  CLST         223          1.0000000000
       669       223  TIP3  H2            3.5512844647      -10.9394766921      -11.0924680168  CLST         223          1.0000000000
       670       224  TIP3  OH2           7.5724848221        4.7207617474        0.5736812868  CLST         224          1.0000000000
       671       224  TIP3  H1            8.5215898223        4.7614848781        0.7950625374  CLST         224          1.0000000000
       672       224  TIP3  H2            7.5166081141        4.4221166293       -0.3660128698  CLST         224          1.0000000000
       673       225  TIP3  OH2          -0.3040518620        4.5912815141       -1.2086684343  CLST         225          1.0000000000
       674       225  TIP3  H1           -0.8618535082        4.5325441671       -0.3997930396  CLST         225          1.0000000000
       675       225  TIP3  H2           -0.1475018463        3.6069781368       -1.3432139803  CLST         225          1.0000000000
       676       226  TIP3  OH2          -5.7907185626       -4.2494414378        7.5273720307  CLST         226          1.0000000000
       677       226  TIP3  H1           -5.7492492288       -5.2377576066        7.6266209756  CLST         226          1.0000000000
       678       226  TIP3  H2           -6.0577525066       -4.1877312970        6.5864343990  CLST         226          1.0000000000
       679       227  TIP3  OH2          11.6405650893       -4.1375984849       -9.8961326516  CLST         227          1.0000000000
       680       227  TIP3  H1           11.9545368445       -3.7427955976       -9.0276906224  CLST         227          1.0000000000
       681       227  TIP3  H2           11.1539255179       -3.3221651864      -10.1981996474  CLST         227          1.0000000000
       682       228  TIP3  OH2           3.4133115161       12.4481073184        3.2211510949  CLST         228          1.0000000000
       683       228  TIP3  H1            2.7356510523       11.9098308799        3.8067720298  CLST         228          1.0000000000
       684       228  TIP3  H2            2.8432479661       12.3508878942        2.6025093864  CLST         228          1.0000000000
       685       229  TIP3  OH2         -11.4847490732      -13.0937094064        2.9420754792  CLST         229          1.0000000000
       686       229  TIP3  H1          -11.6613670047      -13.7962629919        2.2460864688  CLST         229          1.0000000000
       687       229  TIP3  H2          -10.6123318663      -11.8290790038        2.0282348739  CLST         229          1.0000000000
       688       230  TIP3  OH2          12.1761643253        6.3201839425       -3.3368321281  CLST         230          1.0000000000
       689       230  TIP3  H1           13.1122271557        5.9893034860       -3.4781793934  CLST         230          1.0000000000
       690       230  TIP3  H2           11.8339430302        5.4283167774       -3.6757990894  CLST         230          1.0000000000
       691       231  TIP3  OH2           7.1097852199        3.3502778365        4.9738192808  CLST         231          1.0000000000
       692       231  TIP3  H1            7.3108859843        4.2817145382        5.0661274213  CLST         231          1.0000000000
       693       231  TIP3  H2            6.2445139121        3.3487532157        4.5161691323  CLST         231          1.0000000000
       694       232  TIP3  OH2         -10.4149634488        9.0552387887        7.3767017887  CLST         232          1.0000000000
       695       232  TIP3  H1          -10.9797605858        9.5663001018        8.0295271006  CLST         232          1.0000000000
       696       232  TIP3  H2          -10.3499388189        8.1584284317        7.8328485381  CLST         232          1.0000000000
       697       233  TIP3  OH2           3.5374134335       -5.3829056322        8.1105527822  CLST         233          1.0000000000
       698       233  TIP3  H1            4.3587285339       -5.5892491536        8.6357086978  CLST         233          1.0000000000
       699       233  TIP3  H2            3.4688086275       -4.4556511875        8.5259056998  CLST         233          1.0000000000
       700       234  TIP3  OH2          -3.5962914680        8.6800985333       -0.4596786726  CLST         234          1.0000000000
       701       234  TIP3  H1           -3.2840000750        8.1747324953       -1.2935127669  CLST         234          1.0000000000
       702       234  TIP3  H2           -3.5947788041        9.5576811588       -0.9685454170  CLST         234          1.0000000000
       703       235  TIP3  OH2          -1.9381871033       -4.0325410153       -8.9777885604  CLST         235          1.0000000000
       704       235  TIP3  H1           -1.8252806089       -4.9743672633       -9.2838916247  CLST         235          1.0000000000
       705       235  TIP3  H2           -0.9965363681       -3.7012634222       -9.1859422691  CLST         235          1.0000000000
       706       236  TIP3  OH2          -0.3708086848      -13.5722802774       -3.1012726967  CLST         236          1.0000000000
       707       236  TIP3  H1            0.2859637324      -12.8402976287       -3.0589898175  CLST         236          1.0000000000
       708       236  TIP3  H2           -0.7320678706      -13.3606935306       -2.1903852122  CLST         236          1.0000000000
       709       237  TIP3  OH2          -3.5769904604       -5.1325793171       10.9251038256  CLST         237          1.0000000000
       710       237  TIP3  H1           -4.5841078007       -5.0903961835       10.9227109406  CLST         237          1.0000000000
       711       237  TIP3  H2           -3.4084436580       -5.9322427104       10.4118124741  CLST         237          1.0000000000
       712       238  TIP3  OH2           0.5385915745        4.6477779040        7.1759666066  CLST         238          1.0000000000
       713       238  TIP3  H1           -0.0479248668        5.1936541316        6.5682020665  CLST         238          1.0000000000
       714       238  TIP3  H2            0.3075686428        4.9242774876        8.1074594157  CLST         238          1.0000000000
       715       239  TIP3  OH2         -13.9462688648        5.9787769763        3.5612601741  CLST         239          1.0000000000
       716       239  TIP3  H1          -13.9319461494        6.5538319326        2.7968095036  CLST         239          1.0000000000
       717       239  TIP3  H2          -13.4316195622        5.2365859496        3.2320447485  CLST         239          1.0000000000
       718       240  TIP3  OH2         -14.1093211783        8.9637393086       -0.2969865094  CLST         240          1.0000000000
       719       240  TIP3  H1          -14.7593838822        9.1256567746        0.3737228462  CLST         240          1.0000000000
       720       240  TIP3  H2          -13.8736752580        7.9970721798       -0.0174020153  CLST         240          1.0000000000
       721       241  TIP3  OH2          -7.6067649461       -7.7497807539       -8.6209119227  CLST         241          1.0000000000
       722       241  TIP3  H1           -7.8557604352       -8.0723523188       -7.7219435336  CLST         241          1.0000000000
       723       241  TIP3  H2           -7.3829084700       -6.8092712361       -8.4001165362  CLST         241          1.0000000000
       724       242  TIP3  OH2           6.1161576214       -5.6403627609        9.5282748709  CLST         242          1.0000000000
       725       242  TIP3  H1            6.7522759408       -4.8922851167        9.3135043654  CLST         242          1.0000000000
       726       242  TIP3  H2            6.7951864312       -6.3656111582        9.3309491185  CLST         242          1.0000000000
       727       243  TIP3  OH2          -6.6632807846       -7.2370441863       -4.2727852620  CLST         243          1.0000000000
       728       243  TIP3  H1           -6.2090114040       -8.0525319773       -4.5851210606  CLST         243          1.0000000000
       729       243  TIP3  H2           -6.7140265745       -7.5244942007       -3.3222594707  CLST         243          1.0000000000
       730       244  TIP3  OH2           4.8902452306        5.8441947350        5.5493976706  CLST         244          1.0000000000
       731       244  TIP3  H1            5.1381746584        5.4938045939        4.6683303514  CLST         244          1.0000000000
       732       244  TIP3  H2            4.1131324688        5.2503675341        5.7362257309  CLST         244          1.0000000000
       733       245  TIP3  OH2          -7.1007126485        3.7431536386       -7.6267691641  CLST         245          1.0000000000
       734       245  TIP3  H1           -6.9739877767        3.1940891343       -6.7959396998  CLST         245          1.0000000000
       735       245  TIP3  H2           -7.4049903882        4.5682463760       -7.1655739034  CLST         245          1.0000000000
       736       246  TIP3  OH2           2.0988037747       -6.5602925074       -1.8561370588  CLST         246          1.0000000000
       737       246  TIP3  H1            2.0420852505       -5.7910694555       -2.5338260225  CLST         246          1.0000000000
       738       246  TIP3  H2            3.0225262617       -6.7666803685       -1.9020172754  CLST         246          1.0000000000
       739       247  TIP3  OH2           6.1213343751        7.9710754337        0.5491486156  CLST         247          1.0000000000
       740       247  TIP3  H1            6.3993980218        7.6052417153       -0.3257853101  CLST         247          1.0000000000
       741       247  TIP3  H2            6.0248342822        8.9529094977        0.3503923732  CLST         247          1.0000000000
       742       248  TIP3  OH2          -2.5380510933        8.3135291180      -11.9572896348  CLST         248          1.0000000000
       743       248  TIP3  H1           -2.5059904705        8.7623474929      -12.7731536423  CLST         248          1.0000000000
       744       248  TIP3  H2           -2.1550980850        9.0486405107      -11.3395180504  CLST         248          1.0000000000
       745       249  TIP3  OH2           8.9098266305        4.7086312304       -7.8434016216  CLST         249          1.0000000000
       746       249  TIP3  H1            8.4321702632        5.3959471011       -7.3777297892  CLST         249          1.0000000000
       747       249  TIP3  H2            8.5836362938        3.9194293607       -7.3252756308  CLST         249          1.0000000000
       748       250  TIP3  OH2          -7.4867187197        9.5823036118       -5.3050739390  CLST         250          1.0000000000
       749       250  TIP3  H1           -7.9024001113        8.7921473073       -5.6327586124  CLST         250          1.0000000000
       750       250  TIP3  H2           -7.8210005948       10.2915310626       -5.9003731674  CLST         250          1.0000000000
       751       251  TIP3  OH2          -3.6973127988       12.3561680232        3.0849461283  CLST         251          1.0000000000
       752       251  TIP3  H1           -3.1670920272       12.9031581012        2.5420016923  CLST         251          1.0000000000
       753       251  TIP3  H2           -3.0726250886       12.1868251296        3.8641007839  CLST         251          1.0000000000
       754       252  TIP3  OH2           5.8807788269        5.3366198256       14.5537331334  CLST         252          1.0000000000
       755       252  TIP3  H1            5.7601012441        6.2801482277       14.3539494437  CLST         252          1.0000000000
       756       252  TIP3  H2            5.6592257784        5.3595759763       15.4595034695  CLST         252          1.0000000000
       757       253  TIP3  OH2           5.9993697719       13.9874622614        3.2382948960  CLST         253          1.0000000000
       758       253  TIP3  H1            5.0570892491       13.9970636131        3.3586762567  CLST         253          1.0000000000
       759       253  TIP3  H2            6.0160126522       13.6268328325        2.3353037596  CLST         253          1.0000000000
       760       254  TIP3  OH2          -4.0633941259        8.0572585059        2.8913959220  CLST         254          1.0000000000
       761       254  TIP3  H1           -4.3489634731        8.9889716385        2.6914100083  CLST         254          1.0000000000
       762       254  TIP3  H2           -4.9742708266        7.6788608807        2.9507503906  CLST         254          1.0000000000
       763       255  TIP3  OH2          -6.9496211586       10.3612973347        4.2669726976  CLST         255          1.0000000000
       764       255  TIP3  H1           -7.8473853101       10.7174473671        4.4126270870  CLST         255          1.0000000000
       765       255  TIP3  H2           -7.0205987236        9.6755729417        4.9829419515  CLST         255          1.0000000000
       766       256  TIP3  OH2          11.5623925745        3.8016346367       -1.2875908656  CLST         256          1.0000000000
       767       256  TIP3  H1           11.9653019079        2.9905813007       -1.6365999196  CLST         256          1.0000000000
       768       256  TIP3  H2           11.4909750537        3.6357604649       -0.3328748636  CLST         256          1.0000000000
       769       257  TIP3  OH2          -8.5017613039       -1.0517911295       -4.9857998521  CLST         257          1.0000000000
       770       257  TIP3  H1           -7.6335956712       -0.7453813174       -4.6505760324  CLST         257          1.0000000000
       771       257  TIP3  H2           -8.3769787662       -0.9739737748       -5.9649247127  CLST         257          1.0000000000
       772       258  TIP3  OH2          -5.2875309543       10.2776691425        7.8667087774  CLST         258          1.0000000000
       773       258  TIP3  H1           -5.3856738815       10.9022339409        7.1078032330  CLST         258          1.0000000000
       774       258  TIP3  H2           -5.8134194177       10.8340822836        8.4480988892  CLST         258          1.0000000000
       775       259  TIP3  OH2          10.1231116556        6.1294332715        0.9878703967  CLST         259          1.0000000000
       776       259  TIP3  H1           10.9473011166        6.5486236226        1.2299375917  CLST         259          1.0000000000
       777       259  TIP3  H2            9.5818085899        6.6280771187        1.6423665240  CLST         259          1.0000000000
       778       260  TIP3  OH2          -4.8860403656        7.5740524316        8.8998965840  CLST         260          1.0000000000
       779       260  TIP3  H1           -5.2295773554        8.3065542726        8.3398606060  CLST         260          1.0000000000
       780       260  TIP3  H2           -5.6670471917        7.0515579512        9.1299183580  CLST         260          1.0000000000
       781       261  TIP3  OH2           0.8063585134       -4.4220072691       12.5511335707  CLST         261          1.0000000000
       782       261  TIP3  H1            0.3488832825       -5.3569253554       12.5313281823  CLST         261          1.0000000000
       783       261  TIP3  H2            1.6328188351       -4.5987069293       12.9858941332  CLST         261          1.0000000000
       784       262  TIP3  OH2         -11.0526198389        4.7972766258        5.9559250980  CLST         262          1.0000000000
       785       262  TIP3  H1          -10.3877685762        4.6166850013        5.2549273744  CLST         262          1.0000000000
       786       262  TIP3  H2          -11.8857594908        4.9100524269        5.4219605697  CLST         262          1.0000000000
       787       263  TIP3  OH2           1.7449525175        0.8697057841        6.7648939162  CLST         263          1.0000000000
       788       263  TIP3  H1            2.1633202285        1.6370186755        6.3053321305  CLST         263          1.0000000000
       789       263  TIP3  H2            2.4370981813        0.3203030730        7.1334894160  CLST         263          1.0000000000
       790       264  TIP3  OH2           5.2715140447       -4.2974165513       -9.6156196807  CLST         264          1.0000000000
       791       264  TIP3  H1            4.9602732240       -5.2312003562       -9.8370915241  CLST         264          1.0000000000
       792       264  TIP3  H2            4.5744839912       -3.8565685235      -10.1576023159  CLST         264          1.0000000000
       793       265  TIP3  OH2           7.5784026340        4.9531022734      -10.2341918131  CLST         265          1.0000000000
       794       265  TIP3  H1            7.8612157135        5.7874379411      -10.6402910577  CLST         265          1.0000000000
       795       265  TIP3  H2            8.1294720306        4.9415626794       -9.4120724292  CLST         265          1.0000000000
       796       266  TIP3  OH2          -8.0697747682       -8.8526937960        0.0220760710  CLST         266          1.0000000000
       797       266  TIP3  H1           -7.9473027505       -9.0892594369        0.9655789251  CLST         266          1.0000000000
       798       266  TIP3  H2           -8.1464896985       -7.8579422135        0.0698137345  CLST         266          1.0000000000
       799       267  TIP3  OH2           1.3043433630        2.6696838450       -5.1645875559  CLST         267          1.0000000000
       800       267  TIP3  H1            1.6577966496        3.4142700069       -4.5960995149  CLST         267          1.0000000000
       801       267  TIP3  H2            1.8752801514        1.9716013154       -4.8516211002  CLST         267          1.0000000000
       802       268  TIP3  OH2           5.1668590312       -4.4782716416       -6.9591752310  CLST         268          1.0000000000
       803       268  TIP3  H1            5.1957943670       -4.3176473331       -7.9488543653  CLST         268          1.0000000000
       804       268  TIP3  H2            4.9526215199       -5.4302011393       -6.9822619772  CLST         268          1.0000000000
       805       269  TIP3  OH2           5.4984093842       10.6088483999       -0.1249494157  CLST         269          1.0000000000
       806       269  TIP3  H1            6.4545235231       10.6354225099       -0.4284968576  CLST         269          1.0000000000
       807       269  TIP3  H2            5.5672489865       11.5127433039        0.3094058890  CLST         269          1.0000000000
       808       270  TIP3  OH2           1.3181778543        9.3514251781       -7.9480971493  CLST         270          1.0000000000
       809       270  TIP3  H1            1.5950840555        8.5493841521       -8.3815796876  CLST         270          1.0000000000
       810       270  TIP3  H2            0.8395256656        8.8770721329       -7.1550384096  CLST         270          1.0000000000
       811       271  TIP3  OH2          -6.5370093100       -9.2390268440       -2.1699194510  CLST         271          1.0000000000
       812       271  TIP3  H1           -5.8087729403       -9.4147804749       -1.5884114936  CLST         271          1.0000000000
       813       271  TIP3  H2           -7.2422667219       -9.1575250513       -1.4658271739  CLST         271          1.0000000000
       814       272  TIP3  OH2           9.4813040412       -8.2364924344        5.9097168678  CLST         272          1.0000000000
       815       272  TIP3  H1            8.4906696708       -8.2942410284        5.8373560184  CLST         272          1.0000000000
       816       272  TIP3  H2            9.6581000208       -7.7859245413        5.0195573952  CLST         272          1.0000000000
       817       273  TIP3  OH2         -13.8451398003        9.3238175806        3.2296394807  CLST         273          1.0000000000
       818       273  TIP3  H1          -14.3226738262        9.8497452267        3.9255860381  CLST         273          1.0000000000
       819       273  TIP3  H2          -13.3793968866        8.7501121203        3.9122532446  CLST         273          1.0000000000
       820       274  TIP3  OH2           4.0570364176       12.9331844530       -3.8433032664  CLST         274          1.0000000000
       821       274  TIP3  H1            3.9177823599       12.1931213542       -3.1368952773  CLST         274          1.0000000000
       822       274  TIP3  H2            3.5794196502       13.6498816388       -3.3914653294  CLST         274          1.0000000000
       823       275  TIP3  OH2           8.7640159574      -11.0837545863        5.7636009570  CLST         275          1.0000000000
       824       275  TIP3  H1            9.2999935637      -10.3160633363        6.0648203448  CLST         275          1.0000000000
       825       275  TIP3  H2            9.3161611797      -11.8352499790        5.5683215463  CLST         275          1.0000000000
       826       276  TIP3  OH2          -0.2201582857       -5.8675786647        1.4498393298  CLST         276          1.0000000000
       827       276  TIP3  H1           -0.8044812442       -6.2974410741        0.8009074972  CLST         276          1.0000000000
       828       276  TIP3  H2           -0.8447516225       -5.1104664480        1.8161286574  CLST         276          1.0000000000
       829       277  TIP3  OH2           6.4213675358        6.3865504675       -6.9626900762  CLST         277          1.0000000000
       830       277  TIP3  H1            5.7518732304        5.8361788300       -7.4346924617  CLST         277          1.0000000000
       831       277  TIP3  H2            6.4083187557        7.2608346054       -7.4282348145  CLST         277          1.0000000000
       832       278  TIP3  OH2          -0.6275479590       -7.5909911489        3.4150583799  CLST         278          1.0000000000
       833       278  TIP3  H1           -0.3967463518       -6.9606422531        2.6239664090  CLST         278          1.0000000000
       834       278  TIP3  H2           -0.7840949536       -6.8585619871        4.0622344804  CLST         278          1.0000000000
       835       279  TIP3  OH2         -13.5497903605        6.4697088661        0.4632898194  CLST         279          1.0000000000
       836       279  TIP3  H1          -13.8981206623        5.5687719257        0.2970148003  CLST         279          1.0000000000
       837       279  TIP3  H2          -12.6149003684        6.3295947447        0.7952839159  CLST         279          1.0000000000
       838       280  TIP3  OH2          -3.3021775022      -10.1775227245        5.4979754910  CLST         280          1.0000000000
       839       280  TIP3  H1           -3.0253551812       -9.4101864389        6.0589477801  CLST         280          1.0000000000
       840       280  TIP3  H2           -3.9333388198       -9.6353278587        4.9621386207  CLST         280          1.0000000000
       841       281  TIP3  OH2           8.2389450049        7.8457076297      -10.6272698425  CLST         281          1.0000000000
       842       281  TIP3  H1            8.5328149474        8.8003441553      -10.4582347009  CLST         281          1.0000000000
       843       281  TIP3  H2            7.2446527622        8.1183676249      -10.6148480057  CLST         281          1.0000000000
       844       282  TIP3  OH2          -7.6864315360      -11.8717552223        9.8508951571  CLST         282          1.0000000000
       845       282  TIP3  H1           -8.5720035856      -11.7109806006        9.5070112546  CLST         282          1.0000000000
       846       282  TIP3  H2           -7.2543341791      -12.3302546032        9.1069274928  CLST         282          1.0000000000
       847       283  TIP3  OH2           4.3749447849        8.5074297832       -4.6839584926  CLST         283          1.0000000000
       848       283  TIP3  H1            4.4801529603        9.4790022770       -4.7958142844  CLST         283          1.0000000000
       849       283  TIP3  H2            3.9108718995        8.4098991329       -3.7742229763  CLST         283          1.0000000000
       850       284  TIP3  OH2          11.8960941809        8.2780674975       -1.2557539573  CLST         284          1.0000000000
       851       284  TIP3  H1           12.0974503636        7.7081186125       -2.0221057967  CLST         284          1.0000000000
       852       284  TIP3  H2           11.0550973928        8.6391543068       -1.6024612895  CLST         284          1.0000000000
       853       285  TIP3  OH2          -5.3487378658        1.8886348089        8.8591606267  CLST         285          1.0000000000
       854       285  TIP3  H1           -4.6754490248        1.8124737065        8.1797507432  CLST         285          1.0000000000
       855       285  TIP3  H2           -4.8847597148        2.5248419250        9.4523437544  CLST         285          1.0000000000
       856       286  TIP3  OH2           2.9185951272        5.8523391318       -0.5970112287  CLST         286          1.0000000000
       857       286  TIP3  H1            2.1862297775        5.8449096369        0.0924349047  CLST         286          1.0000000000
       858       286  TIP3  H2            3.6548188393        5.8516389919        0.1166965613  CLST         286          1.0000000000
       859       287  TIP3  OH2          -4.3204112908        9.1937064713       11.2112076387  CLST         287          1.0000000000
       860       287  TIP3  H1           -4.7123584726        9.8697089895       11.8152887694  CLST         287          1.0000000000
       861       287  TIP3  H2           -5.0815961656        8.8161198675       10.7485446555  CLST         287          1.0000000000
       862       288  TIP3  OH2           5.6456105536        3.4716268199       -9.4930627592  CLST         288          1.0000000000
       863       288  TIP3  H1            5.4811958029        2.8083377375      -10.1076555970  CLST         288          1.0000000000
       864       288  TIP3  H2            6.4265001308        4.0112246039       -9.9478902000  CLST         288          1.0000000000
       865       289  TIP3  OH2          -7.0670042920       -5.1398674135       -8.2745140196  CLST         289          1.0000000000
       866       289  TIP3  H1           -7.7805614659       -4.5032653890       -8.1839407349  CLST         289          1.0000000000
       867       289  TIP3  H2           -6.4022842117       -4.9257011106       -7.6385359561  CLST         289          1.0000000000
       868       290  TIP3  OH2           2.2491371395      -11.9847370819       11.1940146444  CLST         290          1.0000000000
       869       290  TIP3  H1            2.7796867331      -12.4844601546       10.6097029956  CLST         290          1.0000000000
       870       290  TIP3  H2            2.7694304829      -11.4891336563       11.8241752990  CLST         290          1.0000000000
       871       291  TIP3  OH2         -10.3327252174       -3.6186550969        2.8325433334  CLST         291          1.0000000000
       872       291  TIP3  H1          -11.1273636838       -4.0362353587        3.2382040762  CLST         291          1.0000000000
       873       291  TIP3  H2          -10.3334335737       -4.0561162228        1.9870717223  CLST         291          1.0000000000
       874       292  TIP3  OH2          12.1104882726        3.5280117270       -4.7142285334  CLST         292          1.0000000000
       875       292  TIP3  H1           11.1490497846        3.2623549806       -4.4713550317  CLST         292          1.0000000000
       876       292  TIP3  H2           11.9332461438        3.9485677726       -5.5382493893  CLST         292          1.0000000000
       877       293  TIP3  OH2           8.8354076983       10.7439612563       11.1969178534  CLST         293          1.0000000000
       878       293  TIP3  H1            8.4195937825       11.3458463364       11.6514107624  CLST         293          1.0000000000
       879       293  TIP3  H2            8.8446686177       11.1891388172       10.2752729249  CLST         293          1.0000000000
       880       294  TIP3  OH2           4.1466257550        4.5467581589       -2.5255198015  CLST         294          1.0000000000
       881       294  TIP3  H1            3.7320156579        5.1272445440       -1.8175781829  CLST         294          1.0000000000
       882       294  TIP3  H2            4.1908493421        5.1138800958       -3.3227532162  CLST         294          1.0000000000
       883       295  TIP3  OH2          -2.4054074413      -13.3574186502       -8.7247997834  CLST         295          1.0000000000
       884       295  TIP3  H1           -3.1250104719      -13.2989103027       -8.0403496417  CLST         295          1.0000000000
       885       295  TIP3  H2           -1.7206484234      -12.9816811343       -8.1677569826  CLST         295          1.0000000000
       886       296  TIP3  OH2          -1.4576942397       11.4474944926      -13.0645116061  CLST         296          1.0000000000
       887       296  TIP3  H1           -0.6350260483       10.9873643412      -13.2867278210  CLST         296          1.0000000000
       888       296  TIP3  H2           -1.5479479781       11.1631672963      -12.1445599464  CLST         296          1.0000000000
       889       297  TIP3  OH2           8.1566946621       -0.4934649144       11.4157057846  CLST         297          1.0000000000
       890       297  TIP3  H1            8.6886795551       -1.3348407282       11.2045976167  CLST         297          1.0000000000
       891       297  TIP3  H2            7.3008077675       -0.9200375198       11.6730909536  CLST         297          1.0000000000
       892       298  TIP3  OH2           1.0296107275       -1.2550714949       -7.5826673278  CLST         298          1.0000000000
       893       298  TIP3  H1            1.4467552239       -0.6789836797       -8.2846975383  CLST         298          1.0000000000
       894       298  TIP3  H2            0.7195997236       -1.9883433608       -8.2315097025  CLST         298          1.0000000000
       895       299  TIP3  OH2           2.9921743779       10.1309756902       12.8533078970  CLST         299          1.0000000000
       896       299  TIP3  H1            2.3956938030       10.8070115572       12.5325633222  CLST         299          1.0000000000
       897       299  TIP3  H2            2.2282240275        9.5319723809       12.9375290220  CLST         299          1.0000000000
       898       300  TIP3  OH2         -10.7740514532        5.1939574890       -3.8269099387  CLST         300          1.0000000000
       899       300  TIP3  H1          -10.6693644902        5.8444908124       -4.5828183853  CLST         300          1.0000000000
       900       300  TIP3  H2          -10.9535384561        5.9158273797       -3.1681172400  CLST         300          1.0000000000
       901       301  TIP3  OH2           9.6573105014       -8.1407236345       11.4152536969  CLST         301          1.0000000000
       902       301  TIP3  H1            9.4441782436       -7.9439968305       12.3686483321  CLST         301          1.0000000000
       903       301  TIP3  H2            9.6750358942       -9.1490747031       11.4869078153  CLST         301          1.0000000000
       904       302  TIP3  OH2           7.9502144550       12.8870462923        5.3401287286  CLST         302          1.0000000000
       905       302  TIP3  H1            7.4999975501       13.2092732539        4.5422933080  CLST         302          1.0000000000
       906       302  TIP3  H2            7.2294317352       12.2570544950        5.4803624443  CLST         302          1.0000000000
       907       303  TIP3  OH2         -10.9433177017        1.3750784582       -2.0850070540  CLST         303          1.0000000000
       908       303  TIP3  H1           -9.9969747224        1.4019039714       -1.7771596044  CLST         303          1.0000000000
       909       303  TIP3  H2          -10.8920396918        0.6383482780       -2.7555916952  CLST         303          1.0000000000
       910       304  TIP3  OH2          -7.8919492307        1.2501067224      -14.8983211064  CLST         304          1.0000000000
       911       304  TIP3  H1           -7.4200951369        0.4560281947      -14.5618453655  CLST         304          1.0000000000
       912       304  TIP3  H2           -7.3817818927        1.8671187275      -15.3391686674  CLST         304          1.0000000000
       913       305  TIP3  OH2           3.5240115140       -3.7760756151       13.9081734593  CLST         305          1.0000000000
       914       305  TIP3  H1            4.2905557733       -4.2182096116       13.5887636761  CLST         305          1.0000000000
       915       305  TIP3  H2            3.4794124577       -2.8743456235       13.6382360303  CLST         305          1.0000000000
       916       306  TIP3  OH2           8.6663582336      -12.0745676201      -11.3570766289  CLST         306          1.0000000000
       917       306  TIP3  H1            9.5097563505      -11.9331718836      -11.8687632518  CLST         306          1.0000000000
       918       306  TIP3  H2            8.6962337447      -12.7029584324      -10.7106803378  CLST         306          1.0000000000
       919       307  TIP3  OH2           9.3095554162        7.9653189460       -7.5568024593  CLST         307          1.0000000000
       920       307  TIP3  H1            8.5186958668        8.4809669498       -7.7284871687  CLST         307          1.0000000000
       921       307  TIP3  H2            9.4873477786        8.2018903833       -6.6507244652  CLST         307          1.0000000000
       922       308  TIP3  OH2         -10.9761987646       -4.7183204250        8.7652620589  CLST         308          1.0000000000
       923       308  TIP3  H1          -10.9673053555       -5.6740321776        9.3144805152  CLST         308          1.0000000000
       924       308  TIP3  H2          -10.0470021440       -4.4956364181        9.0033570156  CLST         308          1.0000000000
       925       309  TIP3  OH2          -1.9393848102       -0.4410327667        5.5287963751  CLST         309          1.0000000000
       926       309  TIP3  H1           -2.7465840952       -0.8801150091        5.1024843952  CLST         309          1.0000000000
       927       309  TIP3  H2           -1.6973531124       -1.2188272865        6.1117141787  CLST         309          1.0000000000
       928       310  TIP3  OH2          -5.0210597709       -0.6453116702        7.2981636027  CLST         310          1.0000000000
       929       310  TIP3  H1           -4.4685971435        0.1247869115        7.4502192903  CLST         310          1.0000000000
       930       310  TIP3  H2           -5.0521731721       -1.1337611837        8.1423520080  CLST         310          1.0000000000
       931       311  TIP3  OH2          -7.1520762216        8.4881673123      -12.2869077150  CLST         311          1.0000000000
       932       311  TIP3  H1           -6.4873631021        7.8681085062      -12.7297761658  CLST         311          1.0000000000
       933       311  TIP3  H2           -7.3596477517        7.8694768815      -11.5651034643  CLST         311          1.0000000000
       934       312  TIP3  OH2           6.3888754294       -0.8556472394       -6.1998949679  CLST         312          1.0000000000
       935       312  TIP3  H1            5.9578878745       -0.1409770953       -5.6937809429  CLST         312          1.0000000000
       936       312  TIP3  H2            6.6131108742       -1.4154140114       -5.4280543523  CLST         312          1.0000000000
       937       313  TIP3  OH2          -8.8961498343      -10.6585749566        7.1916188721  CLST         313          1.0000000000
       938       313  TIP3  H1           -8.2539777637       -9.9004030180        7.1031217519  CLST         313          1.0000000000
       939       313  TIP3  H2           -9.3058332184      -10.6786715371        6.2902327290  CLST         313          1.0000000000
       940       314  TIP3  OH2          -1.4529857540      -12.1771541420      -10.7414922456  CLST         314          1.0000000000
       941       314  TIP3  H1           -1.3977244823      -11.3696233429      -10.1560525622  CLST         314          1.0000000000
       942       314  TIP3  H2           -1.8582213871      -12.7267883044       -9.9794661293  CLST         314          1.0000000000
       943       315  TIP3  OH2          -1.3359207143       -0.6768738578       -6.4370144508  CLST         315          1.0000000000
       944       315  TIP3  H1           -0.4663535924       -0.8877113418       -6.7979130052  CLST         315          1.0000000000
       945       315  TIP3  H2           -1.0843675269       -0.2513750963       -5.5875092615  CLST         315          1.0000000000
       946       316  TIP3  OH2         -13.2374587915       -3.7807448224       -5.4817844753  CLST         316          1.0000000000
       947       316  TIP3  H1          -12.5803567833       -4.1366102560       -6.1626259116  CLST         316          1.0000000000
       948       316  TIP3  H2          -12.8079794347       -2.9178621637       -5.4305500466  CLST         316          1.0000000000
       949       317  TIP3  OH2          -6.0334121586        0.1724747618       -3.7189065563  CLST         317          1.0000000000
       950       317  TIP3  H1           -5.1564391605        0.1542055588       -3.2690412817  CLST         317          1.0000000000
       951       317  TIP3  H2           -6.6653519418        0.2450770153       -2.9920587562  CLST         317          1.0000000000
       952       318  TIP3  OH2          -3.9155125696       -9.6300163045       -9.3675288708  CLST         318          1.0000000000
       953       318  TIP3  H1           -4.0133267966       -9.8394686081       -8.4041110539  CLST         318          1.0000000000
       954       318  TIP3  H2           -2.9241117072       -9.6164334336       -9.3644658531  CLST         318          1.0000000000
       955       319  TIP3  OH2           5.6256082914       10.7936442655        8.6529298931  CLST         319          1.0000000000
       956       319  TIP3  H1            6.4788466207       10.7585886456        8.1413495801  CLST         319          1.0000000000
       957       319  TIP3  H2            5.8256045545       11.3350615069        9.3697829425  CLST         319          1.0000000000
       958       320  TIP3  OH2         -10.6578825219        1.1514471385      -14.4078740431  CLST         320          1.0000000000
       959       320  TIP3  H1           -9.6471311009        1.0472320132      -14.6248237100  CLST         320          1.0000000000
       960       320  TIP3  H2          -10.5219681097        0.2574089684      -13.9409257672  CLST         320          1.0000000000
       961       321  TIP3  OH2          -9.7937435655       10.1673208121       -9.7692611702  CLST         321          1.0000000000
       962       321  TIP3  H1          -10.3753747433       10.2082938518      -10.3726428756  CLST         321          1.0000000000
       963       321  TIP3  H2          -10.0599583707       10.0732549534      -11.8082424100  CLST         321          1.0000000000
       964       322  TIP3  OH2         -12.5044898097       -1.7660120401       -2.3268109327  CLST         322          1.0000000000
       965       322  TIP3  H1          -12.1630784905       -1.3505614398       -3.1337874015  CLST         322          1.0000000000
       966       322  TIP3  H2          -11.5890304766       -1.8601385905       -1.8992991702  CLST         322          1.0000000000
       967       323  TIP3  OH2          -1.0773949073        3.8971925417        4.3075204587  CLST         323          1.0000000000
       968       323  TIP3  H1           -0.4172028671        3.1597525911        4.3310629766  CLST         323          1.0000000000
       969       323  TIP3  H2           -1.2377080489        4.0245552098        3.3574010969  CLST         323          1.0000000000
       970       324  TIP3  OH2         -11.1021270089        6.2150049672        1.5350872269  CLST         324          1.0000000000
       971       324  TIP3  H1          -11.2191769494        5.7213755458        2.4019113720  CLST         324          1.0000000000
       972       324  TIP3  H2          -10.2534573343        6.6199057774        1.8374098243  CLST         324          1.0000000000
       973       325  TIP3  OH2          -4.4765723922        0.8185439177        3.6320693560  CLST         325          1.0000000000
       974       325  TIP3  H1           -5.3825653871        1.1397999915        3.5521161194  CLST         325          1.0000000000
       975       325  TIP3  H2           -3.9140570217        1.5845364691        3.6324227666  CLST         325          1.0000000000
       976       326  TIP3  OH2           9.0965143875        8.6186319855       -2.6536802485  CLST         326          1.0000000000
       977       326  TIP3  H1            9.0872794809        8.0479207970       -1.8453057847  CLST         326          1.0000000000
       978       326  TIP3  H2            8.2366781812        8.4993913620       -3.0901755178  CLST         326          1.0000000000
       979       327  TIP3  OH2          10.3811142750       -3.7375909539      -13.1327098642  CLST         327          1.0000000000
       980       327  TIP3  H1           10.1770919732       -3.6614582959      -14.0172884991  CLST         327          1.0000000000
       981       327  TIP3  H2           10.1342393718       -3.0300229012      -12.5005521185  CLST         327          1.0000000000
       982       328  TIP3  OH2           2.2002309295        7.0453803516       -9.6816049129  CLST         328          1.0000000000
       983       328  TIP3  H1            1.7698911297        6.2076859682       -9.4816583474  CLST         328          1.0000000000
       984       328  TIP3  H2            3.0904963957        6.8325890555       -9.3177602062  CLST         328          1.0000000000
       985       329  TIP3  OH2           1.3976105484      -11.6500682501       -2.4321389874  CLST         329          1.0000000000
       986       329  TIP3  H1            1.5790157107      -10.6387337489       -2.5836599704  CLST         329          1.0000000000
       987       329  TIP3  H2            2.2369035717      -11.6917638857       -1.8675999999  CLST         329          1.0000000000
       988       330  TIP3  OH2          -9.3325884863       -1.0347791614        3.4334449028  CLST         330          1.0000000000
       989       330  TIP3  H1           -9.6340034585       -1.9799904516        3.3081365652  CLST         330          1.0000000000
       990       330  TIP3  H2          -10.1412024723       -0.6557345342        3.8529148413  CLST         330          1.0000000000
       991       331  TIP3  OH2          12.2329364796        9.8899420733       -9.1482787067  CLST         331          1.0000000000
       992       331  TIP3  H1           12.8906518286        9.6089429675       -9.7515096228  CLST         331          1.0000000000
       993       331  TIP3  H2           11.8139857527        8.9727429460       -9.1087351544  CLST         331          1.0000000000
       994       332  TIP3  OH2          11.2364723732       -1.4161685841       -4.4215431375  CLST         332          1.0000000000
       995       332  TIP3  H1           12.2125285007       -1.5399369580       -4.8061498925  CLST         332          1.0000000000
       996       332  TIP3  H2           11.3380177714       -0.5861725119       -3.9601257215  CLST         332          1.0000000000
       997       333  TIP3  OH2          10.6746745759      -14.4091663586        8.0089800545  CLST         333          1.0000000000
       998       333  TIP3  H1            9.7760824924      -14.1775636316        8.3367842652  CLST         333          1.0000000000
       999       333  TIP3  H2           10.5280739131      -14.1999121100        7.0612040418  CLST         333          1.0000000000
      1000       334  TIP3  OH2         -10.6405322806       -9.6025350913        9.1040838139  CLST         334          1.0000000000
      1001       334  TIP3  H1          -11.4838920214       -9.9311486777        8.7448418885  CLST         334          1.0000000000
      1002       334  TIP3  H2          -10.0661610304       -9.8737704509        8.3667998930  CLST         334          1.0000000000
      1003       335  TIP3  OH2           6.8655695962       -9.9272435689        1.5168896810  CLST         335          1.0000000000
      1004       335  TIP3  H1            6.7071437540       -9.8886463786        2.4773957937  CLST         335          1.0000000000
      1005       335  TIP3  H2            5.9613349016      -10.1680832584        1.1923863708  CLST         335          1.0000000000
      1006       336  TIP3  OH2          -9.3177658528       -3.5834059661       -3.5594159266  CLST         336          1.0000000000
      1007       336  TIP3  H1           -9.7705319204       -4.3644148926       -3.9582994863  CLST         336          1.0000000000
      1008       336  TIP3  H2           -9.1603643597       -3.1468828958       -4.4178322206  CLST         336          1.0000000000
      1009       337  TIP3  OH2          -1.6288664343       -4.9108161696        7.9434605790  CLST         337          1.0000000000
      1010       337  TIP3  H1           -1.5349527762       -4.4684100854        8.8627028868  CLST         337          1.0000000000
      1011       337  TIP3  H2           -2.1112031249       -4.1025826563        7.5718896729  CLST         337          1.0000000000
      1012       338  TIP3  OH2          -0.4450649904        2.8256075736       10.8328265261  CLST         338          1.0000000000
      1013       338  TIP3  H1           -0.5557931998        2.5096937580        9.8629307041  CLST         338          1.0000000000
      1014       338  TIP3  H2           -0.0341456579        2.0902628104       11.2336351743  CLST         338          1.0000000000
      1015       339  TIP3  OH2           7.8214863672        7.9354120508        2.7498584695  CLST         339          1.0000000000
      1016       339  TIP3  H1            7.4225758435        8.5645504306        3.4186256182  CLST         339          1.0000000000
      1017       339  TIP3  H2            7.1963021579        7.7116808527        2.0478667365  CLST         339          1.0000000000
      1018       340  TIP3  OH2          -4.6945641283      -11.6129205313      -11.3694587528  CLST         340          1.0000000000
      1019       340  TIP3  H1           -4.5300405828      -11.0163882359      -10.5932952468  CLST         340          1.0000000000
      1020       340  TIP3  H2           -4.0686418745      -12.3236835630      -11.2013932346  CLST         340          1.0000000000
      1021       341  TIP3  OH2          -6.6625025438        4.6795486868        9.3229709146  CLST         341          1.0000000000
      1022       341  TIP3  H1           -5.7544610483        4.5476645348        9.7088153820  CLST         341          1.0000000000
      1023       341  TIP3  H2           -6.8255890698        3.8082368489        9.0177245481  CLST         341          1.0000000000
      1024       342  TIP3  OH2          -4.3861664893      -11.0552951196       13.8743951487  CLST         342          1.0000000000
      1025       342  TIP3  H1           -5.2060011106      -11.0193991673       13.2126781904  CLST         342          1.0000000000
      1026       342  TIP3  H2           -4.6494801466      -11.1639989504       14.7393182048  CLST         342          1.0000000000
      1027       343  TIP3  OH2           1.2847500062       -8.9205885857       -9.7790837418  CLST         343          1.0000000000
      1028       343  TIP3  H1            1.3886975468       -8.0249167317      -10.2539110324  CLST         343          1.0000000000
      1029       343  TIP3  H2            1.5249671967       -9.5061659750      -10.5120456830  CLST         343          1.0000000000
      1030       344  TIP3  OH2           5.3719770323       -4.0266737384        6.3886909282  CLST         344          1.0000000000
      1031       344  TIP3  H1            4.8422613997       -4.5548563142        6.9954662114  CLST         344          1.0000000000
      1032       344  TIP3  H2            5.8587250261       -4.7548850296        5.9010641142  CLST         344          1.0000000000
      1033       345  TIP3  OH2          13.0664557498        7.2676564275        8.7892735728  CLST         345          1.0000000000
      1034       345  TIP3  H1           12.7625352963        6.3604267550        8.7451377684  CLST         345          1.0000000000
      1035       345  TIP3  H2           12.5761727581        7.4795437801        9.6600131489  CLST         345          1.0000000000
      1036       346  TIP3  OH2           9.4551591251        9.2547913992        0.9263868481  CLST         346          1.0000000000
      1037       346  TIP3  H1            9.8858764358        9.9698204992        1.4570544563  CLST         346          1.0000000000
      1038       346  TIP3  H2            8.8361201965        8.9004223271        1.6053016954  CLST         346          1.0000000000
      1039       347  TIP3  OH2          -5.0248965773        2.9439632884       -9.7805623334  CLST         347          1.0000000000
      1040       347  TIP3  H1           -5.7806563356        3.0382914143       -9.1407522754  CLST         347          1.0000000000
      1041       347  TIP3  H2           -4.2962359198        2.7879161895       -9.1761341417  CLST         347          1.0000000000
      1042       348  TIP3  OH2          -1.1297089608        6.1215935330        5.7518462620  CLST         348          1.0000000000
      1043       348  TIP3  H1           -1.2351416588        5.3254499992        5.1448138218  CLST         348          1.0000000000
      1044       348  TIP3  H2           -0.4659363874        6.5657511778        5.1146926269  CLST         348          1.0000000000
      1045       349  TIP3  OH2          -4.0295913031        5.1994589448       -2.4549865929  CLST         349          1.0000000000
      1046       349  TIP3  H1           -3.7430656255        4.7557883164       -3.3243790336  CLST         349          1.0000000000
      1047       349  TIP3  H2           -3.3946192789        5.9609790879       -2.5652233457  CLST         349          1.0000000000
      1048       350  TIP3  OH2          -2.5567051175        8.8277204004        5.0823608282  CLST         350          1.0000000000
      1049       350  TIP3  H1           -3.0860872603        8.5363207849        4.3193123618  CLST         350          1.0000000000
      1050       350  TIP3  H2           -2.8004571239        8.0981617771        5.6662844407  CLST         350          1.0000000000
      1051       351  TIP3  OH2           4.7685771708       -7.5249318782       -7.6621944128  CLST         351          1.0000000000
      1052       351  TIP3  H1            4.1565662266       -8.2769922410       -7.6181121701  CLST         351          1.0000000000
      1053       351  TIP3  H2            4.8209665429       -7.3147929511       -8.6457146415  CLST         351          1.0000000000
      1054       352  TIP3  OH2         -10.3458695913      -11.0231630155        1.8160254689  CLST         352          1.0000000000
      1055       352  TIP3  H1           -9.3883324750      -10.7992601528        1.7586826557  CLST         352          1.0000000000
      1056       352  TIP3  H2          -10.8819694947      -10.3287749883        1.2731974900  CLST         352          1.0000000000
      1057       353  TIP3  OH2          10.7980786967       -8.1700723481       -8.6315870567  CLST         353          1.0000000000
      1058       353  TIP3  H1            9.8914792565       -8.5241819837       -8.7987082324  CLST         353          1.0000000000
      1059       353  TIP3  H2           11.0606879359       -8.3864283339       -7.7388386541  CLST         353          1.0000000000
      1060       354  TIP3  OH2           6.8046168831      -10.5751111091        4.0452935519  CLST         354          1.0000000000
      1061       354  TIP3  H1            7.5095113412      -10.9063710470        4.6941015375  CLST         354          1.0000000000
      1062       354  TIP3  H2            6.4785503052       -9.8869793418        4.6963856450  CLST         354          1.0000000000
      1063       355  TIP3  OH2          -7.1394743652        8.9629843305       -8.9311823530  CLST         355          1.0000000000
      1064       355  TIP3  H1           -6.9044834191        9.8919735224       -9.1510596704  CLST         355          1.0000000000
      1065       355  TIP3  H2           -8.1446105484        9.1145060967       -9.1042615913  CLST         355          1.0000000000
      1066       356  TIP3  OH2          12.5340124966        1.0426540326       -1.8679412685  CLST         356          1.0000000000
      1067       356  TIP3  H1           11.5731147360        0.8046045157       -1.9775209722  CLST         356          1.0000000000
      1068       356  TIP3  H2           12.7604385797        0.8953631107       -0.9552046512  CLST         356          1.0000000000
      1069       357  TIP3  OH2          -0.6141328895       -0.5130821522       -1.8828555914  CLST         357          1.0000000000
      1070       357  TIP3  H1            0.2704096600       -1.0019917271       -2.0242824821  CLST         357          1.0000000000
      1071       357  TIP3  H2           -0.7865189423       -0.4334791420       -2.8473094477  CLST         357          1.0000000000
      1072       358  TIP3  OH2          -5.5570647876        7.0426262440       -7.5390312539  CLST         358          1.0000000000
      1073       358  TIP3  H1           -5.9819236526        7.7591003222       -8.0817670486  CLST         358          1.0000000000
      1074       358  TIP3  H2           -6.3842623010        6.6311035829       -7.1856762026  CLST         358          1.0000000000
      1075       359  TIP3  OH2          -5.2140951236       12.1942739918        5.9936655847  CLST         359          1.0000000000
      1076       359  TIP3  H1           -5.4824195861       12.1642389389        5.0597460992  CLST         359          1.0000000000
      1077       359  TIP3  H2           -4.2502955459       12.3294379231        5.9061636244  CLST         359          1.0000000000
      1078       360  TIP3  OH2          -6.8749911357        5.7816205143       -3.2193263450  CLST         360          1.0000000000
      1079       360  TIP3  H1           -7.0846397160        6.1624392588       -2.3469790224  CLST         360          1.0000000000
      1080       360  TIP3  H2           -5.9093918845        5.5791588077       -3.0097309475  CLST         360          1.0000000000
      1081       361  TIP3  OH2          -1.5631303464       -1.0132888795        9.9692059492  CLST         361          1.0000000000
      1082       361  TIP3  H1           -1.6778597123       -0.3292964547       10.6822739162  CLST         361          1.0000000000
      1083       361  TIP3  H2           -1.8871150010       -1.8105493322       10.5159470723  CLST         361          1.0000000000
      1084       362  TIP3  OH2         -10.5930936257        2.7245811977        0.6641035775  CLST         362          1.0000000000
      1085       362  TIP3  H1          -10.5038591671        3.2828916753       -0.1480248273  CLST         362          1.0000000000
      1086       362  TIP3  H2          -11.1335419600        2.0139278390        0.2575991761  CLST         362          1.0000000000
      1087       363  TIP3  OH2          10.5394514148        2.4555560336       10.1219910918  CLST         363          1.0000000000
      1088       363  TIP3  H1           10.8602314101        1.5294084792       10.0987895822  CLST         363          1.0000000000
      1089       363  TIP3  H2           11.0863363973        3.1696803826       10.1551634180  CLST         363          1.0000000000
      1090       364  TIP3  OH2           7.7323582583       -5.4677806930       -6.3828148120  CLST         364          1.0000000000
      1091       364  TIP3  H1            6.9578155463       -4.9266880359       -6.6594257578  CLST         364          1.0000000000
      1092       364  TIP3  H2            8.2810891565       -5.5729518522       -7.2066077825  CLST         364          1.0000000000
      1093       365  TIP3  OH2          -6.0963146630       -6.6748270555        2.6266366636  CLST         365          1.0000000000
      1094       365  TIP3  H1           -6.7002295300       -5.9481938169        2.3532162500  CLST         365          1.0000000000
      1095       365  TIP3  H2           -6.8432337117       -7.1981345217        2.9880604074  CLST         365          1.0000000000
      1096       366  TIP3  OH2           1.7571517246       -1.3656320249       -2.9596901972  CLST         366          1.0000000000
      1097       366  TIP3  H1            2.7034703973       -1.4616044914       -2.6289142852  CLST         366          1.0000000000
      1098       366  TIP3  H2            2.0387193462       -0.9902602104       -3.8354683421  CLST         366          1.0000000000
      1099       367  TIP3  OH2          -5.3436574526       11.7133221206       12.4474469081  CLST         367          1.0000000000
      1100       367  TIP3  H1           -6.1355595352       11.9627751894       11.8588596433  CLST         367          1.0000000000
      1101       367  TIP3  H2           -5.4615096712       12.2922801591       13.1392385139  CLST         367          1.0000000000
      1102       368  TIP3  OH2          -2.7185641878        6.5670801376        1.0420955276  CLST         368          1.0000000000
      1103       368  TIP3  H1           -2.8123174787        7.4014499001        0.4369537729  CLST         368          1.0000000000
      1104       368  TIP3  H2           -3.1214032774        7.1130254479        1.8049421246  CLST         368          1.0000000000
      1105       369  TIP3  OH2         -11.5429381937       -1.6413063056       -6.4022602981  CLST         369          1.0000000000
      1106       369  TIP3  H1          -10.8514015935       -2.3245242210       -6.3204879445  CLST         369          1.0000000000
      1107       369  TIP3  H2          -11.8797251679       -1.9907432826       -7.2801687381  CLST         369          1.0000000000
      1108       370  TIP3  OH2         -12.1302032145        5.5679273505      -11.5994621395  CLST         370          1.0000000000
      1109       370  TIP3  H1          -12.3094810283        5.0085822095      -12.4329850492  CLST         370          1.0000000000
      1110       370  TIP3  H2          -12.9620514688        5.5552811975      -11.2709963531  CLST         370          1.0000000000
      1111       371  TIP3  OH2           2.2629081455        7.9403352135        5.7382599103  CLST         371          1.0000000000
      1112       371  TIP3  H1            2.4512876023        7.6590286777        6.6463177091  CLST         371          1.0000000000
      1113       371  TIP3  H2            3.0300192620        8.4742789318        5.5080125355  CLST         371          1.0000000000
      1114       372  TIP3  OH2           8.0949590187       -7.3625035336        9.1433187872  CLST         372          1.0000000000
      1115       372  TIP3  H1            8.7771058334       -7.5158391287        8.4754884425  CLST         372          1.0000000000
      1116       372  TIP3  H2            8.6717342451       -7.4971809561        9.9867159755  CLST         372          1.0000000000
      1117       373  TIP3  OH2          10.9841309573       -0.4152806080        6.4327205713  CLST         373          1.0000000000
      1118       373  TIP3  H1           11.4454589388        0.3317309790        6.0130339003  CLST         373          1.0000000000
      1119       373  TIP3  H2           10.1526225564       -0.1908058716        6.0079471371  CLST         373          1.0000000000
      1120       374  TIP3  OH2          -9.5463165165        4.7511555226      -12.1657069504  CLST         374          1.0000000000
      1121       374  TIP3  H1           -9.8321956875        5.2498746024      -12.9234718563  CLST         374          1.0000000000
      1122       374  TIP3  H2          -10.1547677523        5.1866810580      -11.5274252308  CLST         374          1.0000000000
      1123       375  TIP3  OH2           9.7145976508       -5.5731607680       -2.7249635062  CLST         375          1.0000000000
      1124       375  TIP3  H1           10.3100615776       -5.3123030494       -3.4779393117  CLST         375          1.0000000000
      1125       375  TIP3  H2           10.1015324954       -6.4755180623       -2.5416653997  CLST         375          1.0000000000
      1126       376  TIP3  OH2          -2.2108820306      -11.2247462193       12.0260783624  CLST         376          1.0000000000
      1127       376  TIP3  H1           -2.8386362099      -10.9645738543       12.7694087546  CLST         376          1.0000000000
      1128       376  TIP3  H2           -2.9108335973      -11.4673109185       11.3687703510  CLST         376          1.0000000000
      1129       377  TIP3  OH2         -10.1504259115       12.9878140724       10.5117836559  CLST         377          1.0000000000
      1130       377  TIP3  H1           -9.2611599548       12.6042169435       10.8037887325  CLST         377          1.0000000000
      1131       377  TIP3  H2           -9.9485145438       13.2788364961        9.6444430644  CLST         377          1.0000000000
      1132       378  TIP3  OH2           2.0582823418       -7.9442593520        7.3740220994  CLST         378          1.0000000000
      1133       378  TIP3  H1            2.3400856181       -7.0154448535        7.6030800500  CLST         378          1.0000000000
      1134       378  TIP3  H2            1.0882144982       -7.8737854201        7.5230228141  CLST         378          1.0000000000
      1135       379  TIP3  OH2          -9.5531807547        9.2980301471       -1.1867494905  CLST         379          1.0000000000
      1136       379  TIP3  H1           -8.9182589973        9.5792928896       -0.5113182163  CLST         379          1.0000000000
      1137       379  TIP3  H2           -9.8156922671       10.2073304192       -1.5494166982  CLST         379          1.0000000000
      1138       380  TIP3  OH2           2.9672111229       -4.1588164453      -11.1563217772  CLST         380          1.0000000000
      1139       380  TIP3  H1            2.4175613629       -3.4292725105      -11.6188315797  CLST         380          1.0000000000
      1140       380  TIP3  H2            3.2446559816       -4.6699460255      -11.9244407564  CLST         380          1.0000000000
      1141       381  TIP3  OH2          10.0908127165        4.3007131348        3.4699742695  CLST         381          1.0000000000
      1142       381  TIP3  H1            9.3067637229        4.7040877414        3.9075763470  CLST         381          1.0000000000
      1143       381  TIP3  H2           10.7157334893        5.0965601770        3.6195353157  CLST         381          1.0000000000
      1144       382  TIP3  OH2           1.8975166841       -5.3967222806        5.6668692521  CLST         382          1.0000000000
      1145       382  TIP3  H1            2.2980348448       -4.9984614090        6.4962740672  CLST         382          1.0000000000
      1146       382  TIP3  H2            2.7816853542       -5.7566078063        5.3096811870  CLST         382          1.0000000000
      1147       383  TIP3  OH2          10.2539502110        8.9103441806        4.6894996726  CLST         383          1.0000000000
      1148       383  TIP3  H1            9.3324728862        9.1524653105        4.4370521051  CLST         383          1.0000000000
      1149       383  TIP3  H2           10.5333234294        9.8804188485        4.7456499547  CLST         383          1.0000000000
      1150       384  TIP3  OH2          -3.4408003862       -1.5740667286       -8.1808764221  CLST         384          1.0000000000
      1151       384  TIP3  H1           -3.0553253104       -2.5179505078       -8.2055638787  CLST         384          1.0000000000
      1152       384  TIP3  H2           -2.6799228901       -1.2610221516       -7.6098619795  CLST         384          1.0000000000
      1153       385  TIP3  OH2           3.6285973283      -11.7094955021       -0.7753148060  CLST         385          1.0000000000
      1154       385  TIP3  H1            4.5700662086      -12.1225912005       -0.7760822068  CLST         385          1.0000000000
      1155       385  TIP3  H2            3.8198156331      -11.0072236959       -0.0748000879  CLST         385          1.0000000000
      1156       386  TIP3  OH2          -4.3313900823        9.2188348516       -6.1123931782  CLST         386          1.0000000000
      1157       386  TIP3  H1           -4.7458876772        8.4037278748       -6.5002196389  CLST         386          1.0000000000
      1158       386  TIP3  H2           -4.3585671494        9.6651918818       -6.9919792366  CLST         386          1.0000000000
      1159       387  TIP3  OH2          -9.8271253292       10.6369242766        2.7884090348  CLST         387          1.0000000000
      1160       387  TIP3  H1          -10.6279403539       10.6085070429        2.1721788938  CLST         387          1.0000000000
      1161       387  TIP3  H2           -9.2092172466       10.1926670132        2.1142381135  CLST         387          1.0000000000
      1162       388  TIP3  OH2          -1.6793543307      -12.3618737535        5.8248318797  CLST         388          1.0000000000
      1163       388  TIP3  H1           -2.0547867673      -11.5677792490        5.4201910180  CLST         388          1.0000000000
      1164       388  TIP3  H2           -1.7340869440      -12.1373848405        6.8131211537  CLST         388          1.0000000000
      1165       389  TIP3  OH2          -8.1802719276        3.4114499617       -3.6218912379  CLST         389          1.0000000000
      1166       389  TIP3  H1           -7.8659456578        4.2988032501       -3.2698604392  CLST         389          1.0000000000
      1167       389  TIP3  H2           -8.9795268687        3.7561290872       -4.0963948064  CLST         389          1.0000000000
      1168       390  TIP3  OH2          -5.9300871509       -3.9937685219        4.6153947945  CLST         390          1.0000000000
      1169       390  TIP3  H1           -5.3803845362       -3.1801947076        4.6132856051  CLST         390          1.0000000000
      1170       390  TIP3  H2           -5.4177700238       -4.6168548321        4.0550090662  CLST         390          1.0000000000
      1171       391  TIP3  OH2          -8.7171108318       -8.8584044883       -6.2610326862  CLST         391          1.0000000000
      1172       391  TIP3  H1           -9.3197723292       -9.3794231689       -6.8044874700  CLST         391          1.0000000000
      1173       391  TIP3  H2           -8.0790421218       -9.5466181468       -5.9312260551  CLST         391          1.0000000000
      1174       392  TIP3  OH2           0.9311083115       -2.1408963317       10.0913060785  CLST         392          1.0000000000
      1175       392  TIP3  H1            0.2491456244       -2.8362969726       10.2552984055  CLST         392          1.0000000000
      1176       392  TIP3  H2            0.2893087613       -1.4105198845        9.9051574515  CLST         392          1.0000000000
      1177       393  TIP3  OH2          10.9619866233      -11.8080130683       -0.8468566557  CLST         393          1.0000000000
      1178       393  TIP3  H1           11.2626813164      -10.8810628320       -0.6572535954  CLST         393          1.0000000000
      1179       393  TIP3  H2           11.8221205686      -12.1308002127       -1.1938046077  CLST         393          1.0000000000
      1180       394  TIP3  OH2           0.6827914100       11.7998480896       -8.5549010769  CLST         394          1.0000000000
      1181       394  TIP3  H1            1.4038604022       12.2012940172       -8.0573982545  CLST         394          1.0000000000
      1182       394  TIP3  H2            0.8365541698       10.8679099362       -8.2412090537  CLST         394          1.0000000000
      1183       395  TIP3  OH2           6.9427259045        7.5987237096       -4.4295034638  CLST         395          1.0000000000
      1184       395  TIP3  H1            5.9857890363        7.9780563849       -4.5382629817  CLST         395          1.0000000000
      1185       395  TIP3  H2            6.8477009363        7.1818357038       -5.3459844165  CLST         395          1.0000000000
      1186       396  TIP3  OH2          -1.0005777464      -10.0109822124       -9.1228264553  CLST         396          1.0000000000
      1187       396  TIP3  H1           -1.0053023768       -9.9467429106       -8.1310888831  CLST         396          1.0000000000
      1188       396  TIP3  H2           -0.1791722673       -9.3977246942       -9.2739009643  CLST         396          1.0000000000
      1189       397  TIP3  OH2          11.2150816188        7.0170653977       -8.9844294264  CLST         397          1.0000000000
      1190       397  TIP3  H1           11.6377968819        6.3782891716       -8.4060778948  CLST         397          1.0000000000
      1191       397  TIP3  H2           10.3809198744        7.2113877023       -8.4721224491  CLST         397          1.0000000000
      1192       398  TIP3  OH2          10.6324306471        7.8557692646       -4.8317618225  CLST         398          1.0000000000
      1193       398  TIP3  H1           10.1895247229        8.1792487771       -3.9657614103  CLST         398          1.0000000000
      1194       398  TIP3  H2           11.3682740357        7.4743836396       -4.2775814661  CLST         398          1.0000000000
      1195       399  TIP3  OH2           1.8913654144       11.0308463370        4.8425463233  CLST         399          1.0000000000
      1196       399  TIP3  H1            1.0483827713       11.2228646988        5.2816590913  CLST         399          1.0000000000
      1197       399  TIP3  H2            2.3664536474       10.7884453690        5.6463835389  CLST         399          1.0000000000
      1198       400  TIP3  OH2           4.0908065461       -2.8932845383       -5.0227549788  CLST         400          1.0000000000
      1199       400  TIP3  H1            4.9183807991       -2.7397133031       -4.5167118213  CLST         400          1.0000000000
      1200       400  TIP3  H2            4.4715141128       -3.3836491749       -5.7854864219  CLST         400          1.0000000000
      1201       401  TIP3  OH2         -14.8625794336       10.1781537477        5.4563402654  CLST         401          1.0000000000
      1202       401  TIP3  H1          -14.3169260430       10.4307806365        6.2564435203  CLST         401          1.0000000000
      1203       401  TIP3  H2          -15.6958996302       10.1570832378        5.8768347146  CLST         401          1.0000000000
      1204       402  TIP3  OH2           1.8177429786       -1.5599084516       12.8247069048  CLST         402          1.0000000000
      1205       402  TIP3  H1            1.3116895782       -2.4005652445       12.8119785207  CLST         402          1.0000000000
      1206       402  TIP3  H2            1.8551511260       -1.5496590560       11.8354448694  CLST         402          1.0000000000
      1207       403  TIP3  OH2          -2.0771112617       -6.9409243787       -0.8045747561  CLST         403          1.0000000000
      1208       403  TIP3  H1           -2.2198093880       -6.3673962749       -1.5044209392  CLST         403          1.0000000000
      1209       403  TIP3  H2           -1.9089059147       -7.8450148231       -1.1945570118  CLST         403          1.0000000000
      1210       404  TIP3  OH2          -4.8701246065       -2.4228890989        9.1661394283  CLST         404          1.0000000000
      1211       404  TIP3  H1           -5.2997044016       -2.4911923770       10.0231145712  CLST         404          1.0000000000
      1212       404  TIP3  H2           -5.1923756272       -3.2229030378        8.6293545426  CLST         404          1.0000000000
      1213       405  TIP3  OH2         -11.7836944199        7.1981482095       11.3133651483  CLST         405          1.0000000000
      1214       405  TIP3  H1          -11.5918757409        6.3638867606       10.8838662818  CLST         405          1.0000000000
      1215       405  TIP3  H2          -12.7142502609        7.0386098562       11.4498367429  CLST         405          1.0000000000
      1216       406  TIP3  OH2           1.0450167199        7.7666351632      -12.0923643894  CLST         406          1.0000000000
      1217       406  TIP3  H1            1.1548890016        8.6974891269      -12.3405889881  CLST         406          1.0000000000
      1218       406  TIP3  H2            1.6065678992        7.7292874491      -11.3119649294  CLST         406          1.0000000000
      1219       407  TIP3  OH2          10.4075209233      -13.3118727501        5.1553027389  CLST         407          1.0000000000
      1220       407  TIP3  H1           10.6033900894      -13.1881114352        4.1976720718  CLST         407          1.0000000000
      1221       407  TIP3  H2           11.1333979153      -12.6506086067        5.4284136781  CLST         407          1.0000000000
      1222       408  TIP3  OH2          -3.0299710372      -11.6817135128        1.8867504208  CLST         408          1.0000000000
      1223       408  TIP3  H1           -2.3069481776      -10.9697220918        1.8542132769  CLST         408          1.0000000000
      1224       408  TIP3  H2           -2.4557485663      -12.4423952481        2.1921085426  CLST         408          1.0000000000
      1225       409  TIP3  OH2           0.9318788274       -9.7051725168        9.7271504767  CLST         409          1.0000000000
      1226       409  TIP3  H1            0.4380057685       -9.6417040918       10.6113362359  CLST         409          1.0000000000
      1227       409  TIP3  H2            1.3856030477      -10.5463750445        9.9322996885  CLST         409          1.0000000000
      1228       410  TIP3  OH2           9.8635356149       -7.0551710360       -5.2968107867  CLST         410          1.0000000000
      1229       410  TIP3  H1            9.0741378068       -6.6899631506       -5.7638989467  CLST         410          1.0000000000
      1230       410  TIP3  H2           10.4606917838       -6.2690702007       -5.5191218871  CLST         410          1.0000000000
      1231       411  TIP3  OH2         -10.1204139077       -2.3121404751       -1.2977520652  CLST         411          1.0000000000
      1232       411  TIP3  H1           -9.4446534149       -2.1583833075       -0.6523687087  CLST         411          1.0000000000
      1233       411  TIP3  H2           -9.5637211910       -2.6821160373       -2.0209718587  CLST         411          1.0000000000
      1234       412  TIP3  OH2           6.7112120349      -10.4733308869      -12.0368233385  CLST         412          1.0000000000
      1235       412  TIP3  H1            6.1233483358      -10.9223399631      -11.4092675929  CLST         412          1.0000000000
      1236       412  TIP3  H2            7.5133727781      -11.0776519205      -11.9280159753  CLST         412          1.0000000000
      1237       413  TIP3  OH2           6.9969860121       12.9880930708        0.4264747438  CLST         413          1.0000000000
      1238       413  TIP3  H1            7.6152392473       12.5971977016       -0.2523908247  CLST         413          1.0000000000
      1239       413  TIP3  H2            7.6680042493       13.4974843477        0.9538365986  CLST         413          1.0000000000
      1240       414  TIP3  OH2           1.4097345452       -2.4716367747      -12.3736627790  CLST         414          1.0000000000
      1241       414  TIP3  H1            0.5442837271       -2.0160949319      -12.1955191355  CLST         414          1.0000000000
      1242       414  TIP3  H2            1.5653746144       -2.4990708612      -13.3174154686  CLST         414          1.0000000000
      1243       415  TIP3  OH2           4.1332438083        5.2365216815       -8.2373110486  CLST         415          1.0000000000
      1244       415  TIP3  H1            3.5760695048        4.4050384095       -8.0779789698  CLST         415          1.0000000000
      1245       415  TIP3  H2            4.6517964049        4.7781278523       -8.9668667540  CLST         415          1.0000000000
      1246       416  TIP3  OH2           5.5266333168       12.4454650367       -7.7967085972  CLST         416          1.0000000000
      1247       416  TIP3  H1            5.2589749439       13.1203058619       -8.3703207349  CLST         416          1.0000000000
      1248       416  TIP3  H2            6.3441305350       12.1620506164       -8.2735000877  CLST         416          1.0000000000
      1249       417  TIP3  OH2          12.6612981103      -11.1898165722        2.7811233398  CLST         417          1.0000000000
      1250       417  TIP3  H1           12.0837970859      -11.8164487727        2.3457662321  CLST         417          1.0000000000
      1251       417  TIP3  H2           12.6084317950      -10.4017206064        2.1845240229  CLST         417          1.0000000000
      1252       418  TIP3  OH2          -9.1666421248       -1.6393970735        8.3526772648  CLST         418          1.0000000000
      1253       418  TIP3  H1           -8.6256176592       -1.1014572703        7.7296417471  CLST         418          1.0000000000
      1254       418  TIP3  H2           -9.4260062206       -0.9408405828        8.9597462514  CLST         418          1.0000000000
      1255       419  TIP3  OH2          14.8418240948        0.3172501222       -6.2859478517  CLST         419          1.0000000000
      1256       419  TIP3  H1           14.8061727240        1.4344624495       -4.8596704898  CLST         419          1.0000000000
      1257       419  TIP3  H2           15.6939237251        0.1912258048       -6.7421954246  CLST         419          1.0000000000
      1258       420  TIP3  OH2          -8.1854552597       -8.2025308996        3.4920646804  CLST         420          1.0000000000
      1259       420  TIP3  H1           -9.0378442057       -8.0043649226        2.9797530565  CLST         420          1.0000000000
      1260       420  TIP3  H2           -8.3484130837       -9.1622529432        3.6767868893  CLST         420          1.0000000000
      1261       421  TIP3  OH2           3.4216096672       -6.1973853548      -13.3967091341  CLST         421          1.0000000000
      1262       421  TIP3  H1            4.3398126696       -6.5264454335      -13.2934760443  CLST         421          1.0000000000
      1263       421  TIP3  H2            3.0041738675       -7.1164032374      -13.4522450140  CLST         421          1.0000000000
      1264       422  TIP3  OH2          -1.8194183668       -9.4440312366       -1.6141810178  CLST         422          1.0000000000
      1265       422  TIP3  H1           -1.0929563520      -10.0799176050       -1.7176177140  CLST         422          1.0000000000
      1266       422  TIP3  H2           -2.5476330744      -10.0875341506       -1.6497429940  CLST         422          1.0000000000
      1267       423  TIP3  OH2           1.6715553702        4.9763239805       -4.1270058938  CLST         423          1.0000000000
      1268       423  TIP3  H1            2.4430059923        5.4667359584       -4.5183491994  CLST         423          1.0000000000
      1269       423  TIP3  H2            1.9652532795        4.9062692320       -3.1954626740  CLST         423          1.0000000000
      1270       424  TIP3  OH2          -9.0148498591        4.4127195311        4.2514687482  CLST         424          1.0000000000
      1271       424  TIP3  H1           -8.8421634170        3.7920556696        3.5206142867  CLST         424          1.0000000000
      1272       424  TIP3  H2           -8.3702001320        5.0965956514        4.1039707037  CLST         424          1.0000000000
      1273       425  TIP3  OH2           8.1045993279      -12.8791979589        8.4597909859  CLST         425          1.0000000000
      1274       425  TIP3  H1            8.4653868354      -12.4543101347        7.6658795378  CLST         425          1.0000000000
      1275       425  TIP3  H2            7.4740600795      -12.1839151491        8.7160270577  CLST         425          1.0000000000
      1276       426  TIP3  OH2           8.3110372118        2.3521095530        8.2739955438  CLST         426          1.0000000000
      1277       426  TIP3  H1            9.0091836466        2.3968513036        8.9756161846  CLST         426          1.0000000000
      1278       426  TIP3  H2            8.3928414747        3.2776155140        7.9036650491  CLST         426          1.0000000000
      1279       427  TIP3  OH2          11.5954052715        7.4625891836       11.0463244068  CLST         427          1.0000000000
      1280       427  TIP3  H1           11.6839580680        8.0043120833       11.8440925033  CLST         427          1.0000000000
      1281       427  TIP3  H2           10.7187456021        7.0489094068       11.0893736378  CLST         427          1.0000000000
      1282       428  TIP3  OH2          12.4712585396        7.5712264912        1.1299905841  CLST         428          1.0000000000
      1283       428  TIP3  H1           12.2883560868        7.7567297133        0.1277753042  CLST         428          1.0000000000
      1284       428  TIP3  H2           13.3780472387        7.7676668648        1.1165719123  CLST         428          1.0000000000
      1285       429  TIP3  OH2          11.7803914204       -9.8320888339       -0.8870006044  CLST         429          1.0000000000
      1286       429  TIP3  H1           12.2755689886       -9.4235430716       -0.0285058680  CLST         429          1.0000000000
      1287       429  TIP3  H2           11.1934537490       -9.1653066489       -1.3413637048  CLST         429          1.0000000000
      1288       430  TIP3  OH2           9.7744579949       -6.7770960601        3.6438008295  CLST         430          1.0000000000
      1289       430  TIP3  H1            9.6724954807       -7.1739737759        2.7167363272  CLST         430          1.0000000000
      1290       430  TIP3  H2           10.7588293252       -6.6993050583        3.5973788380  CLST         430          1.0000000000
      1291       431  TIP3  OH2         -12.7468160180        9.4277236296       -2.5033765607  CLST         431          1.0000000000
      1292       431  TIP3  H1          -13.4210444795        9.4378007854       -3.1298586200  CLST         431          1.0000000000
      1293       431  TIP3  H2          -13.3424647333        9.4904694759       -1.6602120560  CLST         431          1.0000000000
      1294       432  TIP3  OH2           5.4067132136        8.4673579729      -10.0322381724  CLST         432          1.0000000000
      1295       432  TIP3  H1            5.8667164641        8.5680699684       -9.1270445596  CLST         432          1.0000000000
      1296       432  TIP3  H2            4.7568077356        9.1680467206       -9.7478713770  CLST         432          1.0000000000
      1297       433  TIP3  OH2          -0.7382707664        8.0876671900        7.6788847125  CLST         433          1.0000000000
      1298       433  TIP3  H1           -1.5617777992        8.3434952049        8.0900035763  CLST         433          1.0000000000
      1299       433  TIP3  H2           -0.9405480781        7.2831744633        7.1765296472  CLST         433          1.0000000000
      1300       434  TIP3  OH2          -7.3694623201        0.6202897548        3.6693340749  CLST         434          1.0000000000
      1301       434  TIP3  H1           -7.6591135163        1.3623556878        3.1050707050  CLST         434          1.0000000000
      1302       434  TIP3  H2           -8.1586297889       -0.0182037996        3.5093832148  CLST         434          1.0000000000
      1303       435  TIP3  OH2           9.9362607275       -0.4940592577       -7.2542453479  CLST         435          1.0000000000
      1304       435  TIP3  H1            9.5345133918       -0.4222321668       -6.3401217429  CLST         435          1.0000000000
      1305       435  TIP3  H2            9.7281664364        0.4058413568       -7.5323319541  CLST         435          1.0000000000
      1306       436  TIP3  OH2           3.8424781629       10.3673303103       -8.9709605568  CLST         436          1.0000000000
      1307       436  TIP3  H1            3.9468039277       11.2361987363       -8.5290302930  CLST         436          1.0000000000
      1308       436  TIP3  H2            2.8844924389       10.1824959559       -8.9142303473  CLST         436          1.0000000000
      1309       437  TIP3  OH2          -8.4359941065       -0.8387327567       -8.0083502930  CLST         437          1.0000000000
      1310       437  TIP3  H1           -8.6590041944       -0.3875871795       -8.8642065130  CLST         437          1.0000000000
      1311       437  TIP3  H2           -7.4542678174       -0.7195494200       -8.0242552727  CLST         437          1.0000000000
      1312       438  TIP3  OH2          -3.2746898971        5.4677632030       -8.0651544223  CLST         438          1.0000000000
      1313       438  TIP3  H1           -4.0503379901        6.0807528726       -7.8061350265  CLST         438          1.0000000000
      1314       438  TIP3  H2           -3.5875241615        5.5069096043       -9.0312967562  CLST         438          1.0000000000
      1315       439  TIP3  OH2          14.2196873382        1.6359444047       -4.0232519561  CLST         439          1.0000000000
      1316       439  TIP3  H1           13.7424581575        2.4906396077       -4.1076673739  CLST         439          1.0000000000
      1317       439  TIP3  H2           13.7101768533        1.3447329712       -3.2038563695  CLST         439          1.0000000000
      1318       440  TIP3  OH2           1.1329072719      -12.9343329288      -11.1224338236  CLST         440          1.0000000000
      1319       440  TIP3  H1            0.1377660520      -12.6493142880      -11.2279601493  CLST         440          1.0000000000
      1320       440  TIP3  H2            1.1268119750      -13.8349096633      -11.3234799606  CLST         440          1.0000000000
      1321       441  TIP3  OH2          -1.6514349219       -4.3911453760        3.0848333223  CLST         441          1.0000000000
      1322       441  TIP3  H1           -1.9200726448       -3.5393065024        3.3274468164  CLST         441          1.0000000000
      1323       441  TIP3  H2           -1.2217679672       -4.7855355619        3.9170015267  CLST         441          1.0000000000
      1324       442  TIP3  OH2           3.3132009755       -9.8021698387       -8.0517190638  CLST         442          1.0000000000
      1325       442  TIP3  H1            3.7389659275      -10.3861600268       -8.7291761767  CLST         442          1.0000000000
      1326       442  TIP3  H2            2.4764612431       -9.5113768613       -8.4853737158  CLST         442          1.0000000000
      1327       443  TIP3  OH2           1.2993765185       10.3641584375      -12.9162970477  CLST         443          1.0000000000
      1328       443  TIP3  H1            1.3894682477       10.9752423426      -12.1392312735  CLST         443          1.0000000000
      1329       443  TIP3  H2            2.0320705474       10.6949182700      -13.3994456106  CLST         443          1.0000000000
      1330       444  TIP3  OH2          -7.9806450777        1.3706998178       -1.8572505043  CLST         444          1.0000000000
      1331       444  TIP3  H1           -7.9304550679        2.0735579743       -2.5702676083  CLST         444          1.0000000000
      1332       444  TIP3  H2           -7.5492036662        2.0124649290       -1.2226804915  CLST         444          1.0000000000
      1333       445  TIP3  OH2         -11.6059423994       -5.3190990293        6.2224249029  CLST         445          1.0000000000
      1334       445  TIP3  H1          -11.3326288170       -4.3783826810        5.9033349303  CLST         445          1.0000000000
      1335       445  TIP3  H2          -11.7062449781       -4.9985218657        7.1486769716  CLST         445          1.0000000000
      1336       446  TIP3  OH2          -2.9230317809        4.7900182366       -5.4075224467  CLST         446          1.0000000000
      1337       446  TIP3  H1           -3.2446665538        4.9594150093       -6.3285596772  CLST         446          1.0000000000
      1338       446  TIP3  H2           -1.9592513387        5.1254470717       -5.5057970047  CLST         446          1.0000000000
      1339       447  TIP3  OH2          -5.1288098512      -12.7088700100       -3.8099369649  CLST         447          1.0000000000
      1340       447  TIP3  H1           -5.3734708498      -13.3708744646       -3.1250637692  CLST         447          1.0000000000
      1341       447  TIP3  H2           -4.6806926389      -12.1257402508       -3.1138159002  CLST         447          1.0000000000
      1342       448  TIP3  OH2           7.3614101328        9.6160791152        4.7009817800  CLST         448          1.0000000000
      1343       448  TIP3  H1            7.5967863081        9.7442576753        5.6856118885  CLST         448          1.0000000000
      1344       448  TIP3  H2            6.4838645526       10.0840053123        4.7590865433  CLST         448          1.0000000000
      1345       449  TIP3  OH2           4.3807749340        5.1716493763        8.6976018104  CLST         449          1.0000000000
      1346       449  TIP3  H1            5.1153467433        4.5726674104        9.1002966063  CLST         449          1.0000000000
      1347       449  TIP3  H2            3.8603159619        4.5584600034        8.1708260260  CLST         449          1.0000000000
      1348       450  TIP3  OH2          -4.0228109140        0.4615417297       -1.9477210251  CLST         450          1.0000000000
      1349       450  TIP3  H1           -3.6808450352        1.1462021909       -2.5511457626  CLST         450          1.0000000000
      1350       450  TIP3  H2           -3.2042416212       -0.0119664455       -1.7576064899  CLST         450          1.0000000000
      1351       451  TIP3  OH2          13.6457726396       -1.8949833292       -5.6573734428  CLST         451          1.0000000000
      1352       451  TIP3  H1           14.5187599947       -2.0866255997       -5.3225660880  CLST         451          1.0000000000
      1353       451  TIP3  H2           14.3615670743       -0.2734248033       -6.1067506320  CLST         451          1.0000000000
      1354       452  TIP3  OH2           8.4774000914        4.8991823653        8.0207655055  CLST         452          1.0000000000
      1355       452  TIP3  H1            7.5718746231        5.3318347447        7.8251326827  CLST         452          1.0000000000
      1356       452  TIP3  H2            9.0112560593        5.4463064891        7.4012174219  CLST         452          1.0000000000
      1357       453  TIP3  OH2           7.0084376782        2.7591031982       -6.0823820725  CLST         453          1.0000000000
      1358       453  TIP3  H1            6.3594689438        2.3285387079       -5.5294706438  CLST         453          1.0000000000
      1359       453  TIP3  H2            6.4751676022        3.0136335066       -6.8587858717  CLST         453          1.0000000000
      1360       454  TIP3  OH2           1.2629360640        5.4054269264        1.9530296602  CLST         454          1.0000000000
      1361       454  TIP3  H1            0.4392110742        5.0230226821        1.5588717221  CLST         454          1.0000000000
      1362       454  TIP3  H2            0.9123388735        6.1272564210        2.5043445403  CLST         454          1.0000000000
      1363       455  TIP3  OH2          -1.3020748314        0.7868952826      -10.2692864922  CLST         455          1.0000000000
      1364       455  TIP3  H1           -1.5160900713        1.1427468796       -9.3683187156  CLST         455          1.0000000000
      1365       455  TIP3  H2           -1.0329042075        1.7137163911      -10.6195888576  CLST         455          1.0000000000
      1366       456  TIP3  OH2           5.2635671659       11.1828470974        5.1863527678  CLST         456          1.0000000000
      1367       456  TIP3  H1            4.7501757964       11.7100588230        4.5199667760  CLST         456          1.0000000000
      1368       456  TIP3  H2            4.5598997891       10.9228766533        5.8210622535  CLST         456          1.0000000000
      1369       457  TIP3  OH2          -4.8843203769       -7.7284202885        4.8921676293  CLST         457          1.0000000000
      1370       457  TIP3  H1           -5.6968381957       -7.5886547405        5.3725014974  CLST         457          1.0000000000
      1371       457  TIP3  H2           -5.1253268996       -7.4208769488        4.0000541992  CLST         457          1.0000000000
      1372       458  TIP3  OH2           8.0261107480       -6.5868861519      -11.2359424426  CLST         458          1.0000000000
      1373       458  TIP3  H1            9.0397783995       -6.3686357030      -11.3714033130  CLST         458          1.0000000000
      1374       458  TIP3  H2            7.8206144053       -5.7069812064      -10.8352329017  CLST         458          1.0000000000
      1375       459  TIP3  OH2           6.5997105871       -9.8450487053       -7.7445625966  CLST         459          1.0000000000
      1376       459  TIP3  H1            6.1320081117       -9.0194953028       -7.5947294499  CLST         459          1.0000000000
      1377       459  TIP3  H2            7.4349473139       -9.4343614150       -8.1923331675  CLST         459          1.0000000000
      1378       460  TIP3  OH2           9.1205370824       -2.1361224779       -2.7772178186  CLST         460          1.0000000000
      1379       460  TIP3  H1            9.5547062378       -2.7765219375       -2.2018826503  CLST         460          1.0000000000
      1380       460  TIP3  H2            9.8338976385       -1.8583771775       -3.3760339875  CLST         460          1.0000000000
      1381       461  TIP3  OH2          -1.4128246290      -12.8811142688       -5.4329526093  CLST         461          1.0000000000
      1382       461  TIP3  H1           -0.6934296609      -13.2890840195       -6.0384235687  CLST         461          1.0000000000
      1383       461  TIP3  H2           -1.0409578968      -13.1859710658       -4.5348864035  CLST         461          1.0000000000
      1384       462  TIP3  OH2           0.0400576967        5.4993487640      -12.6773926460  CLST         462          1.0000000000
      1385       462  TIP3  H1            0.3085220319        6.4618345273      -12.4383544470  CLST         462          1.0000000000
      1386       462  TIP3  H2            0.6895236155        5.3324412696      -13.3151039570  CLST         462          1.0000000000
      1387       463  TIP3  OH2          -1.7889606605        1.8916899427       -7.8968355627  CLST         463          1.0000000000
      1388       463  TIP3  H1           -1.4857618906        1.1299147027       -7.3469855176  CLST         463          1.0000000000
      1389       463  TIP3  H2           -2.7441944148        1.8953646752       -7.5793883872  CLST         463          1.0000000000
      1390       464  TIP3  OH2          -6.5219032811        6.1687296189        4.2532978554  CLST         464          1.0000000000
      1391       464  TIP3  H1           -5.9122560129        5.6907895890        4.8050630815  CLST         464          1.0000000000
      1392       464  TIP3  H2           -6.7181489964        6.9385138784        4.8363373366  CLST         464          1.0000000000
      1393       465  TIP3  OH2          -4.5921507614      -12.4662256602        6.3605649553  CLST         465          1.0000000000
      1394       465  TIP3  H1           -3.8236191048      -13.0208698256        6.1342815407  CLST         465          1.0000000000
      1395       465  TIP3  H2           -4.0901973490      -11.5796122231        6.1344030847  CLST         465          1.0000000000
      1396       466  TIP3  OH2          -2.4405362623        9.1889952636       -4.1736947020  CLST         466          1.0000000000
      1397       466  TIP3  H1           -3.1781932416        9.1753723759       -4.8426963126  CLST         466          1.0000000000
      1398       466  TIP3  H2           -2.6887883702        9.9002301878       -3.5573347287  CLST         466          1.0000000000
      1399       467  TIP3  OH2           8.2730842017        5.8856390152        4.6151989455  CLST         467          1.0000000000
      1400       467  TIP3  H1            8.7000115154        6.3579962633        5.3706127845  CLST         467          1.0000000000
      1401       467  TIP3  H2            8.2042108670        6.6633380273        4.0030267973  CLST         467          1.0000000000
      1402       468  TIP3  OH2          -0.5713303917      -12.3219288376       10.2836037527  CLST         468          1.0000000000
      1403       468  TIP3  H1           -1.0566781395      -12.1492875457       11.1063461838  CLST         468          1.0000000000
      1404       468  TIP3  H2            0.3134217390      -12.4747038820       10.5857457824  CLST         468          1.0000000000
      1405       469  TIP3  OH2           5.4768134978        8.3181561125       14.1140743303  CLST         469          1.0000000000
      1406       469  TIP3  H1            6.1748324615        8.4703938808       13.4511248598  CLST         469          1.0000000000
      1407       469  TIP3  H2            4.7513547932        8.7969346880       13.9492688755  CLST         469          1.0000000000
      1408       470  TIP3  OH2         -11.2452565242       12.8779944075        0.8074683218  CLST         470          1.0000000000
      1409       470  TIP3  H1          -11.0419123708       12.8215672938       -0.1584756405  CLST         470          1.0000000000
      1410       470  TIP3  H2          -11.7844893728       12.0556271631        0.9774679900  CLST         470          1.0000000000
      1411       471  TIP3  OH2          -4.1464571414        9.7458477049       -9.0713819258  CLST         471          1.0000000000
      1412       471  TIP3  H1           -3.8176437938        8.7942630905       -9.1865021307  CLST         471          1.0000000000
      1413       471  TIP3  H2           -4.4962148889        9.8819421230      -10.0314363290  CLST         471          1.0000000000
      1414       472  TIP3  OH2         -11.8449417675        3.8628691227        2.9054518435  CLST         472          1.0000000000
      1415       472  TIP3  H1          -12.3575253485        3.0296308422        3.0475146010  CLST         472          1.0000000000
      1416       472  TIP3  H2          -11.2549838285        3.4814172071        2.2299144588  CLST         472          1.0000000000
      1417       473  TIP3  OH2           5.5198195463        0.9108730121       10.1400608654  CLST         473          1.0000000000
      1418       473  TIP3  H1            6.0595164075        1.7323641310       10.2298261867  CLST         473          1.0000000000
      1419       473  TIP3  H2            4.6264573496        1.2279998749       10.0393527868  CLST         473          1.0000000000
      1420       474  TIP3  OH2           1.4572258025        1.6753782111        1.5115327381  CLST         474          1.0000000000
      1421       474  TIP3  H1            0.4993675152        1.6167443365        1.3277763122  CLST         474          1.0000000000
      1422       474  TIP3  H2            1.7858812351        1.0491932623        0.8584226321  CLST         474          1.0000000000
      1423       475  TIP3  OH2           6.1178676642       -8.6223417436       11.9296076299  CLST         475          1.0000000000
      1424       475  TIP3  H1            7.0407708771       -8.6586797551       12.1563706323  CLST         475          1.0000000000
      1425       475  TIP3  H2            6.0191570503       -8.8939847906       10.9876423781  CLST         475          1.0000000000
      1426       476  TIP3  OH2         -11.6538125344       -8.9757832617       -0.0908134225  CLST         476          1.0000000000
      1427       476  TIP3  H1          -11.8628187082       -8.0754729970       -0.5487486880  CLST         476          1.0000000000
      1428       476  TIP3  H2          -11.1112830924       -9.2438332233       -0.8587188492  CLST         476          1.0000000000
      1429       477  TIP3  OH2         -12.5636293923        3.7550760321      -13.5300396582  CLST         477          1.0000000000
      1430       477  TIP3  H1          -12.7047693561        2.8362341978      -13.2313634503  CLST         477          1.0000000000
      1431       477  TIP3  H2          -12.0045698511        3.4877910266      -14.2866485959  CLST         477          1.0000000000
      1432       478  TIP3  OH2          -3.9039425863        6.5379687498      -10.7608016016  CLST         478          1.0000000000
      1433       478  TIP3  H1           -4.4244916924        6.1088534700      -11.4825297721  CLST         478          1.0000000000
      1434       478  TIP3  H2           -3.4291093281        7.2154488985      -11.2440074250  CLST         478          1.0000000000
      1435       479  TIP3  OH2           7.7327717249       -1.5126954994       -8.6770183164  CLST         479          1.0000000000
      1436       479  TIP3  H1            8.6089285185       -1.1677703612       -8.4825423353  CLST         479          1.0000000000
      1437       479  TIP3  H2            7.3177011221       -1.3664769094       -7.8079601043  CLST         479          1.0000000000
      1438       480  TIP3  OH2          -6.1024894234        7.6268783830       -0.1915025578  CLST         480          1.0000000000
      1439       480  TIP3  H1           -5.2498662836        8.1253878319       -0.0715254970  CLST         480          1.0000000000
      1440       480  TIP3  H2           -5.7383727603        6.7454916736       -0.0221704941  CLST         480          1.0000000000
      1441       481  TIP3  OH2          -3.1220996967        2.3378184166       11.8853799861  CLST         481          1.0000000000
      1442       481  TIP3  H1           -2.1550164307        2.3776120953       11.9100490180  CLST         481          1.0000000000
      1443       481  TIP3  H2           -3.4777373073        1.9435594600       12.5780339398  CLST         481          1.0000000000
      1444       482  TIP3  OH2          -8.0006057203       11.6683914902       -7.5575023373  CLST         482          1.0000000000
      1445       482  TIP3  H1           -8.6385994815       11.3156470787       -8.1945609527  CLST         482          1.0000000000
      1446       482  TIP3  H2           -7.3411010451       12.0834988334       -8.1836707855  CLST         482          1.0000000000
      1447       483  TIP3  OH2           6.3591429547       -5.8218402046       12.6989193384  CLST         483          1.0000000000
      1448       483  TIP3  H1            5.7572535833       -6.5612842693       12.5343814030  CLST         483          1.0000000000
      1449       483  TIP3  H2            6.4899971856       -5.4990768182       11.7980658658  CLST         483          1.0000000000
      1450       484  TIP3  OH2           6.8737008938       -2.9362506262        2.9138306656  CLST         484          1.0000000000
      1451       484  TIP3  H1            5.9226990955       -3.1745460668        2.7820367221  CLST         484          1.0000000000
      1452       484  TIP3  H2            6.6927437125       -2.2797603053        3.6491908897  CLST         484          1.0000000000
      1453       485  TIP3  OH2         -11.7091198961        4.5092369593       10.0865817682  CLST         485          1.0000000000
      1454       485  TIP3  H1          -11.3545539733        3.5394352592       10.1471350385  CLST         485          1.0000000000
      1455       485  TIP3  H2          -12.3605611902        4.3231579898        9.3537836218  CLST         485          1.0000000000
      1456       486  TIP3  OH2           8.4072733266       -7.3080583756       13.6865357140  CLST         486          1.0000000000
      1457       486  TIP3  H1            8.7064840976       -7.2959409609       14.5102449898  CLST         486          1.0000000000
      1458       486  TIP3  H2            7.6990244442       -6.5900843177       13.6084579709  CLST         486          1.0000000000
      1459       487  TIP3  OH2          12.1731863216       -8.5480014054        6.1427296631  CLST         487          1.0000000000
      1460       487  TIP3  H1           11.1700244761       -8.4130609533        6.2819746474  CLST         487          1.0000000000
      1461       487  TIP3  H2           12.4688978617       -8.6813974564        7.0581750093  CLST         487          1.0000000000
      1462       488  TIP3  OH2          15.0272602433        8.4629091519        7.6525420046  CLST         488          1.0000000000
      1463       488  TIP3  H1           15.6958996302        7.8224954389        7.7718800745  CLST         488          1.0000000000
      1464       488  TIP3  H2           14.2251102299        7.9009152962        7.9752887802  CLST         488          1.0000000000
      1465       489  TIP3  OH2          -6.1048489364      -10.9116452533       11.8976513621  CLST         489          1.0000000000
      1466       489  TIP3  H1           -5.9458842331      -10.1100018677       11.4211928554  CLST         489          1.0000000000
      1467       489  TIP3  H2           -6.8326589323      -11.2594542494       11.2263760457  CLST         489          1.0000000000
      1468       490  TIP3  OH2           6.9049355347      -13.1068407543        2.4369768162  CLST         490          1.0000000000
      1469       490  TIP3  H1            6.8277941939      -12.2062618477        2.7924861718  CLST         490          1.0000000000
      1470       490  TIP3  H2            7.0347373811      -13.7013822655        3.1587204147  CLST         490          1.0000000000
      1471       491  TIP3  OH2           3.0008410266       -9.2718458586        5.0176538729  CLST         491          1.0000000000
      1472       491  TIP3  H1            2.1136686337       -9.1353211071        5.3955681254  CLST         491          1.0000000000
      1473       491  TIP3  H2            2.7491289828       -9.5832320440        4.1225787048  CLST         491          1.0000000000
      1474       492  TIP3  OH2          -0.6448322775       -6.5845318045       12.2478090316  CLST         492          1.0000000000
      1475       492  TIP3  H1           -0.5742947562       -7.5448369313       12.2287719811  CLST         492          1.0000000000
      1476       492  TIP3  H2           -1.5560161380       -6.4677652910       11.9495599629  CLST         492          1.0000000000
      1477       493  TIP3  OH2           3.3701587458       10.5466154251        7.0355177274  CLST         493          1.0000000000
      1478       493  TIP3  H1            4.0376250979       10.7839622354        7.7644255912  CLST         493          1.0000000000
      1479       493  TIP3  H2            2.6000450181       10.1732792168        7.6399113750  CLST         493          1.0000000000
      1480       494  TIP3  OH2          -9.2072188769        5.3880490110       -0.8049377618  CLST         494          1.0000000000
      1481       494  TIP3  H1           -9.5202274147        6.0395895186       -1.4354408985  CLST         494          1.0000000000
      1482       494  TIP3  H2           -9.7857574374        5.5664586535       -0.0209950197  CLST         494          1.0000000000
      1483       495  TIP3  OH2           4.9252067629       -6.7698171606       -2.0294349651  CLST         495          1.0000000000
      1484       495  TIP3  H1            5.4629295298       -6.2590557106       -2.6883136691  CLST         495          1.0000000000
      1485       495  TIP3  H2            5.7524955858       -7.2664889687       -1.7905979560  CLST         495          1.0000000000
      1486       496  TIP3  OH2         -12.7924866233      -10.7257624825        7.6525608766  CLST         496          1.0000000000
      1487       496  TIP3  H1          -13.5866221228      -11.2246454747        7.6019225383  CLST         496          1.0000000000
      1488       496  TIP3  H2          -12.3370644474      -11.3225676530        7.0118738798  CLST         496          1.0000000000
      1489       497  TIP3  OH2          -9.7134160459      -13.4050917072       -7.2566965789  CLST         497          1.0000000000
      1490       497  TIP3  H1           -9.8294358526      -14.0862419374       -7.9169662435  CLST         497          1.0000000000
      1491       497  TIP3  H2          -10.2894948997      -12.8245803029       -7.6441987868  CLST         497          1.0000000000
      1492       498  TIP3  OH2          -5.6494562664        0.4853200883      -11.1120316616  CLST         498          1.0000000000
      1493       498  TIP3  H1           -6.0169352119        0.3587666470      -12.0108411909  CLST         498          1.0000000000
      1494       498  TIP3  H2           -5.4008441807        1.4303246364      -11.0804174183  CLST         498          1.0000000000
      1495       499  TIP3  OH2          11.6524454555        6.6111545754        3.5139721647  CLST         499          1.0000000000
      1496       499  TIP3  H1           12.1822151545        6.9191179881        2.7666147796  CLST         499          1.0000000000
      1497       499  TIP3  H2           11.1669360691        7.4431928488        3.7261710210  CLST         499          1.0000000000
      1498       500  TIP3  OH2           2.4456606401       -8.7512205593      -13.1828168745  CLST         500          1.0000000000
      1499       500  TIP3  H1            2.1651326194       -9.0329619947      -13.9722185150  CLST         500          1.0000000000
      1500       500  TIP3  H2            2.5189055615       -9.5817918907      -12.5996903413  CLST         500          1.0000000000
      1501       501  TIP3  OH2           1.3583051744      -10.8654068244       14.0135396058  CLST         501          1.0000000000
      1502       501  TIP3  H1            1.4953330136      -11.8285268367       14.1617900653  CLST         501          1.0000000000
      1503       501  TIP3  H2            2.3106472958      -10.6945541879       13.8573418914  CLST         501          1.0000000000
      1504       502  TIP3  OH2           6.2484163665        3.7550043009        9.7087543094  CLST         502          1.0000000000
      1505       502  TIP3  H1            6.6424523041        4.1594469655       10.5221395068  CLST         502          1.0000000000
      1506       502  TIP3  H2            7.0760200802        3.4786262328        9.2423179692  CLST         502          1.0000000000
      1507       503  TIP3  OH2          10.3290093851       -0.8682253122        0.3172175864  CLST         503          1.0000000000
      1508       503  TIP3  H1           11.2708698530       -0.6468888945        0.4842750105  CLST         503          1.0000000000
      1509       503  TIP3  H2           10.1974905139       -0.1530666294       -0.3153333136  CLST         503          1.0000000000
      1510       504  TIP3  OH2           8.3201858272      -13.6645677162       10.7002185071  CLST         504          1.0000000000
      1511       504  TIP3  H1            8.1084188962      -13.7569062859        9.7508607006  CLST         504          1.0000000000
      1512       504  TIP3  H2            8.6574817468      -14.4510143049       11.0495986890  CLST         504          1.0000000000
      1513       505  TIP3  OH2           3.6750650326      -10.9343573326       -5.6777969038  CLST         505          1.0000000000
      1514       505  TIP3  H1            3.4449692861      -10.4205755819       -6.5274486274  CLST         505          1.0000000000
      1515       505  TIP3  H2            3.5954022691      -10.2822660674       -4.9906672407  CLST         505          1.0000000000
      1516       506  TIP3  OH2          -9.0247621976       -3.4240841474       -8.2385854584  CLST         506          1.0000000000
      1517       506  TIP3  H1           -8.8164686026       -2.4543048271       -8.0239638718  CLST         506          1.0000000000
      1518       506  TIP3  H2           -9.5667844385       -3.1564130937       -9.0190210089  CLST         506          1.0000000000
      1519       507  TIP3  OH2          11.0865915938        9.7245660782      -12.6965460731  CLST         507          1.0000000000
      1520       507  TIP3  H1           11.2714179236        9.8534939244      -13.5209708543  CLST         507          1.0000000000
      1521       507  TIP3  H2           10.9487969873        8.7014965265      -12.5281228301  CLST         507          1.0000000000
      1522       508  TIP3  OH2           9.2205434149       12.1834638538        8.9096039589  CLST         508          1.0000000000
      1523       508  TIP3  H1            8.7976432710       12.1735390561        8.0631963833  CLST         508          1.0000000000
      1524       508  TIP3  H2           10.1425986911       12.4667001051        8.6037069484  CLST         508          1.0000000000
      1525       509  TIP3  OH2          -0.7435321040       -1.4848697773      -11.3948758141  CLST         509          1.0000000000
      1526       509  TIP3  H1           -1.6368907923       -1.8243053105      -11.4513848036  CLST         509          1.0000000000
      1527       509  TIP3  H2           -0.9360565910       -0.5751733149      -10.9065681299  CLST         509          1.0000000000
      1528       510  TIP3  OH2           8.1661263856        2.1911691522       11.6512210497  CLST         510          1.0000000000
      1529       510  TIP3  H1            8.1040344832        1.1677417774       11.5278747458  CLST         510          1.0000000000
      1530       510  TIP3  H2            9.0454272941        2.2845545427       11.2156511711  CLST         510          1.0000000000
      1531       511  TIP3  OH2          -8.7138140578       -5.9883684989       -0.8039089022  CLST         511          1.0000000000
      1532       511  TIP3  H1           -9.5902756765       -6.3915245860       -0.8712651640  CLST         511          1.0000000000
      1533       511  TIP3  H2           -8.9068423289       -5.2708852884       -1.4416469600  CLST         511          1.0000000000
      1534       512  TIP3  OH2           9.9451572339        7.0610689322        6.8241964081  CLST         512          1.0000000000
      1535       512  TIP3  H1           10.3729366115        7.6145458620        7.5230289878  CLST         512          1.0000000000
      1536       512  TIP3  H2           10.0644532565        7.6724727835        6.0574038910  CLST         512          1.0000000000
      1537       513  TIP3  OH2         -11.8377011323       10.4852930628        9.2820057599  CLST         513          1.0000000000
      1538       513  TIP3  H1          -11.4548801069       11.3859651179        9.4651499787  CLST         513          1.0000000000
      1539       513  TIP3  H2          -11.2887050219       10.0039439306        9.9414566541  CLST         513          1.0000000000
      1540       514  TIP3  OH2          -4.8521076969        5.1130319112        0.2429473494  CLST         514          1.0000000000
      1541       514  TIP3  H1           -4.0275503531        5.5411886267        0.6721729815  CLST         514          1.0000000000
      1542       514  TIP3  H2           -4.4708513383        4.9236175290       -0.6354954369  CLST         514          1.0000000000
      1543       515  TIP3  OH2          -0.8032493523        0.8706223225       -4.3668394059  CLST         515          1.0000000000
      1544       515  TIP3  H1           -1.6891201331        1.3216788125       -4.2208318020  CLST         515          1.0000000000
      1545       515  TIP3  H2           -0.1909746545        1.6504461454       -4.5426319975  CLST         515          1.0000000000
      1546       516  TIP3  OH2          -7.3642127872       -8.5492533127        6.3962152993  CLST         516          1.0000000000
      1547       516  TIP3  H1           -7.7840296263       -8.3684591271        5.5134369021  CLST         516          1.0000000000
      1548       516  TIP3  H2           -7.8647919931       -7.7351027315        6.7881498133  CLST         516          1.0000000000
      1549       517  TIP3  OH2           0.6826868717       11.1960795761       11.4352582742  CLST         517          1.0000000000
      1550       517  TIP3  H1            0.9248327468       10.9902920623       10.5214264331  CLST         517          1.0000000000
      1551       517  TIP3  H2           -0.2799229660       11.2202240589       11.4586911483  CLST         517          1.0000000000
      1552       518  TIP3  OH2         -11.7257491296       -3.5162791351      -11.4555242840  CLST         518          1.0000000000
      1553       518  TIP3  H1          -12.1063430835       -3.3587209823      -12.3164503701  CLST         518          1.0000000000
      1554       518  TIP3  H2          -10.9973125774       -4.0592882523      -11.8871758825  CLST         518          1.0000000000
      1555       519  TIP3  OH2           2.1687595018        3.5032118155        3.3802997778  CLST         519          1.0000000000
      1556       519  TIP3  H1            1.8358866502        4.1844921078        2.7349997770  CLST         519          1.0000000000
      1557       519  TIP3  H2            1.9110741854        2.6511746595        2.9236440181  CLST         519          1.0000000000
      1558       520  TIP3  OH2         -10.2258476319        6.1776388951        8.1705392623  CLST         520          1.0000000000
      1559       520  TIP3  H1          -10.6266820830        5.6542893420        7.3988284894  CLST         520          1.0000000000
      1560       520  TIP3  H2          -10.5832013822        5.5026403778        8.7937816614  CLST         520          1.0000000000
      1561       521  TIP3  OH2           8.3566226631       -8.7242085195       -9.4127136397  CLST         521          1.0000000000
      1562       521  TIP3  H1            8.6172091378       -9.2637700578      -10.1976685394  CLST         521          1.0000000000
      1563       521  TIP3  H2            8.1194637725       -7.8881882017       -9.9004214309  CLST         521          1.0000000000
      1564       522  TIP3  OH2          -5.6063841430       -7.0328923203        8.2361932166  CLST         522          1.0000000000
      1565       522  TIP3  H1           -5.7295677260       -7.8735594838        7.7301042391  CLST         522          1.0000000000
      1566       522  TIP3  H2           -4.6220969357       -7.2651657810        8.3440694567  CLST         522          1.0000000000
      1567       523  TIP3  OH2          -4.1192015237       11.9537633247      -13.6031864058  CLST         523          1.0000000000
      1568       523  TIP3  H1           -3.1123531078       11.9328563335      -13.5513723690  CLST         523          1.0000000000
      1569       523  TIP3  H2           -4.4794275236       12.5035052596      -14.1839213388  CLST         523          1.0000000000
      1570       524  TIP3  OH2           6.8885576296        3.7717487358       -1.6920411559  CLST         524          1.0000000000
      1571       524  TIP3  H1            7.1162365594        2.9496698969       -2.1590171437  CLST         524          1.0000000000
      1572       524  TIP3  H2            5.9469508477        3.8797571522       -1.9685202237  CLST         524          1.0000000000
      1573       525  TIP3  OH2           0.4817552621        6.9236143808       -2.6345475106  CLST         525          1.0000000000
      1574       525  TIP3  H1            0.4725236598        6.2269520106       -3.3701495133  CLST         525          1.0000000000
      1575       525  TIP3  H2            0.3304805309        6.2307960830       -1.9559589120  CLST         525          1.0000000000
      1576       526  TIP3  OH2           7.1064630423       -5.4661399043       -3.5679730907  CLST         526          1.0000000000
      1577       526  TIP3  H1            7.2538167712       -5.5487204994       -4.5416917985  CLST         526          1.0000000000
      1578       526  TIP3  H2            8.0048596131       -5.6768395027       -3.2662858662  CLST         526          1.0000000000
      1579       527  TIP3  OH2           0.3998281485        7.2771068079        4.0011825191  CLST         527          1.0000000000
      1580       527  TIP3  H1            1.1301909940        7.6715768064        4.5975916075  CLST         527          1.0000000000
      1581       527  TIP3  H2           -0.0418588367        8.1014548196        3.7329440498  CLST         527          1.0000000000
      1582       528  TIP3  OH2          -2.8081837149        9.8907073556        8.7949268892  CLST         528          1.0000000000
      1583       528  TIP3  H1           -3.1319838175        9.7237499166        9.6876558875  CLST         528          1.0000000000
      1584       528  TIP3  H2           -3.6886670690        9.9414561680        8.3425365301  CLST         528          1.0000000000
      1585       529  TIP3  OH2          -5.9427633398       12.2867467478       -9.3875531082  CLST         529          1.0000000000
      1586       529  TIP3  H1           -5.1435122595       12.0742836744       -8.9346783231  CLST         529          1.0000000000
      1587       529  TIP3  H2           -5.8561910254       11.6575495204      -10.1553431942  CLST         529          1.0000000000
      1588       530  TIP3  OH2          -4.4535467569       -5.5738489855      -13.2046731355  CLST         530          1.0000000000
      1589       530  TIP3  H1           -4.3773518606       -6.5852014290      -13.2941513939  CLST         530          1.0000000000
      1590       530  TIP3  H2           -3.5186251785       -5.3514824916      -12.9856417393  CLST         530          1.0000000000
      1591       531  TIP3  OH2         -11.4843682329       -0.2052818462       10.5157810991  CLST         531          1.0000000000
      1592       531  TIP3  H1          -12.0736802816       -0.2258117923       11.2754645842  CLST         531          1.0000000000
      1593       531  TIP3  H2          -11.9648530364       -0.8429942914        9.9406198361  CLST         531          1.0000000000
      1594       532  TIP3  OH2         -12.0489875639       -3.0684352913       -8.7841502279  CLST         532          1.0000000000
      1595       532  TIP3  H1          -12.9491242940       -3.4465980535       -8.8185521452  CLST         532          1.0000000000
      1596       532  TIP3  H2          -11.8936584658       -3.1290198916       -9.8043595194  CLST         532          1.0000000000
      1597       533  TIP3  OH2          -2.8193966436       -7.2807959601        8.7125763424  CLST         533          1.0000000000
      1598       533  TIP3  H1           -2.1100761605       -7.8999622706        8.3455965946  CLST         533          1.0000000000
      1599       533  TIP3  H2           -2.3934489526       -6.4225372582        8.3784173384  CLST         533          1.0000000000
      1600       534  TIP3  OH2           0.4323378897      -13.1733721379       -7.5847824109  CLST         534          1.0000000000
      1601       534  TIP3  H1            0.3698942650      -12.7718394687       -8.4527835272  CLST         534          1.0000000000
      1602       534  TIP3  H2            1.4089703197      -13.1730275210       -7.3542665954  CLST         534          1.0000000000
      1603       535  TIP3  OH2           2.8509350525        3.0537567178       -7.6315196092  CLST         535          1.0000000000
      1604       535  TIP3  H1            3.4748140690        2.5231062686       -7.0268487766  CLST         535          1.0000000000
      1605       535  TIP3  H2            2.0448989172        3.0644315462       -7.0807924352  CLST         535          1.0000000000
      1606       536  TIP3  OH2           7.9109420836      -12.6922240129       -3.4735873659  CLST         536          1.0000000000
      1607       536  TIP3  H1            7.4411965299      -12.6122336771       -4.3324081632  CLST         536          1.0000000000
      1608       536  TIP3  H2            8.2667356436      -13.5261887750       -3.5008831977  CLST         536          1.0000000000
      1609       537  TIP3  OH2          11.7865534320       -2.6355266679       -7.6222628317  CLST         537          1.0000000000
      1610       537  TIP3  H1           11.0786234233       -1.9259335332       -7.7319363870  CLST         537          1.0000000000
      1611       537  TIP3  H2           12.2967126070       -2.2230371087       -6.9204630766  CLST         537          1.0000000000
      1612       538  TIP3  OH2          -5.1623875193      -10.9341165645        0.8447611147  CLST         538          1.0000000000
      1613       538  TIP3  H1           -4.3559327006      -11.4327564419        1.2433882418  CLST         538          1.0000000000
      1614       538  TIP3  H2           -4.8479324085       -9.9984030819        0.9687137449  CLST         538          1.0000000000
      1615       539  TIP3  OH2           2.5108154900       -5.1581198775        0.8812686959  CLST         539          1.0000000000
      1616       539  TIP3  H1            1.5989704201       -5.2711516225        1.2222585892  CLST         539          1.0000000000
      1617       539  TIP3  H2            2.2949700314       -5.5339440490       -0.0022186089  CLST         539          1.0000000000
      1618       540  TIP3  OH2           4.0795320590       -6.7153165368        4.6803927439  CLST         540          1.0000000000
      1619       540  TIP3  H1            3.8789453118       -7.6725399959        4.9344236351  CLST         540          1.0000000000
      1620       540  TIP3  H2            4.3096712889       -6.9428763258        3.7316581158  CLST         540          1.0000000000
      1621       541  TIP3  OH2          -5.4493226971       10.4906907339        2.1050388254  CLST         541          1.0000000000
      1622       541  TIP3  H1           -6.0807132219       10.5913114005        2.9129878755  CLST         541          1.0000000000
      1623       541  TIP3  H2           -4.7736932343       11.2055087219        2.3525965488  CLST         541          1.0000000000
      1624       542  TIP3  OH2         -10.7752865088       14.4455302836        5.6334917877  CLST         542          1.0000000000
      1625       542  TIP3  H1          -10.7809166288       15.3230188319        5.3902188426  CLST         542          1.0000000000
      1626       542  TIP3  H2          -10.5298466794       13.9627036013        4.7467321661  CLST         542          1.0000000000
      1627       543  TIP3  OH2         -10.6999086232       11.4825107451       -2.4484552141  CLST         543          1.0000000000
      1628       543  TIP3  H1          -11.3042929484       10.7964703879       -2.8199189469  CLST         543          1.0000000000
      1629       543  TIP3  H2          -10.5942179195       11.9541644180       -3.3577642411  CLST         543          1.0000000000
      1630       544  TIP3  OH2          -0.3508553872        5.5836898856       -5.7109058613  CLST         544          1.0000000000
      1631       544  TIP3  H1           -0.2405355033        5.1431505375       -6.5735437312  CLST         544          1.0000000000
      1632       544  TIP3  H2            0.2955983421        5.1468776345       -5.1018477354  CLST         544          1.0000000000
      1633       545  TIP3  OH2          -7.8674209471        2.5012123605      -12.6086431536  CLST         545          1.0000000000
      1634       545  TIP3  H1           -8.0035056709        2.1497688354      -13.5625160834  CLST         545          1.0000000000
      1635       545  TIP3  H2           -8.5699435327        3.1940162167      -12.4964746481  CLST         545          1.0000000000
      1636       546  TIP3  OH2           3.7193223620       10.9260887987       -2.1306005100  CLST         546          1.0000000000
      1637       546  TIP3  H1            3.3310640956       10.0522575186       -2.1197695395  CLST         546          1.0000000000
      1638       546  TIP3  H2            4.3739950738       10.8168121760       -1.3649844236  CLST         546          1.0000000000
      1639       547  TIP3  OH2          -3.5470407308       -2.2476504137      -11.1816228561  CLST         547          1.0000000000
      1640       547  TIP3  H1           -3.4451409795       -2.3293529595      -10.2331702565  CLST         547          1.0000000000
      1641       547  TIP3  H2           -3.9517381535       -1.3785792298      -11.2842064626  CLST         547          1.0000000000
      1642       548  TIP3  OH2          10.4725549052        2.2886262496        1.5583736483  CLST         548          1.0000000000
      1643       548  TIP3  H1            9.4795372936        2.0833693837        1.7344371743  CLST         548          1.0000000000
      1644       548  TIP3  H2           10.4434039642        3.1752740437        2.0220148810  CLST         548          1.0000000000
