* Geometry rescue: EQUI at step 6000
*
        1644  EXT
         1         1  TIP3  OH2           4.4582204519       -1.6021115402       -2.0878676515  CLST           1          1.0000000000
         2         1  TIP3  H1            4.5936994061       -1.8670945637       -1.1356393829  CLST           1          1.0000000000
         3         1  TIP3  H2            5.2696956959       -1.9475166265       -2.5645126674  CLST           1          1.0000000000
         4         2  TIP3  OH2          10.6933946151        7.3841784965      -11.7290394442  CLST           2          1.0000000000
         5         2  TIP3  H1           11.0086706828        7.1333563648      -10.8022057202  CLST           2          1.0000000000
         6         2  TIP3  H2            9.7516993357        7.2955052710      -11.5537578518  CLST           2          1.0000000000
         7         3  TIP3  OH2           8.8132878488        5.3979676211       -4.2950494718  CLST           3          1.0000000000
         8         3  TIP3  H1            9.1333730894        5.6824702818       -3.3634915519  CLST           3          1.0000000000
         9         3  TIP3  H2            9.2871125063        6.2039584939       -4.6727551642  CLST           3          1.0000000000
        10         4  TIP3  OH2          -2.7825010855        6.7835921050       10.2729035764  CLST           4          1.0000000000
        11         4  TIP3  H1           -3.4968510618        7.0773020690        9.6275218237  CLST           4          1.0000000000
        12         4  TIP3  H2           -3.0259336546        7.3266918577       11.0240308008  CLST           4          1.0000000000
        13         5  TIP3  OH2           9.2443752388        6.2700761191       10.6118356474  CLST           5          1.0000000000
        14         5  TIP3  H1            8.7702255779        5.5024157382       11.0355470065  CLST           5          1.0000000000
        15         5  TIP3  H2            8.9212582605        5.9364051581        9.7412275316  CLST           5          1.0000000000
        16         6  TIP3  OH2          10.5180463284       -6.0321556992      -11.6851136704  CLST           6          1.0000000000
        17         6  TIP3  H1           11.0637610151       -5.5275974799      -10.9937276749  CLST           6          1.0000000000
        18         6  TIP3  H2           10.6301197192       -5.2723837421      -12.3434298331  CLST           6          1.0000000000
        19         7  TIP3  OH2         -12.3408138086        8.3266635837        5.6932953441  CLST           7          1.0000000000
        20         7  TIP3  H1          -12.7598024152        9.1889785244        5.9572026343  CLST           7          1.0000000000
        21         7  TIP3  H2          -11.5182945719        8.4415770588        6.2427086542  CLST           7          1.0000000000
        22         8  TIP3  OH2          -4.4557812862       -8.2397580862        0.6752626430  CLST           8          1.0000000000
        23         8  TIP3  H1           -5.1257349289       -7.6220777047        1.0234021760  CLST           8          1.0000000000
        24         8  TIP3  H2           -3.7386028172       -7.7269487243        0.2055711322  CLST           8          1.0000000000
        25         9  TIP3  OH2           2.6795943745      -14.1763555666       -4.1730411292  CLST           9          1.0000000000
        26         9  TIP3  H1            1.7233387851      -14.4224006927       -4.1223099993  CLST           9          1.0000000000
        27         9  TIP3  H2            2.7532762373      -13.9439035770       -3.2379123541  CLST           9          1.0000000000
        28        10  TIP3  OH2         -14.0975680456       -1.1919660278       -0.3386084801  CLST          10          1.0000000000
        29        10  TIP3  H1          -13.7154356095       -1.5231516003       -1.2069091980  CLST          10          1.0000000000
        30        10  TIP3  H2          -14.4426534686       -1.9218037968        0.0864688493  CLST          10          1.0000000000
        31        11  TIP3  OH2           6.9583628649        6.6350880991       -1.7908264971  CLST          11          1.0000000000
        32        11  TIP3  H1            6.8812198853        5.6697469771       -1.9530970154  CLST          11          1.0000000000
        33        11  TIP3  H2            6.9880871967        6.9709944328       -2.7192424478  CLST          11          1.0000000000
        34        12  TIP3  OH2          -8.2369423173        2.4820717193        1.9379265665  CLST          12          1.0000000000
        35        12  TIP3  H1           -7.6679973239        2.8571283163        1.2221047699  CLST          12          1.0000000000
        36        12  TIP3  H2           -9.0961511490        2.6009901094        1.4065739455  CLST          12          1.0000000000
        37        13  TIP3  OH2           7.9050892700        2.3993349386        2.2267663492  CLST          13          1.0000000000
        38        13  TIP3  H1            7.4552596972        3.1529276665        1.7876519520  CLST          13          1.0000000000
        39        13  TIP3  H2            7.8856974405        2.7448683015        3.1558349672  CLST          13          1.0000000000
        40        14  TIP3  OH2          -0.3622336039        2.1220653620        8.0422114508  CLST          14          1.0000000000
        41        14  TIP3  H1            0.0079313263        2.8805112006        7.5186920642  CLST          14          1.0000000000
        42        14  TIP3  H2            0.2431166881        1.4658154217        7.5673867529  CLST          14          1.0000000000
        43        15  TIP3  OH2          -9.0565905824       -3.7536057851      -12.7068910525  CLST          15          1.0000000000
        44        15  TIP3  H1           -8.3364148788       -3.5142714009      -13.3092770181  CLST          15          1.0000000000
        45        15  TIP3  H2           -8.5179973749       -4.4725414372      -12.2204353969  CLST          15          1.0000000000
        46        16  TIP3  OH2          -3.7492182319      -12.8275261466       -6.2410391434  CLST          16          1.0000000000
        47        16  TIP3  H1           -4.3441593530      -12.9335794948       -5.4481088611  CLST          16          1.0000000000
        48        16  TIP3  H2           -2.8397947077      -12.8686764789       -5.8377353943  CLST          16          1.0000000000
        49        17  TIP3  OH2           4.8970525383      -13.3089035409       -8.4396907143  CLST          17          1.0000000000
        50        17  TIP3  H1            5.4221876819      -13.5567800804       -7.6935295788  CLST          17          1.0000000000
        51        17  TIP3  H2            3.9820109438      -13.3706844250       -7.9791486294  CLST          17          1.0000000000
        52        18  TIP3  OH2         -11.7007970280       -6.7410545338       -1.4233078675  CLST          18          1.0000000000
        53        18  TIP3  H1          -11.9867265205       -5.9127056594       -1.9251936622  CLST          18          1.0000000000
        54        18  TIP3  H2          -11.9117332714       -7.2698887556       -2.3192047370  CLST          18          1.0000000000
        55        19  TIP3  OH2          11.1071121916       -0.0823813007        9.6200634496  CLST          19          1.0000000000
        56        19  TIP3  H1           10.7343966247       -0.9117744860        9.9479326559  CLST          19          1.0000000000
        57        19  TIP3  H2           11.0526681271       -0.2680031101        8.6239388601  CLST          19          1.0000000000
        58        20  TIP3  OH2         -13.2928752928        1.5354264269        2.6510291162  CLST          20          1.0000000000
        59        20  TIP3  H1          -13.0222496894        1.3073511881        1.7572607122  CLST          20          1.0000000000
        60        20  TIP3  H2          -14.2118673588        1.6754485188        2.5067101216  CLST          20          1.0000000000
        61        21  TIP3  OH2         -10.0585793262       12.5556412312       -5.3235129428  CLST          21          1.0000000000
        62        21  TIP3  H1           -9.9096130810       13.4622194695       -5.5577737835  CLST          21          1.0000000000
        63        21  TIP3  H2           -9.3799527661       12.2174151865       -6.0137420833  CLST          21          1.0000000000
        64        22  TIP3  OH2           2.8577501528       12.1456661160       -6.6166895854  CLST          22          1.0000000000
        65        22  TIP3  H1            3.2122994743       11.2865930685       -6.3113372911  CLST          22          1.0000000000
        66        22  TIP3  H2            3.2438441400       12.7038050723       -5.8582490129  CLST          22          1.0000000000
        67        23  TIP3  OH2           5.5453939003       -1.6630208436       11.4150081369  CLST          23          1.0000000000
        68        23  TIP3  H1            5.2339628435       -2.3861956208       10.8384009846  CLST          23          1.0000000000
        69        23  TIP3  H2            5.1351354959       -0.9095542071       10.9835020581  CLST          23          1.0000000000
        70        24  TIP3  OH2          -0.1102222745        1.1875187485        4.4710796075  CLST          24          1.0000000000
        71        24  TIP3  H1            0.5702157507        1.0196503000        5.1006174015  CLST          24          1.0000000000
        72        24  TIP3  H2           -0.8842470068        0.6583309026        4.8986281360  CLST          24          1.0000000000
        73        25  TIP3  OH2           3.1433113052        2.0263741860       -2.6791212542  CLST          25          1.0000000000
        74        25  TIP3  H1            3.5755429395        1.6653442396       -1.8808480319  CLST          25          1.0000000000
        75        25  TIP3  H2            3.4914512391        2.9517364890       -2.7101769841  CLST          25          1.0000000000
        76        26  TIP3  OH2          11.3657793206        5.3826040516       -6.4276761154  CLST          26          1.0000000000
        77        26  TIP3  H1           10.4739257161        5.1307986014       -6.8379494340  CLST          26          1.0000000000
        78        26  TIP3  H2           11.1891701326        6.2958383124       -6.0900715917  CLST          26          1.0000000000
        79        27  TIP3  OH2         -10.4281188384        7.5146195053       -5.4933787145  CLST          27          1.0000000000
        80        27  TIP3  H1          -10.5371060370        7.9053852749       -4.6227336635  CLST          27          1.0000000000
        81        27  TIP3  H2          -11.0497245377        7.8353928684       -6.0841429249  CLST          27          1.0000000000
        82        28  TIP3  OH2          -4.2647647909      -10.2337376307       -6.8176523048  CLST          28          1.0000000000
        83        28  TIP3  H1           -4.2097223996      -11.2283639084       -6.6912266033  CLST          28          1.0000000000
        84        28  TIP3  H2           -5.2255388280      -10.1485090848       -6.6499668777  CLST          28          1.0000000000
        85        29  TIP3  OH2         -10.8332887119        7.6755752915       -2.6158502072  CLST          29          1.0000000000
        86        29  TIP3  H1          -10.2080395621        8.2732778440       -2.0535748135  CLST          29          1.0000000000
        87        29  TIP3  H2          -11.6317534929        8.2429431356       -2.3361369893  CLST          29          1.0000000000
        88        30  TIP3  OH2           8.8800968673      -10.5876115270       -2.0463698056  CLST          30          1.0000000000
        89        30  TIP3  H1            9.4916518569      -11.2979705403       -1.6972269738  CLST          30          1.0000000000
        90        30  TIP3  H2            8.4143955375      -11.2092666836       -2.6837114627  CLST          30          1.0000000000
        91        31  TIP3  OH2          -9.8967064090       -1.1985709222      -13.0964504049  CLST          31          1.0000000000
        92        31  TIP3  H1           -9.7250395339       -2.1866112385      -12.9658195656  CLST          31          1.0000000000
        93        31  TIP3  H2          -10.0536423241       -1.0269629006      -12.1517264140  CLST          31          1.0000000000
        94        32  TIP3  OH2          -8.7532755259       -6.5401469130        7.0426123256  CLST          32          1.0000000000
        95        32  TIP3  H1           -9.7330503042       -6.4026468951        7.1582321143  CLST          32          1.0000000000
        96        32  TIP3  H2           -8.7274861304       -5.9704341536        6.2034292560  CLST          32          1.0000000000
        97        33  TIP3  OH2          11.6517645819       -9.0547741539        8.9352814961  CLST          33          1.0000000000
        98        33  TIP3  H1           11.8086082592       -9.9636746693        9.2482757688  CLST          33          1.0000000000
        99        33  TIP3  H2           11.3746604766       -8.5771608616        9.7172260426  CLST          33          1.0000000000
       100        34  TIP3  OH2           4.1792490506       -3.8994775973        2.7919247998  CLST          34          1.0000000000
       101        34  TIP3  H1            3.6268365902       -4.1441781940        1.9557025094  CLST          34          1.0000000000
       102        34  TIP3  H2            3.8743214666       -4.6025132213        3.3757035204  CLST          34          1.0000000000
       103        35  TIP3  OH2           6.1055899944       -0.7475034724        4.4191968838  CLST          35          1.0000000000
       104        35  TIP3  H1            5.2855301230       -0.8875673485        4.8783618431  CLST          35          1.0000000000
       105        35  TIP3  H2            6.6887362871       -0.2679313393        5.1596311731  CLST          35          1.0000000000
       106        36  TIP3  OH2          -1.4503920291        1.3010765881        2.1546434689  CLST          36          1.0000000000
       107        36  TIP3  H1           -1.9634756355        0.5607206797        2.5853217498  CLST          36          1.0000000000
       108        36  TIP3  H2           -0.8161284431        1.3311932803        2.9676958257  CLST          36          1.0000000000
       109        37  TIP3  OH2          -4.5634500254       -8.3412333991      -13.1139293368  CLST          37          1.0000000000
       110        37  TIP3  H1           -5.2108147007       -8.4515017030      -12.3838603769  CLST          37          1.0000000000
       111        37  TIP3  H2           -4.2385392746       -9.2541480345      -13.3312346618  CLST          37          1.0000000000
       112        38  TIP3  OH2          -3.2266784487        2.1164786118       -4.5937793376  CLST          38          1.0000000000
       113        38  TIP3  H1           -3.0563873026        2.9986765403       -5.0254392076  CLST          38          1.0000000000
       114        38  TIP3  H2           -3.4738062791        1.6001829757       -5.3733562188  CLST          38          1.0000000000
       115        39  TIP3  OH2           1.6656735802      -10.8146385183        2.1015268659  CLST          39          1.0000000000
       116        39  TIP3  H1            1.3918243375      -11.3994101681        2.8769668560  CLST          39          1.0000000000
       117        39  TIP3  H2            0.7230357985      -10.6076045167        1.7290794673  CLST          39          1.0000000000
       118        40  TIP3  OH2          -6.9981667414       12.4662008637        8.1898231993  CLST          40          1.0000000000
       119        40  TIP3  H1           -7.9120469307       12.7674106176        7.9579796267  CLST          40          1.0000000000
       120        40  TIP3  H2           -6.4958411777       12.7713380657        7.4223338301  CLST          40          1.0000000000
       121        41  TIP3  OH2           9.8554757131       -2.2189052076      -11.1404152115  CLST          41          1.0000000000
       122        41  TIP3  H1            9.2491010378       -2.8867503838      -10.7489987132  CLST          41          1.0000000000
       123        41  TIP3  H2            9.4889759589       -1.4290101481      -10.6643888496  CLST          41          1.0000000000
       124        42  TIP3  OH2           9.7950796843       10.3274973237      -10.5855304331  CLST          42          1.0000000000
       125        42  TIP3  H1           10.6259241116       10.0729577713      -10.1621056478  CLST          42          1.0000000000
       126        42  TIP3  H2           10.1473163297       10.2795995648      -11.5683705916  CLST          42          1.0000000000
       127        43  TIP3  OH2          11.9455663502       12.6126340519        7.6765097612  CLST          43          1.0000000000
       128        43  TIP3  H1           12.5951272440       13.2732853163        7.6229168992  CLST          43          1.0000000000
       129        43  TIP3  H2           12.3886802570       11.8466385609        8.2200452414  CLST          43          1.0000000000
       130        44  TIP3  OH2           7.6917696090        0.8673143987        5.8375940488  CLST          44          1.0000000000
       131        44  TIP3  H1            7.8666258855        1.2144243079        6.7708318155  CLST          44          1.0000000000
       132        44  TIP3  H2            7.5663480576        1.7878711906        5.4829616015  CLST          44          1.0000000000
       133        45  TIP3  OH2           7.9338440899        9.4776525963        7.3528566747  CLST          45          1.0000000000
       134        45  TIP3  H1            7.5030759693        8.6101970082        7.4576972309  CLST          45          1.0000000000
       135        45  TIP3  H2            8.7208645578        9.3587898471        7.9379126751  CLST          45          1.0000000000
       136        46  TIP3  OH2          -5.6555179124       -3.1687774862      -12.9968172746  CLST          46          1.0000000000
       137        46  TIP3  H1           -5.3931975768       -4.1064652979      -13.2307228133  CLST          46          1.0000000000
       138        46  TIP3  H2           -4.8777562764       -2.9641386387      -12.4407733735  CLST          46          1.0000000000
       139        47  TIP3  OH2           1.4638031528       -6.6364339249      -11.0100710652  CLST          47          1.0000000000
       140        47  TIP3  H1            1.8125680058       -5.7680160413      -10.7282576940  CLST          47          1.0000000000
       141        47  TIP3  H2            1.5455203956       -6.5060816337      -11.9563262128  CLST          47          1.0000000000
       142        48  TIP3  OH2           5.0572293395        5.6432068253        1.0522072267  CLST          48          1.0000000000
       143        48  TIP3  H1            5.9167543846        5.2335744018        0.7074411984  CLST          48          1.0000000000
       144        48  TIP3  H2            5.3849046368        6.6067709266        1.0436163683  CLST          48          1.0000000000
       145        49  TIP3  OH2          -3.4578588415      -10.5832797240      -13.7393132213  CLST          49          1.0000000000
       146        49  TIP3  H1           -2.4986015126      -10.5481643882      -13.7728789452  CLST          49          1.0000000000
       147        49  TIP3  H2           -3.5158249258      -11.1964986226      -12.9747917786  CLST          49          1.0000000000
       148        50  TIP3  OH2           2.7930751669        3.8444960889        6.0272727129  CLST          50          1.0000000000
       149        50  TIP3  H1            2.0055530138        4.2573232646        6.5291514191  CLST          50          1.0000000000
       150        50  TIP3  H2            2.4600720853        3.7562107059        5.1284475353  CLST          50          1.0000000000
       151        51  TIP3  OH2          -6.5132736809      -10.1241835690       -4.6027008626  CLST          51          1.0000000000
       152        51  TIP3  H1           -6.4761639752       -9.8970343087       -3.6500375510  CLST          51          1.0000000000
       153        51  TIP3  H2           -6.3528394966      -11.0731380057       -4.6111531836  CLST          51          1.0000000000
       154        52  TIP3  OH2           9.1361777006       -5.7589797356       -0.1439111351  CLST          52          1.0000000000
       155        52  TIP3  H1            9.3599923985       -5.4293886598       -1.0663491223  CLST          52          1.0000000000
       156        52  TIP3  H2            8.9054408248       -4.8364219585        0.1558562653  CLST          52          1.0000000000
       157        53  TIP3  OH2          -9.6677171083       10.0583052958      -12.4179031992  CLST          53          1.0000000000
       158        53  TIP3  H1           -9.9636195478       10.0518913336      -13.2543938054  CLST          53          1.0000000000
       159        53  TIP3  H2           -8.6946777579        9.5950726184      -12.5054549416  CLST          53          1.0000000000
       160        54  TIP3  OH2           0.4527815302       -2.9551407512       -9.5360072603  CLST          54          1.0000000000
       161        54  TIP3  H1            1.3401843348       -3.0820018845       -9.9281901091  CLST          54          1.0000000000
       162        54  TIP3  H2            0.1329697357       -2.2934002447      -10.2518295270  CLST          54          1.0000000000
       163        55  TIP3  OH2           2.9195051451       -3.9186332285      -14.6869160780  CLST          55          1.0000000000
       164        55  TIP3  H1            3.1346141085       -4.8064483724      -14.5304475464  CLST          55          1.0000000000
       165        55  TIP3  H2            2.9424516374       -3.8590144310      -15.6908424636  CLST          55          1.0000000000
       166        56  TIP3  OH2         -10.0805392064       11.1007988828        5.7436503555  CLST          56          1.0000000000
       167        56  TIP3  H1          -10.0957135247       10.2756566901        6.2999613362  CLST          56          1.0000000000
       168        56  TIP3  H2          -10.2695875037       10.8148513057        4.8136224699  CLST          56          1.0000000000
       169        57  TIP3  OH2           1.6519147231      -13.3149424812        0.3655321237  CLST          57          1.0000000000
       170        57  TIP3  H1            1.7635376110      -12.3963703113        0.6736449994  CLST          57          1.0000000000
       171        57  TIP3  H2            2.5187363034      -13.3967645098       -0.0463462591  CLST          57          1.0000000000
       172        58  TIP3  OH2         -13.1060108408       10.7396442598        6.9648489189  CLST          58          1.0000000000
       173        58  TIP3  H1          -12.5978026058       11.4541741838        6.5771905080  CLST          58          1.0000000000
       174        58  TIP3  H2          -12.7473673209       10.6722968886        7.9026126779  CLST          58          1.0000000000
       175        59  TIP3  OH2         -11.5638765010       -2.8065619793        5.5171502328  CLST          59          1.0000000000
       176        59  TIP3  H1          -11.8592803118       -2.5548076564        6.4268643748  CLST          59          1.0000000000
       177        59  TIP3  H2          -11.5819402618       -1.9126550525        5.1129860820  CLST          59          1.0000000000
       178        60  TIP3  OH2           1.2741210508        9.6081468634        8.6242559566  CLST          60          1.0000000000
       179        60  TIP3  H1            0.4925439622        9.0322735995        8.2619358282  CLST          60          1.0000000000
       180        60  TIP3  H2            1.8036523490        8.7847541029        8.8229373232  CLST          60          1.0000000000
       181        61  TIP3  OH2           2.8358068822       -0.7119643989       -5.3758459125  CLST          61          1.0000000000
       182        61  TIP3  H1            3.2751227051       -1.6045460439       -5.4595657521  CLST          61          1.0000000000
       183        61  TIP3  H2            2.2026860494       -0.8283393464       -6.1435856868  CLST          61          1.0000000000
       184        62  TIP3  OH2           7.8808869452        8.3047065406       12.3764040301  CLST          62          1.0000000000
       185        62  TIP3  H1            7.9060323421        7.4379953216       11.9393381555  CLST          62          1.0000000000
       186        62  TIP3  H2            8.1752726051        8.9092235101       11.6917549853  CLST          62          1.0000000000
       187        63  TIP3  OH2           4.6179929673       -7.1817861878      -10.2151339632  CLST          63          1.0000000000
       188        63  TIP3  H1            3.8138578823       -7.1840012400      -10.7545128741  CLST          63          1.0000000000
       189        63  TIP3  H2            5.2324487940       -7.5382272878      -10.9684397654  CLST          63          1.0000000000
       190        64  TIP3  OH2          -2.3555565209       11.7709001708        5.3369831869  CLST          64          1.0000000000
       191        64  TIP3  H1           -2.5724863215       10.8115455049        5.4637836946  CLST          64          1.0000000000
       192        64  TIP3  H2           -1.6182840290       11.7701660793        6.0305893588  CLST          64          1.0000000000
       193        65  TIP3  OH2          10.8669968848       -4.3036431188       -5.2353124440  CLST          65          1.0000000000
       194        65  TIP3  H1           11.0744152600       -4.1654531153       -6.1783851916  CLST          65          1.0000000000
       195        65  TIP3  H2           11.0006369903       -3.3764247151       -4.9737830788  CLST          65          1.0000000000
       196        66  TIP3  OH2           6.2253411810       -9.8826256529        9.3356878707  CLST          66          1.0000000000
       197        66  TIP3  H1            5.4881112143       -9.5060105153        8.7971180535  CLST          66          1.0000000000
       198        66  TIP3  H2            6.9672467714       -9.2930501672        9.0730564864  CLST          66          1.0000000000
       199        67  TIP3  OH2         -11.6821503733       -7.6494607457       -3.9247508039  CLST          67          1.0000000000
       200        67  TIP3  H1          -10.9347789554       -7.0536533279       -4.0916744726  CLST          67          1.0000000000
       201        67  TIP3  H2          -12.1263509242       -7.5053541502       -4.7824171794  CLST          67          1.0000000000
       202        68  TIP3  OH2          -0.7209130806       -5.5326565278        5.4156054298  CLST          68          1.0000000000
       203        68  TIP3  H1            0.2860627591       -5.4527340736        5.5257083192  CLST          68          1.0000000000
       204        68  TIP3  H2           -1.0929876679       -5.3545395702        6.3183555685  CLST          68          1.0000000000
       205        69  TIP3  OH2           7.9928711198       11.8086359961       -8.6867199009  CLST          69          1.0000000000
       206        69  TIP3  H1            8.5503058567       11.4528438925       -9.4461843672  CLST          69          1.0000000000
       207        69  TIP3  H2            8.7468267227       11.9256184139       -8.0663835534  CLST          69          1.0000000000
       208        70  TIP3  OH2          -1.0009201076      -12.4375266369       -0.5622294397  CLST          70          1.0000000000
       209        70  TIP3  H1           -0.0402703382      -12.6906017192       -0.5041597009  CLST          70          1.0000000000
       210        70  TIP3  H2           -1.2350944925      -12.6814113179        0.3722704834  CLST          70          1.0000000000
       211        71  TIP3  OH2         -10.2815880478       -7.3013380536        2.1236976979  CLST          71          1.0000000000
       212        71  TIP3  H1          -10.7489044753       -6.4944460347        2.4674021658  CLST          71          1.0000000000
       213        71  TIP3  H2          -10.7607968262       -7.5995849872        1.3409898549  CLST          71          1.0000000000
       214        72  TIP3  OH2           0.1371345960        1.9457948979       -1.4126693981  CLST          72          1.0000000000
       215        72  TIP3  H1           -0.3703183582        1.0730429903       -1.5048747088  CLST          72          1.0000000000
       216        72  TIP3  H2            0.9812639112        1.7271765196       -1.8394821534  CLST          72          1.0000000000
       217        73  TIP3  OH2          -9.7792806060       13.1252402244        7.6252805552  CLST          73          1.0000000000
       218        73  TIP3  H1           -9.9115216136       12.3947009694        6.9548800528  CLST          73          1.0000000000
       219        73  TIP3  H2          -10.2153687334       13.7761353550        6.9629671905  CLST          73          1.0000000000
       220        74  TIP3  OH2           6.4872520933       -2.7447504851       -3.6059488633  CLST          74          1.0000000000
       221        74  TIP3  H1            6.4539394604       -3.7039229806       -3.2111524070  CLST          74          1.0000000000
       222        74  TIP3  H2            7.3528028398       -2.4450003058       -3.3110027398  CLST          74          1.0000000000
       223        75  TIP3  OH2           2.7835470396      -13.2516416001       -6.6682228771  CLST          75          1.0000000000
       224        75  TIP3  H1            2.8953378105      -12.4200397185       -6.1259836959  CLST          75          1.0000000000
       225        75  TIP3  H2            2.7916327583      -13.8675149353       -5.8609264120  CLST          75          1.0000000000
       226        76  TIP3  OH2           4.1669653193       -9.7114048499        1.3233863540  CLST          76          1.0000000000
       227        76  TIP3  H1            4.3797057633       -8.7555894445        1.6349211166  CLST          76          1.0000000000
       228        76  TIP3  H2            3.2447359862       -9.8962735488        1.6697889352  CLST          76          1.0000000000
       229        77  TIP3  OH2          10.3227364771       -8.3461728503       -2.5614675705  CLST          77          1.0000000000
       230        77  TIP3  H1            9.6639248770       -9.0824301359       -2.4951143648  CLST          77          1.0000000000
       231        77  TIP3  H2           10.6112335571       -8.4892952277       -3.4690510053  CLST          77          1.0000000000
       232        78  TIP3  OH2          10.7281642702       11.6667097148       -7.9420685976  CLST          78          1.0000000000
       233        78  TIP3  H1           11.2280969502       10.9180258489       -8.3406348560  CLST          78          1.0000000000
       234        78  TIP3  H2           11.1070338744       12.4633255563       -8.0971566401  CLST          78          1.0000000000
       235        79  TIP3  OH2          12.6698042922        0.6980626430        1.2401777262  CLST          79          1.0000000000
       236        79  TIP3  H1           13.3409790444        0.4885851094        1.7573557787  CLST          79          1.0000000000
       237        79  TIP3  H2           11.9234466113        1.3456694167        1.4880741851  CLST          79          1.0000000000
       238        80  TIP3  OH2          -7.4162332164        0.0045799973        6.5551336911  CLST          80          1.0000000000
       239        80  TIP3  H1           -7.3714723368        0.4777694925        5.6820278382  CLST          80          1.0000000000
       240        80  TIP3  H2           -6.5093282745       -0.3496010373        6.6618254741  CLST          80          1.0000000000
       241        81  TIP3  OH2          -7.5432760761      -11.0465355311        2.2582431443  CLST          81          1.0000000000
       242        81  TIP3  H1           -6.7312227990      -11.0920124196        1.6156655712  CLST          81          1.0000000000
       243        81  TIP3  H2           -7.0801901773      -11.3344167308        3.0907715799  CLST          81          1.0000000000
       244        82  TIP3  OH2          -1.5544073789       -9.9562522522       -6.4344353287  CLST          82          1.0000000000
       245        82  TIP3  H1           -2.6007935352       -9.8343092915       -6.3766818182  CLST          82          1.0000000000
       246        82  TIP3  H2           -1.5253311820      -10.8883839016       -6.1819312198  CLST          82          1.0000000000
       247        83  TIP3  OH2          12.2756133185       -8.6048135691        1.5097616290  CLST          83          1.0000000000
       248        83  TIP3  H1           12.7287124127       -8.2247058758        2.2699274507  CLST          83          1.0000000000
       249        83  TIP3  H2           11.3725662188       -8.2531577995        1.5699214531  CLST          83          1.0000000000
       250        84  TIP3  OH2          -3.7054226845       10.9300285920       -2.1906468503  CLST          84          1.0000000000
       251        84  TIP3  H1           -4.5700549246       10.8482389349       -2.7459799180  CLST          84          1.0000000000
       252        84  TIP3  H2           -3.7751530801       11.7774374655       -1.9663322687  CLST          84          1.0000000000
       253        85  TIP3  OH2           5.8564863055       -2.1537494278        0.0364255740  CLST          85          1.0000000000
       254        85  TIP3  H1            5.8283732341       -1.5320526120        0.8217215702  CLST          85          1.0000000000
       255        85  TIP3  H2            6.6343295872       -2.6817574995        0.2683706897  CLST          85          1.0000000000
       256        86  TIP3  OH2           6.4459919274       -8.4279802134        5.8404040168  CLST          86          1.0000000000
       257        86  TIP3  H1            5.8638000925       -8.7195448940        6.5800540400  CLST          86          1.0000000000
       258        86  TIP3  H2            6.2015310057       -7.4933862287        5.7484672870  CLST          86          1.0000000000
       259        87  TIP3  OH2          -1.1948362632       -3.6633723544       10.6717076049  CLST          87          1.0000000000
       260        87  TIP3  H1           -0.5594723124       -3.9594232360       11.3548863828  CLST          87          1.0000000000
       261        87  TIP3  H2           -2.1058185770       -4.0351465016       10.8693152391  CLST          87          1.0000000000
       262        88  TIP3  OH2          -0.8442434477        4.4955520597       -7.8918589456  CLST          88          1.0000000000
       263        88  TIP3  H1           -1.3259460035        3.6206356329       -7.6916870359  CLST          88          1.0000000000
       264        88  TIP3  H2           -1.7017455455        5.0331129240       -7.9798031835  CLST          88          1.0000000000
       265        89  TIP3  OH2           3.4968538297        0.7481371187      -11.7710046235  CLST          89          1.0000000000
       266        89  TIP3  H1            3.1479363053        1.4016483135      -12.3479211395  CLST          89          1.0000000000
       267        89  TIP3  H2            3.6883416718       -0.0661997312      -12.2108878990  CLST          89          1.0000000000
       268        90  TIP3  OH2           5.5783198418       11.1190175268       -5.5157692178  CLST          90          1.0000000000
       269        90  TIP3  H1            5.2251724220       11.8541543987       -4.9153632271  CLST          90          1.0000000000
       270        90  TIP3  H2            5.6431891297       11.7106498545       -6.3394079915  CLST          90          1.0000000000
       271        91  TIP3  OH2           6.0076454469       -7.9640789568      -12.2629826860  CLST          91          1.0000000000
       272        91  TIP3  H1            6.3362763307       -8.9238800916      -12.2595990869  CLST          91          1.0000000000
       273        91  TIP3  H2            6.8175784913       -7.4557097213      -12.1422308275  CLST          91          1.0000000000
       274        92  TIP3  OH2           9.7517925460       11.5321822787        2.4666830053  CLST          92          1.0000000000
       275        92  TIP3  H1           10.0203438299       11.8644032182        3.3835475455  CLST          92          1.0000000000
       276        92  TIP3  H2            9.3700669846       12.3422639910        2.0663169341  CLST          92          1.0000000000
       277        93  TIP3  OH2          -8.8342933101        7.1185214124        2.7286176476  CLST          93          1.0000000000
       278        93  TIP3  H1           -8.9104244580        8.0406412796        2.9734450379  CLST          93          1.0000000000
       279        93  TIP3  H2           -7.9617180125        6.7999750205        3.0412969960  CLST          93          1.0000000000
       280        94  TIP3  OH2         -14.2009148982        6.5615483966        6.7520815276  CLST          94          1.0000000000
       281        94  TIP3  H1          -13.6282148692        7.4203392562        6.5937883954  CLST          94          1.0000000000
       282        94  TIP3  H2          -14.2629413730        6.4283604255        5.7941962759  CLST          94          1.0000000000
       283        95  TIP3  OH2           9.9482307323        5.7714347166       -1.8858990970  CLST          95          1.0000000000
       284        95  TIP3  H1            9.7665409214        5.9579470695       -0.9331493338  CLST          95          1.0000000000
       285        95  TIP3  H2           10.6171102268        5.0495465715       -1.6760060556  CLST          95          1.0000000000
       286        96  TIP3  OH2           9.7770814310      -10.9298978705       11.2261969643  CLST          96          1.0000000000
       287        96  TIP3  H1           10.4844347774      -11.2486741429       10.5968716055  CLST          96          1.0000000000
       288        96  TIP3  H2            9.3345050491      -11.7724262134       11.4751920546  CLST          96          1.0000000000
       289        97  TIP3  OH2          -7.6566216666        6.8504885750        8.6208427419  CLST          97          1.0000000000
       290        97  TIP3  H1           -7.3893232605        5.8992173095        8.9677585423  CLST          97          1.0000000000
       291        97  TIP3  H2           -8.6607702890        6.6174608895        8.5491943944  CLST          97          1.0000000000
       292        98  TIP3  OH2           5.9078635372        0.6625301518       -3.3773363064  CLST          98          1.0000000000
       293        98  TIP3  H1            6.6848366302        0.3240341157       -2.8278005893  CLST          98          1.0000000000
       294        98  TIP3  H2            5.2447480120        0.1073154011       -2.9321956492  CLST          98          1.0000000000
       295        99  TIP3  OH2          -6.7041553678      -11.5604133578        4.8182830304  CLST          99          1.0000000000
       296        99  TIP3  H1           -6.9892266480      -11.1876020502        5.6859720202  CLST          99          1.0000000000
       297        99  TIP3  H2           -5.9550036431      -12.1019972805        5.1359288409  CLST          99          1.0000000000
       298       100  TIP3  OH2           2.2212191128        0.4699598322       -9.2677651931  CLST         100          1.0000000000
       299       100  TIP3  H1            2.7511340835        0.4865572568      -10.1340327462  CLST         100          1.0000000000
       300       100  TIP3  H2            2.3533737442        1.4094986909       -9.1125746766  CLST         100          1.0000000000
       301       101  TIP3  OH2          12.7964620987       -6.8353989015        3.9269192453  CLST         101          1.0000000000
       302       101  TIP3  H1           12.6966029446       -7.3872970511        4.7167933613  CLST         101          1.0000000000
       303       101  TIP3  H2           13.2607173188       -6.2911131673        4.3483537927  CLST         101          1.0000000000
       304       102  TIP3  OH2         -12.2669693681       10.3569799887        1.2040707181  CLST         102          1.0000000000
       305       102  TIP3  H1          -12.9084856167        9.9361757069        1.8690020504  CLST         102          1.0000000000
       306       102  TIP3  H2          -12.6373904369        9.8449728360        0.4402986959  CLST         102          1.0000000000
       307       103  TIP3  OH2          -0.5872640638       -9.3192570748        7.6891505419  CLST         103          1.0000000000
       308       103  TIP3  H1            0.0084454259       -9.4721884986        8.4817557436  CLST         103          1.0000000000
       309       103  TIP3  H2           -1.2315912658      -10.0795713569        7.9657825827  CLST         103          1.0000000000
       310       104  TIP3  OH2          -4.3836402795      -11.9976559746        9.9101119623  CLST         104          1.0000000000
       311       104  TIP3  H1           -4.9086618024      -11.4278802293       10.5348469548  CLST         104          1.0000000000
       312       104  TIP3  H2           -5.0246446630      -12.6089873440        9.5337736152  CLST         104          1.0000000000
       313       105  TIP3  OH2          -5.0755751821       10.8597736854      -11.4973516114  CLST         105          1.0000000000
       314       105  TIP3  H1           -4.6843885679       11.3379852928      -12.3161885708  CLST         105          1.0000000000
       315       105  TIP3  H2           -5.6713947407       10.1775630445      -11.9020186151  CLST         105          1.0000000000
       316       106  TIP3  OH2           7.5389424017       -8.0887817464       -1.4069114604  CLST         106          1.0000000000
       317       106  TIP3  H1            8.3551458853       -7.5909831318       -1.5840494133  CLST         106          1.0000000000
       318       106  TIP3  H2            7.9380736028       -9.0000952729       -1.3571897138  CLST         106          1.0000000000
       319       107  TIP3  OH2          -8.4801789468       -4.8246405719        5.0095498420  CLST         107          1.0000000000
       320       107  TIP3  H1           -8.9549879799       -4.2155784166        4.4340927363  CLST         107          1.0000000000
       321       107  TIP3  H2           -7.5448438709       -4.5726982131        4.8263315870  CLST         107          1.0000000000
       322       108  TIP3  OH2         -10.5725669061        2.0080063463        9.5329311870  CLST         108          1.0000000000
       323       108  TIP3  H1           -9.5890500433        1.7943539741        9.4782363666  CLST         108          1.0000000000
       324       108  TIP3  H2          -10.9202753037        1.1854814699        9.9625597008  CLST         108          1.0000000000
       325       109  TIP3  OH2           2.3062052988        7.0306870616        8.7522172886  CLST         109          1.0000000000
       326       109  TIP3  H1            1.6382449702        6.5367498339        9.2585112473  CLST         109          1.0000000000
       327       109  TIP3  H2            3.0624773402        6.4258202697        8.6892049991  CLST         109          1.0000000000
       328       110  TIP3  OH2           1.6612284895       12.2542606893      -11.2671748478  CLST         110          1.0000000000
       329       110  TIP3  H1            1.8511268203       13.1415472819      -11.4223060686  CLST         110          1.0000000000
       330       110  TIP3  H2            1.4039474393       12.2014976116      -10.3430310236  CLST         110          1.0000000000
       331       111  TIP3  OH2          11.7629823289      -11.6341369505        9.4967348938  CLST         111          1.0000000000
       332       111  TIP3  H1           12.6184016693      -11.9863589797        9.7088150243  CLST         111          1.0000000000
       333       111  TIP3  H2           11.4075757693      -12.4277346070        9.0544518939  CLST         111          1.0000000000
       334       112  TIP3  OH2           6.3978424308        0.0028252868        1.8302917392  CLST         112          1.0000000000
       335       112  TIP3  H1            7.0627405059        0.7068199428        1.9033852709  CLST         112          1.0000000000
       336       112  TIP3  H2            6.1140157458       -0.0987875209        2.7840469207  CLST         112          1.0000000000
       337       113  TIP3  OH2         -12.9490558587        1.1156924398       -0.1240497805  CLST         113          1.0000000000
       338       113  TIP3  H1          -13.4996613012        0.2877934470       -0.2027476094  CLST         113          1.0000000000
       339       113  TIP3  H2          -12.3408922572        0.9891715640       -0.9109706888  CLST         113          1.0000000000
       340       114  TIP3  OH2         -13.8296555867        3.5602782323       -0.3397503963  CLST         114          1.0000000000
       341       114  TIP3  H1          -13.5880504924        2.6247248156       -0.1684977669  CLST         114          1.0000000000
       342       114  TIP3  H2          -13.2648138471        3.6181529144       -1.1984766200  CLST         114          1.0000000000
       343       115  TIP3  OH2          -8.9369707585        0.2832041137      -10.7550114844  CLST         115          1.0000000000
       344       115  TIP3  H1           -8.3450173596        0.3196418940      -11.5598686106  CLST         115          1.0000000000
       345       115  TIP3  H2           -9.0875572846        1.2542130987      -10.9185005455  CLST         115          1.0000000000
       346       116  TIP3  OH2           7.0378483018       -5.5219690578        2.0330314292  CLST         116          1.0000000000
       347       116  TIP3  H1            7.8499688765       -5.7421937560        1.5452547486  CLST         116          1.0000000000
       348       116  TIP3  H2            7.0371266146       -4.5689841947        2.2820322119  CLST         116          1.0000000000
       349       117  TIP3  OH2          -0.7708770480        0.0713991952       12.4394302192  CLST         117          1.0000000000
       350       117  TIP3  H1           -0.6912102887       -0.7853111699       12.8567049836  CLST         117          1.0000000000
       351       117  TIP3  H2            0.0866908052        0.3681138993       12.7939130037  CLST         117          1.0000000000
       352       118  TIP3  OH2           0.1579992082       -9.6104129242        5.0009435997  CLST         118          1.0000000000
       353       118  TIP3  H1           -0.0231338313       -9.4953827540        5.9628016608  CLST         118          1.0000000000
       354       118  TIP3  H2           -0.1800796351       -8.8615264766        4.4868309837  CLST         118          1.0000000000
       355       119  TIP3  OH2          -9.1540751849      -10.3279777664       -8.7202897605  CLST         119          1.0000000000
       356       119  TIP3  H1           -9.3766880752      -10.7584852910       -9.6107091440  CLST         119          1.0000000000
       357       119  TIP3  H2           -8.6627925628       -9.5682881892       -9.1392170111  CLST         119          1.0000000000
       358       120  TIP3  OH2           9.5698905864       -7.9866721795        1.3206560020  CLST         120          1.0000000000
       359       120  TIP3  H1            8.8980302346       -8.6594636935        1.0671589301  CLST         120          1.0000000000
       360       120  TIP3  H2            9.4277689703       -7.3051106460        0.6255167966  CLST         120          1.0000000000
       361       121  TIP3  OH2          -5.8195226370       -0.1858473971       -8.0608969317  CLST         121          1.0000000000
       362       121  TIP3  H1           -5.6225736410       -0.0433282629       -9.0434407145  CLST         121          1.0000000000
       363       121  TIP3  H2           -5.1001670499       -0.8623676417       -7.8732879225  CLST         121          1.0000000000
       364       122  TIP3  OH2          10.3990247027       12.0941962122        5.1108556981  CLST         122          1.0000000000
       365       122  TIP3  H1            9.5289336688       12.4681902140        5.4853063625  CLST         122          1.0000000000
       366       122  TIP3  H2           10.9419255635       12.1977164177        5.9385221477  CLST         122          1.0000000000
       367       123  TIP3  OH2          -7.3463194063       -5.5065592090      -11.2641796368  CLST         123          1.0000000000
       368       123  TIP3  H1           -6.5336030492       -6.0099221416      -11.3413032994  CLST         123          1.0000000000
       369       123  TIP3  H2           -7.4953295515       -5.4510701588      -10.3079650025  CLST         123          1.0000000000
       370       124  TIP3  OH2          -6.0764808367       -8.6870722510      -10.7498026169  CLST         124          1.0000000000
       371       124  TIP3  H1           -5.2503298118       -8.8668081627      -10.1973443993  CLST         124          1.0000000000
       372       124  TIP3  H2           -6.6260218256       -8.3646187184       -9.9862582226  CLST         124          1.0000000000
       373       125  TIP3  OH2         -13.5350420735        3.9750900419        8.1096008922  CLST         125          1.0000000000
       374       125  TIP3  H1          -13.3821662308        3.1940023253        7.5178273868  CLST         125          1.0000000000
       375       125  TIP3  H2          -13.8608339846        4.7456561592        7.6090759393  CLST         125          1.0000000000
       376       126  TIP3  OH2          -7.1140241555      -10.6945036994      -12.0694106236  CLST         126          1.0000000000
       377       126  TIP3  H1           -6.2844980905      -11.2341212642      -11.8392774126  CLST         126          1.0000000000
       378       126  TIP3  H2           -6.8140533708       -9.8431082140      -11.5074261761  CLST         126          1.0000000000
       379       127  TIP3  OH2          -7.3174413651      -11.6517051635       -7.1838922355  CLST         127          1.0000000000
       380       127  TIP3  H1           -7.8909235876      -12.4479688116       -7.1526838273  CLST         127          1.0000000000
       381       127  TIP3  H2           -7.8712547209      -11.1601631925       -7.8846596932  CLST         127          1.0000000000
       382       128  TIP3  OH2           9.9398833923        0.9490765575       -2.5253663007  CLST         128          1.0000000000
       383       128  TIP3  H1            9.0350633398        0.6037880615       -2.3597100969  CLST         128          1.0000000000
       384       128  TIP3  H2            9.7035639605        1.6286017816       -3.2181719889  CLST         128          1.0000000000
       385       129  TIP3  OH2          -7.8344560738        9.6496167048        0.9567149456  CLST         129          1.0000000000
       386       129  TIP3  H1           -6.9965150253       10.1601222337        1.1298472577  CLST         129          1.0000000000
       387       129  TIP3  H2           -7.4646201590        8.7703835826        0.6707411058  CLST         129          1.0000000000
       388       130  TIP3  OH2          -4.0096525065        4.0424019623        9.8484493688  CLST         130          1.0000000000
       389       130  TIP3  H1           -3.4290711572        4.8273878933        9.8436521833  CLST         130          1.0000000000
       390       130  TIP3  H2           -3.7703224206        3.5457880279       10.6577996955  CLST         130          1.0000000000
       391       131  TIP3  OH2           7.8400348337       -3.8148528378       -9.7415075797  CLST         131          1.0000000000
       392       131  TIP3  H1            7.7585886291       -3.0435273481       -9.0994179513  CLST         131          1.0000000000
       393       131  TIP3  H2            6.8342786717       -3.9695178652       -9.7628504750  CLST         131          1.0000000000
       394       132  TIP3  OH2         -11.4472467603       11.3789328975       12.2550136161  CLST         132          1.0000000000
       395       132  TIP3  H1          -10.9799776006       11.9632627863       11.5934497168  CLST         132          1.0000000000
       396       132  TIP3  H2          -11.7332816302       11.9827582091       12.8756935835  CLST         132          1.0000000000
       397       133  TIP3  OH2          10.3469289367        9.3821240769        8.6788588670  CLST         133          1.0000000000
       398       133  TIP3  H1           10.6919972283        8.7818647311        9.4054388970  CLST         133          1.0000000000
       399       133  TIP3  H2           11.1353551927        9.9753745623        8.7027943261  CLST         133          1.0000000000
       400       134  TIP3  OH2          -7.6376518184        5.9754879120       -5.9535809565  CLST         134          1.0000000000
       401       134  TIP3  H1           -8.4551348974        6.4789329189       -5.7206724895  CLST         134          1.0000000000
       402       134  TIP3  H2           -7.2404223136        5.9123339655       -5.0449191000  CLST         134          1.0000000000
       403       135  TIP3  OH2          10.7160559430      -11.3621083459      -13.2413941341  CLST         135          1.0000000000
       404       135  TIP3  H1           11.0221160181      -10.5501805322      -12.8316886227  CLST         135          1.0000000000
       405       135  TIP3  H2           10.7246965332      -11.2574399733      -14.1432975648  CLST         135          1.0000000000
       406       136  TIP3  OH2          -4.2444242281        1.8663706558       -6.9927049942  CLST         136          1.0000000000
       407       136  TIP3  H1           -4.9079823980        1.2155120015       -7.3289553648  CLST         136          1.0000000000
       408       136  TIP3  H2           -4.8537309544        2.4320639350       -6.4736842944  CLST         136          1.0000000000
       409       137  TIP3  OH2          12.8819637580       10.3534076144        9.1605280058  CLST         137          1.0000000000
       410       137  TIP3  H1           12.8612427825       10.1428283584       10.1414577413  CLST         137          1.0000000000
       411       137  TIP3  H2           13.7780190988       10.0006368256        8.9935189427  CLST         137          1.0000000000
       412       138  TIP3  OH2          -0.7196689874       -9.9270054712        1.5851258168  CLST         138          1.0000000000
       413       138  TIP3  H1           -1.0181988521       -9.6973524891        0.7249752239  CLST         138          1.0000000000
       414       138  TIP3  H2           -0.9149992024       -9.1928788194        2.1937357576  CLST         138          1.0000000000
       415       139  TIP3  OH2          -9.5697189197      -10.7670987764        4.5514624721  CLST         139          1.0000000000
       416       139  TIP3  H1          -10.3112087828      -10.7114205325        3.9110644520  CLST         139          1.0000000000
       417       139  TIP3  H2           -9.0813663119      -11.4726416285        4.0088552595  CLST         139          1.0000000000
       418       140  TIP3  OH2          -6.9912339456        3.5312650189       -0.4094785933  CLST         140          1.0000000000
       419       140  TIP3  H1           -6.1968462508        4.0505436989       -0.1068905298  CLST         140          1.0000000000
       420       140  TIP3  H2           -7.7064373762        4.1602045420       -0.6217923290  CLST         140          1.0000000000
       421       141  TIP3  OH2           2.0136416289       -4.5035310486       -3.6018129510  CLST         141          1.0000000000
       422       141  TIP3  H1            1.5490308640       -3.6493005933       -3.3915172932  CLST         141          1.0000000000
       423       141  TIP3  H2            2.7161138071       -4.0144660909       -4.1379730321  CLST         141          1.0000000000
       424       142  TIP3  OH2         -11.7639402173        0.0309939431        4.7181915772  CLST         142          1.0000000000
       425       142  TIP3  H1          -11.8751816494        0.6881131750        5.4355992952  CLST         142          1.0000000000
       426       142  TIP3  H2          -12.0537105621        0.5588122655        3.9625252586  CLST         142          1.0000000000
       427       143  TIP3  OH2           9.3458328765       -5.7451648060       -8.1972582670  CLST         143          1.0000000000
       428       143  TIP3  H1            9.2455672432       -4.9706151284       -8.7841999259  CLST         143          1.0000000000
       429       143  TIP3  H2            9.8853462739       -6.4088288546       -8.6578299505  CLST         143          1.0000000000
       430       144  TIP3  OH2           3.3393768270       -2.8373349852        9.0745777567  CLST         144          1.0000000000
       431       144  TIP3  H1            2.5493635234       -2.5176809948        9.6006530179  CLST         144          1.0000000000
       432       144  TIP3  H2            3.2418251265       -2.1922077308        8.3307577207  CLST         144          1.0000000000
       433       145  TIP3  OH2         -10.1877803463       13.4496487055        3.1707559324  CLST         145          1.0000000000
       434       145  TIP3  H1          -10.7100175294       13.3005711600        2.3425244915  CLST         145          1.0000000000
       435       145  TIP3  H2           -9.6398695053       12.6576380199        3.1888690166  CLST         145          1.0000000000
       436       146  TIP3  OH2           9.1661054766        2.7357004337       -4.2343526787  CLST         146          1.0000000000
       437       146  TIP3  H1            8.9309610242        3.6960796312       -4.1080539636  CLST         146          1.0000000000
       438       146  TIP3  H2            8.5410371755        2.6515450897       -5.0796488257  CLST         146          1.0000000000
       439       147  TIP3  OH2         -11.2098834915       -0.3179167428       -4.1556312238  CLST         147          1.0000000000
       440       147  TIP3  H1          -10.3397507896       -0.7121118202       -4.3607819353  CLST         147          1.0000000000
       441       147  TIP3  H2          -11.5688445034       -0.5761986464       -5.1091281595  CLST         147          1.0000000000
       442       148  TIP3  OH2          -8.0104037117        1.3057887149        8.8812289666  CLST         148          1.0000000000
       443       148  TIP3  H1           -7.9106503324        1.0590356196        7.9202205945  CLST         148          1.0000000000
       444       148  TIP3  H2           -7.0166980993        1.4550864176        9.0166874457  CLST         148          1.0000000000
       445       149  TIP3  OH2           8.5881938705       -2.8962117288        0.8207730020  CLST         149          1.0000000000
       446       149  TIP3  H1            9.1970486836       -2.1069236212        0.7438085576  CLST         149          1.0000000000
       447       149  TIP3  H2            8.1272725912       -2.6459916340        1.7084551819  CLST         149          1.0000000000
       448       150  TIP3  OH2          -2.1192717577      -11.6666292251        8.4966254893  CLST         150          1.0000000000
       449       150  TIP3  H1           -2.9845389017      -11.7991951385        8.9635933004  CLST         150          1.0000000000
       450       150  TIP3  H2           -1.5117649104      -11.9992557143        9.2113705441  CLST         150          1.0000000000
       451       151  TIP3  OH2          -9.1807005955       -6.4421445261       -4.9570792731  CLST         151          1.0000000000
       452       151  TIP3  H1           -8.1956607012       -6.3984277703       -4.6588173907  CLST         151          1.0000000000
       453       151  TIP3  H2           -8.9411801226       -7.3140224558       -5.4541543530  CLST         151          1.0000000000
       454       152  TIP3  OH2           3.6606012630       -2.0490273774        4.9912054520  CLST         152          1.0000000000
       455       152  TIP3  H1            4.1440020927       -2.7708982056        5.4575184958  CLST         152          1.0000000000
       456       152  TIP3  H2            3.5911440166       -2.4410803175        4.0969719076  CLST         152          1.0000000000
       457       153  TIP3  OH2          -2.6143500918        4.7373394846      -14.1013317017  CLST         153          1.0000000000
       458       153  TIP3  H1           -1.8876195594        5.2560827413      -13.6305538915  CLST         153          1.0000000000
       459       153  TIP3  H2           -2.6458347699        4.1389892383      -13.3299308004  CLST         153          1.0000000000
       460       154  TIP3  OH2           4.4880936820       -6.8838589405        2.1294308709  CLST         154          1.0000000000
       461       154  TIP3  H1            5.2762506362       -6.3868087114        1.8392897412  CLST         154          1.0000000000
       462       154  TIP3  H2            3.7811838511       -6.4238280274        1.6260720484  CLST         154          1.0000000000
       463       155  TIP3  OH2           9.4182644018       -2.6685629959       10.2107049476  CLST         155          1.0000000000
       464       155  TIP3  H1            8.8604855214       -3.0112967964        9.4535656774  CLST         155          1.0000000000
       465       155  TIP3  H2            9.3504418152       -3.5087743542       10.7042528687  CLST         155          1.0000000000
       466       156  TIP3  OH2          -2.1936063294       11.3487150597       11.4974091079  CLST         156          1.0000000000
       467       156  TIP3  H1           -2.9103305443       11.9138208076       11.6449987882  CLST         156          1.0000000000
       468       156  TIP3  H2           -2.7062789297       10.5312952082       11.3947000282  CLST         156          1.0000000000
       469       157  TIP3  OH2           4.0763035327       -0.7828464072        7.3205187649  CLST         157          1.0000000000
       470       157  TIP3  H1            4.9892401655       -1.0375684034        7.5169394299  CLST         157          1.0000000000
       471       157  TIP3  H2            3.9006429601       -1.2142444296        6.4735314616  CLST         157          1.0000000000
       472       158  TIP3  OH2          10.7848228300        9.1965417876       13.1520680890  CLST         158          1.0000000000
       473       158  TIP3  H1            9.9908453553        8.6733552228       13.3951423274  CLST         158          1.0000000000
       474       158  TIP3  H2           10.2014994711        9.7624778919       12.5223908021  CLST         158          1.0000000000
       475       159  TIP3  OH2           0.5254250315      -12.2094355071        4.4233855084  CLST         159          1.0000000000
       476       159  TIP3  H1           -0.1416956719      -12.6070820652        5.0415036384  CLST         159          1.0000000000
       477       159  TIP3  H2            0.2500435122      -11.2611993322        4.6410885894  CLST         159          1.0000000000
       478       160  TIP3  OH2           7.4543697401       -3.6466183191        8.5912062930  CLST         160          1.0000000000
       479       160  TIP3  H1            7.4230432062       -3.8484750676        7.6222017052  CLST         160          1.0000000000
       480       160  TIP3  H2            6.8120164297       -2.8795895784        8.5080017791  CLST         160          1.0000000000
       481       161  TIP3  OH2          -2.4243839885       -2.3565820836        7.9676802834  CLST         161          1.0000000000
       482       161  TIP3  H1           -1.9258333949       -1.7923763885        8.6320484817  CLST         161          1.0000000000
       483       161  TIP3  H2           -3.2794497732       -2.2811440421        8.4794693467  CLST         161          1.0000000000
       484       162  TIP3  OH2          -0.7280431445        3.6529039964      -10.6831520487  CLST         162          1.0000000000
       485       162  TIP3  H1           -0.4734695665        4.4251126741      -11.2157073623  CLST         162          1.0000000000
       486       162  TIP3  H2           -0.7601902913        3.8593033263       -9.7358230591  CLST         162          1.0000000000
       487       163  TIP3  OH2          -9.9795349360        9.1351676661       11.1448370129  CLST         163          1.0000000000
       488       163  TIP3  H1          -10.5889821952        8.3602380560       11.2693188722  CLST         163          1.0000000000
       489       163  TIP3  H2          -10.2974365470        9.6571190214       11.8869597963  CLST         163          1.0000000000
       490       164  TIP3  OH2           3.9024004322      -10.4481151146       13.1486086656  CLST         164          1.0000000000
       491       164  TIP3  H1            4.4478795862       -9.6148232189       12.9633824427  CLST         164          1.0000000000
       492       164  TIP3  H2            4.7433722246      -10.9848017292       12.8974529625  CLST         164          1.0000000000
       493       165  TIP3  OH2         -12.1966981618       -5.3740235581        3.6173620887  CLST         165          1.0000000000
       494       165  TIP3  H1          -11.9061856006       -5.4502006952        4.5986304212  CLST         165          1.0000000000
       495       165  TIP3  H2          -13.1306216288       -5.4786622853        3.6941169322  CLST         165          1.0000000000
       496       166  TIP3  OH2          -1.5588020180       -6.4567426549      -10.2893075890  CLST         166          1.0000000000
       497       166  TIP3  H1           -0.6036076389       -6.7440957474      -10.4021807224  CLST         166          1.0000000000
       498       166  TIP3  H2           -1.9183050548       -7.3390644286      -10.2991047607  CLST         166          1.0000000000
       499       167  TIP3  OH2           7.9736645244       10.6914881018       -0.9095015808  CLST         167          1.0000000000
       500       167  TIP3  H1            8.6281285810       10.1953938231       -0.2885657618  CLST         167          1.0000000000
       501       167  TIP3  H2            8.4884493908       10.4191824353       -1.7272013968  CLST         167          1.0000000000
       502       168  TIP3  OH2          -0.8536837463      -13.3173409972        2.0626428686  CLST         168          1.0000000000
       503       168  TIP3  H1           -0.4021434952      -13.0296800721        2.9384384507  CLST         168          1.0000000000
       504       168  TIP3  H2           -0.0997250484      -13.8409266341        1.6816133814  CLST         168          1.0000000000
       505       169  TIP3  OH2           4.9585807566        4.1096315757        3.1363483534  CLST         169          1.0000000000
       506       169  TIP3  H1            3.9817755008        3.9205365866        3.0337006998  CLST         169          1.0000000000
       507       169  TIP3  H2            5.0697902165        4.7373109451        2.3691771979  CLST         169          1.0000000000
       508       170  TIP3  OH2          -1.1254972653        4.3576139359        1.3761712027  CLST         170          1.0000000000
       509       170  TIP3  H1           -1.8235057901        5.0866981643        1.2682000703  CLST         170          1.0000000000
       510       170  TIP3  H2           -1.4801902067        3.4701316376        1.3973200533  CLST         170          1.0000000000
       511       171  TIP3  OH2          -3.0474414328        1.2339500391        7.2935121707  CLST         171          1.0000000000
       512       171  TIP3  H1           -2.6518006703        0.6580383820        6.5962195805  CLST         171          1.0000000000
       513       171  TIP3  H2           -2.2213452678        1.6681044733        7.5554768652  CLST         171          1.0000000000
       514       172  TIP3  OH2          -6.4856838979      -13.1033085578        8.0957720768  CLST         172          1.0000000000
       515       172  TIP3  H1           -7.1019658681      -13.4389418164        7.4886282649  CLST         172          1.0000000000
       516       172  TIP3  H2           -5.7928260505      -12.8209924940        7.4053815220  CLST         172          1.0000000000
       517       173  TIP3  OH2          10.1477137714      -12.5634658945        1.8608666519  CLST         173          1.0000000000
       518       173  TIP3  H1           10.3368664573      -12.4791456213        0.8812973789  CLST         173          1.0000000000
       519       173  TIP3  H2            9.2164125933      -12.3854196137        1.8801139929  CLST         173          1.0000000000
       520       174  TIP3  OH2          -0.1079492053        5.6129042143        9.6741858750  CLST         174          1.0000000000
       521       174  TIP3  H1           -0.2299515763        4.7610578108       10.1821718247  CLST         174          1.0000000000
       522       174  TIP3  H2           -0.9863443993        6.0406924858        9.8069229402  CLST         174          1.0000000000
       523       175  TIP3  OH2          -5.6936887662       10.3636259736       -3.6504407672  CLST         175          1.0000000000
       524       175  TIP3  H1           -5.2719534047       10.1100923620       -4.5167209856  CLST         175          1.0000000000
       525       175  TIP3  H2           -6.6018525010       10.1140449053       -4.0341533760  CLST         175          1.0000000000
       526       176  TIP3  OH2           6.8434945694        9.1469819571       -7.7599810950  CLST         176          1.0000000000
       527       176  TIP3  H1            7.0171354394        9.9589570973       -8.2888750226  CLST         176          1.0000000000
       528       176  TIP3  H2            6.3833924202        9.5854729025       -6.9838555241  CLST         176          1.0000000000
       529       177  TIP3  OH2          -3.8260866563      -11.3685101407       -1.5428271133  CLST         177          1.0000000000
       530       177  TIP3  H1           -3.2593717709      -12.0354840820       -1.0770922095  CLST         177          1.0000000000
       531       177  TIP3  H2           -4.5074325600      -11.1894225802       -0.8799134882  CLST         177          1.0000000000
       532       178  TIP3  OH2          10.6876591255       -8.9976559076      -11.4265670394  CLST         178          1.0000000000
       533       178  TIP3  H1           11.1367735308       -8.8511968238      -10.5746297597  CLST         178          1.0000000000
       534       178  TIP3  H2           10.7278878877       -8.0795982974      -11.7906840332  CLST         178          1.0000000000
       535       179  TIP3  OH2           6.5905963987       -0.9847672389        8.4041029323  CLST         179          1.0000000000
       536       179  TIP3  H1            6.2713858249       -0.4052178527        9.1325551850  CLST         179          1.0000000000
       537       179  TIP3  H2            7.3461247762       -0.4201263610        8.1302925429  CLST         179          1.0000000000
       538       180  TIP3  OH2          -7.6099429736        8.0718990701        6.0450778209  CLST         180          1.0000000000
       539       180  TIP3  H1           -7.4189885884        7.5300427848        6.8742147031  CLST         180          1.0000000000
       540       180  TIP3  H2           -8.5477845859        8.1466017508        6.2874318345  CLST         180          1.0000000000
       541       181  TIP3  OH2           6.0466187408      -12.9997671408       -0.3865660472  CLST         181          1.0000000000
       542       181  TIP3  H1            6.7445328162      -12.8616867064       -1.0240388010  CLST         181          1.0000000000
       543       181  TIP3  H2            6.4258636247      -12.9013581906        0.5228052013  CLST         181          1.0000000000
       544       182  TIP3  OH2          -1.5465324963       10.5672717093      -10.3798662550  CLST         182          1.0000000000
       545       182  TIP3  H1           -0.7617098467       10.8654083492       -9.8959853659  CLST         182          1.0000000000
       546       182  TIP3  H2           -2.2195742013       10.5395225679       -9.6399740302  CLST         182          1.0000000000
       547       183  TIP3  OH2          -5.3731284898        3.5569075901      -12.3395223327  CLST         183          1.0000000000
       548       183  TIP3  H1           -5.2029694956        3.4890803940      -11.3458491043  CLST         183          1.0000000000
       549       183  TIP3  H2           -6.3444638400        3.2399514149      -12.2304238773  CLST         183          1.0000000000
       550       184  TIP3  OH2           3.0818927839        8.3280657089       -2.4690716302  CLST         184          1.0000000000
       551       184  TIP3  H1            3.2324623968        7.4690291713       -2.0220415334  CLST         184          1.0000000000
       552       184  TIP3  H2            2.0914017076        8.2137138455       -2.5906358286  CLST         184          1.0000000000
       553       185  TIP3  OH2           7.4971137772        4.6686074868       11.9108131423  CLST         185          1.0000000000
       554       185  TIP3  H1            7.6976017879        3.6921747003       12.0187002402  CLST         185          1.0000000000
       555       185  TIP3  H2            7.0590957866        4.9111595218       12.7662794561  CLST         185          1.0000000000
       556       186  TIP3  OH2           3.8505952417        5.8656274988       -5.0896227816  CLST         186          1.0000000000
       557       186  TIP3  H1            4.0911339972        6.8169437331       -5.3087035956  CLST         186          1.0000000000
       558       186  TIP3  H2            3.9403999039        5.4522779695       -5.9892422197  CLST         186          1.0000000000
       559       187  TIP3  OH2           4.1195013492        1.6656189750       -5.4794295440  CLST         187          1.0000000000
       560       187  TIP3  H1            4.3863034692        1.6345800632       -4.5211682025  CLST         187          1.0000000000
       561       187  TIP3  H2            3.6776317641        0.7686388354       -5.5669029177  CLST         187          1.0000000000
       562       188  TIP3  OH2          -4.6557685528       -1.5466458478        4.7460641080  CLST         188          1.0000000000
       563       188  TIP3  H1           -4.6368299212       -0.6893613777        4.2572962559  CLST         188          1.0000000000
       564       188  TIP3  H2           -4.8428735944       -1.2849632843        5.7046327421  CLST         188          1.0000000000
       565       189  TIP3  OH2          -5.2536988861        3.5848899560      -15.1639441695  CLST         189          1.0000000000
       566       189  TIP3  H1           -5.1950318150        3.5209071897      -14.1824195447  CLST         189          1.0000000000
       567       189  TIP3  H2           -4.3408821439        3.9288416830      -15.2712300020  CLST         189          1.0000000000
       568       190  TIP3  OH2           7.2253002917       -5.6100750620        5.2515558683  CLST         190          1.0000000000
       569       190  TIP3  H1            6.9125894578       -5.9658276783        4.3766931588  CLST         190          1.0000000000
       570       190  TIP3  H2            8.1616409281       -5.5807872401        4.9751030692  CLST         190          1.0000000000
       571       191  TIP3  OH2         -10.9131820146       -4.9133471951       -6.5012674279  CLST         191          1.0000000000
       572       191  TIP3  H1          -10.1529125499       -4.5205968423       -7.0087064745  CLST         191          1.0000000000
       573       191  TIP3  H2          -10.5798681928       -5.7786223362       -6.2540330179  CLST         191          1.0000000000
       574       192  TIP3  OH2           8.8000067126       14.3516166847        1.9395758644  CLST         192          1.0000000000
       575       192  TIP3  H1            8.2493588595       14.5492023878        2.7454182861  CLST         192          1.0000000000
       576       192  TIP3  H2            9.2045330270       15.2174791014        1.7484030872  CLST         192          1.0000000000
       577       193  TIP3  OH2           6.0754856377      -12.1405919742       11.6452021196  CLST         193          1.0000000000
       578       193  TIP3  H1            6.6211260732      -12.8773129290       11.3703756023  CLST         193          1.0000000000
       579       193  TIP3  H2            6.2252727376      -11.4723324545       10.9367172339  CLST         193          1.0000000000
       580       194  TIP3  OH2          -6.3203552491       -4.3919232465       11.0868239898  CLST         194          1.0000000000
       581       194  TIP3  H1           -6.6362576673       -4.2183776676       11.9920454719  CLST         194          1.0000000000
       582       194  TIP3  H2           -7.0863924678       -4.2602478104       10.4658366876  CLST         194          1.0000000000
       583       195  TIP3  OH2          -7.5054733956        9.0998220032       10.3156622619  CLST         195          1.0000000000
       584       195  TIP3  H1           -8.4196004313        8.8600597829       10.7244643170  CLST         195          1.0000000000
       585       195  TIP3  H2           -7.7130713278        8.4760012497        9.5553357794  CLST         195          1.0000000000
       586       196  TIP3  OH2           5.9604881609      -12.3129364503       -5.9583953520  CLST         196          1.0000000000
       587       196  TIP3  H1            6.1279951282      -11.5107771035       -6.5018044791  CLST         196          1.0000000000
       588       196  TIP3  H2            5.0645284719      -11.9604799657       -5.6737416267  CLST         196          1.0000000000
       589       197  TIP3  OH2           2.1294358382       -9.1479083747       -2.9040596982  CLST         197          1.0000000000
       590       197  TIP3  H1            1.7613981571       -8.2129747424       -2.8242894222  CLST         197          1.0000000000
       591       197  TIP3  H2            3.0396399617       -8.8824598146       -2.6721891387  CLST         197          1.0000000000
       592       198  TIP3  OH2          10.7517138869        1.8814638277        4.7146880117  CLST         198          1.0000000000
       593       198  TIP3  H1           10.0771940779        1.6310126033        4.0850608739  CLST         198          1.0000000000
       594       198  TIP3  H2           10.8602004691        2.7660150310        4.2820305878  CLST         198          1.0000000000
       595       199  TIP3  OH2          -0.1231081605        8.3899653971       -5.8311597854  CLST         199          1.0000000000
       596       199  TIP3  H1           -0.7729361781        8.8140185157       -5.2029078424  CLST         199          1.0000000000
       597       199  TIP3  H2           -0.4039250404        7.4558352462       -5.6988468461  CLST         199          1.0000000000
       598       200  TIP3  OH2          -7.5304868623       11.9060360217       10.9208734616  CLST         200          1.0000000000
       599       200  TIP3  H1           -7.5134567324       10.9150324046       10.8761046934  CLST         200          1.0000000000
       600       200  TIP3  H2           -7.3495447780       12.0897138909        9.9647000462  CLST         200          1.0000000000
       601       201  TIP3  OH2           4.3961340247        0.9057198621       -0.0923098877  CLST         201          1.0000000000
       602       201  TIP3  H1            4.0678611785        1.6667819437        0.4080736310  CLST         201          1.0000000000
       603       201  TIP3  H2            5.1868469820        0.7054342840        0.4447153305  CLST         201          1.0000000000
       604       202  TIP3  OH2          -2.0086527999       -4.2183640853      -12.4379394525  CLST         202          1.0000000000
       605       202  TIP3  H1           -1.6314740336       -4.6371834744      -11.6558874631  CLST         202          1.0000000000
       606       202  TIP3  H2           -2.5075189932       -3.4984324129      -11.9980847612  CLST         202          1.0000000000
       607       203  TIP3  OH2          -0.7376259525       11.3441379616        7.4938244562  CLST         203          1.0000000000
       608       203  TIP3  H1            0.0569067613       11.0238694795        7.9858960103  CLST         203          1.0000000000
       609       203  TIP3  H2           -1.4503268494       10.9416726042        8.0826290154  CLST         203          1.0000000000
       610       204  TIP3  OH2          -5.4385991341        6.3998215108      -13.2802266929  CLST         204          1.0000000000
       611       204  TIP3  H1           -4.7536783125        6.3834177605      -13.9763972302  CLST         204          1.0000000000
       612       204  TIP3  H2           -5.6228865206        5.4227457956      -13.2517574521  CLST         204          1.0000000000
       613       205  TIP3  OH2          -2.3485827117        7.1114553078       -2.5683160599  CLST         205          1.0000000000
       614       205  TIP3  H1           -2.3508130508        7.6977939027       -3.3819205872  CLST         205          1.0000000000
       615       205  TIP3  H2           -1.3329142766        7.1108606874       -2.5113399321  CLST         205          1.0000000000
       616       206  TIP3  OH2           5.0156685353      -11.1584824915       -9.8930331909  CLST         206          1.0000000000
       617       206  TIP3  H1            5.0815134010      -12.0550931497       -9.3834260980  CLST         206          1.0000000000
       618       206  TIP3  H2            5.5214858095      -10.6581671019       -9.1783713177  CLST         206          1.0000000000
       619       207  TIP3  OH2          12.9090562465       10.1946434256       12.2466373625  CLST         207          1.0000000000
       620       207  TIP3  H1           12.1665052614        9.8082874762       12.8631150690  CLST         207          1.0000000000
       621       207  TIP3  H2           13.6275855895       10.1666807651       12.6887586140  CLST         207          1.0000000000
       622       208  TIP3  OH2         -11.5769899561        2.2198557394        6.7568293290  CLST         208          1.0000000000
       623       208  TIP3  H1          -11.3038354552        2.2149411383        7.7393609038  CLST         208          1.0000000000
       624       208  TIP3  H2          -11.4040753405        3.1677094213        6.5597228639  CLST         208          1.0000000000
       625       209  TIP3  OH2           4.4176923982       -9.2187289158        7.3948039811  CLST         209          1.0000000000
       626       209  TIP3  H1            3.9779338930       -9.7796706435        6.6966976944  CLST         209          1.0000000000
       627       209  TIP3  H2            3.6197173507       -8.5712119678        7.3247610770  CLST         209          1.0000000000
       628       210  TIP3  OH2          12.0867830815      -11.1931184679        5.3840083484  CLST         210          1.0000000000
       629       210  TIP3  H1           12.4439751232      -11.0456935594        4.4367801478  CLST         210          1.0000000000
       630       210  TIP3  H2           12.2357825599      -10.3760627354        5.8475866443  CLST         210          1.0000000000
       631       211  TIP3  OH2          -0.2480364553       -9.2885778072       12.1883533774  CLST         211          1.0000000000
       632       211  TIP3  H1            0.2265325821       -9.7092251884       12.9593558203  CLST         211          1.0000000000
       633       211  TIP3  H2           -0.9436019853      -10.0294374851       12.1485198500  CLST         211          1.0000000000
       634       212  TIP3  OH2         -12.3642679709        3.6013957814       -2.4262070501  CLST         212          1.0000000000
       635       212  TIP3  H1          -11.8971942419        4.2546344332       -2.9900615277  CLST         212          1.0000000000
       636       212  TIP3  H2          -12.0286072437        2.7677189131       -2.7178762358  CLST         212          1.0000000000
       637       213  TIP3  OH2          -9.5228974936      -11.3336177360      -11.4833773408  CLST         213          1.0000000000
       638       213  TIP3  H1           -9.6468406891      -11.4769535453      -12.3233858101  CLST         213          1.0000000000
       639       213  TIP3  H2           -8.1696566106      -11.2051946933      -12.5377904436  CLST         213          1.0000000000
       640       214  TIP3  OH2          -6.5818849445        2.2850075022       -5.4984517497  CLST         214          1.0000000000
       641       214  TIP3  H1           -6.4487513347        1.4193671680       -4.9910209729  CLST         214          1.0000000000
       642       214  TIP3  H2           -7.0603037670        2.7340700875       -4.7236024856  CLST         214          1.0000000000
       643       215  TIP3  OH2         -11.9303907296      -12.7684175104        5.7073245610  CLST         215          1.0000000000
       644       215  TIP3  H1          -11.1029182846      -12.3394776843        5.3947032290  CLST         215          1.0000000000
       645       215  TIP3  H2          -12.2236073661      -12.8813553950        4.7667703398  CLST         215          1.0000000000
       646       216  TIP3  OH2         -11.8263065157       -2.2469209377        8.0661412282  CLST         216          1.0000000000
       647       216  TIP3  H1          -10.8359602875       -2.1038244941        8.0318632306  CLST         216          1.0000000000
       648       216  TIP3  H2          -11.8409939095       -3.0887558589        8.5923779909  CLST         216          1.0000000000
       649       217  TIP3  OH2           7.4769012084       -0.3845870671       -1.5634635517  CLST         217          1.0000000000
       650       217  TIP3  H1            8.2124956305       -0.9811324586       -1.3879241608  CLST         217          1.0000000000
       651       217  TIP3  H2            6.7782083709       -0.9357419954       -1.0792039275  CLST         217          1.0000000000
       652       218  TIP3  OH2          -8.2000183767       -3.9534074601        9.2398298319  CLST         218          1.0000000000
       653       218  TIP3  H1           -8.5123035394       -3.0292332293        8.9517444530  CLST         218          1.0000000000
       654       218  TIP3  H2           -7.6450525422       -4.1781050793        8.4675468668  CLST         218          1.0000000000
       655       219  TIP3  OH2         -12.5192076578       -4.6069413139       -2.7507047349  CLST         219          1.0000000000
       656       219  TIP3  H1          -12.6705292307       -3.6685555359       -2.4083726297  CLST         219          1.0000000000
       657       219  TIP3  H2          -12.8866936464       -4.4102292229       -3.6599110944  CLST         219          1.0000000000
       658       220  TIP3  OH2           6.4547573414        6.8218270630        7.7117196474  CLST         220          1.0000000000
       659       220  TIP3  H1            6.0686824477        6.5128080627        6.8701938202  CLST         220          1.0000000000
       660       220  TIP3  H2            5.6253913531        6.7762554957        8.2229080856  CLST         220          1.0000000000
       661       221  TIP3  OH2         -10.3268138697       -7.1534848985       10.3222105199  CLST         221          1.0000000000
       662       221  TIP3  H1           -9.4200780133       -6.9524157609       10.0915596920  CLST         221          1.0000000000
       663       221  TIP3  H2          -10.4638087269       -8.1010490209       10.0302167206  CLST         221          1.0000000000
       664       222  TIP3  OH2          -6.7609597285       -0.8003950649      -13.7576917686  CLST         222          1.0000000000
       665       222  TIP3  H1           -6.1749724678       -1.6592981080      -13.7128813494  CLST         222          1.0000000000
       666       222  TIP3  H2           -7.3440725227       -1.0118980316      -13.0117661247  CLST         222          1.0000000000
       667       223  TIP3  OH2           2.7631379580      -10.8587066779      -11.6993168417  CLST         223          1.0000000000
       668       223  TIP3  H1            2.1740695883      -11.6272578522      -11.4584328706  CLST         223          1.0000000000
       669       223  TIP3  H2            3.5636504061      -11.0466970406      -11.1972401161  CLST         223          1.0000000000
       670       224  TIP3  OH2           7.6441941457        4.8760845352        0.6816993458  CLST         224          1.0000000000
       671       224  TIP3  H1            8.5640007325        5.1127764646        0.8946882665  CLST         224          1.0000000000
       672       224  TIP3  H2            7.6670418693        4.5690155051       -0.2544781751  CLST         224          1.0000000000
       673       225  TIP3  OH2          -0.4021122410        4.6274791530       -1.2956868898  CLST         225          1.0000000000
       674       225  TIP3  H1           -0.9425172048        4.5420752593       -0.4650486675  CLST         225          1.0000000000
       675       225  TIP3  H2           -0.0795801722        3.6635955883       -1.3363248643  CLST         225          1.0000000000
       676       226  TIP3  OH2          -5.8140283625       -4.3136138395        7.5687683811  CLST         226          1.0000000000
       677       226  TIP3  H1           -5.7146361386       -5.3107803804        7.7188659367  CLST         226          1.0000000000
       678       226  TIP3  H2           -6.0020115574       -4.2544979122        6.6050117492  CLST         226          1.0000000000
       679       227  TIP3  OH2          11.6687119134       -4.0814301049       -9.8506018046  CLST         227          1.0000000000
       680       227  TIP3  H1           11.8758421025       -3.6934406776       -8.9296238702  CLST         227          1.0000000000
       681       227  TIP3  H2           11.4629254128       -3.2418102367      -10.3040659094  CLST         227          1.0000000000
       682       228  TIP3  OH2           3.5706317998       12.4874267804        3.2072202997  CLST         228          1.0000000000
       683       228  TIP3  H1            2.7484306173       11.9377399128        3.6930342229  CLST         228          1.0000000000
       684       228  TIP3  H2            3.1254477075       12.3869815688        2.3781709456  CLST         228          1.0000000000
       685       229  TIP3  OH2         -11.5770005113      -12.9785931135        2.9209514749  CLST         229          1.0000000000
       686       229  TIP3  H1          -11.4421169321      -13.7588430280        2.5351289514  CLST         229          1.0000000000
       687       229  TIP3  H2          -10.9890168111      -12.3105565609        2.3764012622  CLST         229          1.0000000000
       688       230  TIP3  OH2          12.3198468692        6.2792878386       -3.4213204550  CLST         230          1.0000000000
       689       230  TIP3  H1           13.1973711444        6.3116632153       -3.8101168754  CLST         230          1.0000000000
       690       230  TIP3  H2           12.3420481254        5.2996120390       -3.2335913265  CLST         230          1.0000000000
       691       231  TIP3  OH2           7.2675324791        3.3793260969        4.8655923041  CLST         231          1.0000000000
       692       231  TIP3  H1            7.4440192090        4.3566993271        4.9640160475  CLST         231          1.0000000000
       693       231  TIP3  H2            6.3030103781        3.4867713488        4.6282135502  CLST         231          1.0000000000
       694       232  TIP3  OH2         -10.4008224270        8.9662613604        7.4299519386  CLST         232          1.0000000000
       695       232  TIP3  H1          -10.8694228222        9.4419072097        8.1740211281  CLST         232          1.0000000000
       696       232  TIP3  H2          -10.2559229057        8.0725776447        7.8316929550  CLST         232          1.0000000000
       697       233  TIP3  OH2           3.5335013227       -5.2700866165        7.8897408662  CLST         233          1.0000000000
       698       233  TIP3  H1            4.1714985192       -5.6637590543        8.5434133304  CLST         233          1.0000000000
       699       233  TIP3  H2            3.3900146526       -4.4686614704        8.4907708892  CLST         233          1.0000000000
       700       234  TIP3  OH2          -3.5432623500        8.5464258939       -0.6239741712  CLST         234          1.0000000000
       701       234  TIP3  H1           -3.2798886883        7.9561745667       -1.4032788428  CLST         234          1.0000000000
       702       234  TIP3  H2           -3.6609505166        9.3738912500       -1.2216727650  CLST         234          1.0000000000
       703       235  TIP3  OH2          -1.8726625209       -4.0534889774       -8.9910387761  CLST         235          1.0000000000
       704       235  TIP3  H1           -1.8676470790       -4.9706999170       -9.3309108544  CLST         235          1.0000000000
       705       235  TIP3  H2           -0.9386938629       -3.7964207471       -9.1986087625  CLST         235          1.0000000000
       706       236  TIP3  OH2          -0.2906853778      -13.6065549508       -2.9904038160  CLST         236          1.0000000000
       707       236  TIP3  H1            0.4320943358      -12.8691372250       -2.8655783526  CLST         236          1.0000000000
       708       236  TIP3  H2           -0.7392493092      -13.2823138993       -2.1588694186  CLST         236          1.0000000000
       709       237  TIP3  OH2          -3.7136792325       -5.1944682020       10.8833999809  CLST         237          1.0000000000
       710       237  TIP3  H1           -4.7302472944       -5.1527335464       10.8418000096  CLST         237          1.0000000000
       711       237  TIP3  H2           -3.6349222881       -6.0090348504       10.3509044210  CLST         237          1.0000000000
       712       238  TIP3  OH2           0.6177494060        4.6913814535        7.3439942740  CLST         238          1.0000000000
       713       238  TIP3  H1           -0.0570281885        5.2087188457        6.8465693396  CLST         238          1.0000000000
       714       238  TIP3  H2            0.2898631454        4.9438707445        8.2755420675  CLST         238          1.0000000000
       715       239  TIP3  OH2         -13.9596066818        6.0146084441        3.4160280872  CLST         239          1.0000000000
       716       239  TIP3  H1          -13.9361882395        6.5325657350        2.5856459248  CLST         239          1.0000000000
       717       239  TIP3  H2          -13.3886356439        5.2866124672        3.1596954827  CLST         239          1.0000000000
       718       240  TIP3  OH2         -14.0642123154        8.8658725360       -0.1996331599  CLST         240          1.0000000000
       719       240  TIP3  H1          -14.6951022548        8.9444469634        0.5328091568  CLST         240          1.0000000000
       720       240  TIP3  H2          -13.9635566540        7.8570735491       -0.1173270162  CLST         240          1.0000000000
       721       241  TIP3  OH2          -7.6566629986       -7.7629602456       -8.6579573553  CLST         241          1.0000000000
       722       241  TIP3  H1           -8.0408797446       -8.0091194479       -7.7819412384  CLST         241          1.0000000000
       723       241  TIP3  H2           -7.4422966675       -6.8025432178       -8.4303983293  CLST         241          1.0000000000
       724       242  TIP3  OH2           6.0244696293       -5.7516679785        9.6265629021  CLST         242          1.0000000000
       725       242  TIP3  H1            6.6785051939       -5.0360753063        9.3546514007  CLST         242          1.0000000000
       726       242  TIP3  H2            6.6852855970       -6.4676999670        9.3778241981  CLST         242          1.0000000000
       727       243  TIP3  OH2          -6.6566932656       -7.2362297407       -4.2860221842  CLST         243          1.0000000000
       728       243  TIP3  H1           -6.1151418415       -7.9888182610       -4.5458481854  CLST         243          1.0000000000
       729       243  TIP3  H2           -6.7333585817       -7.5382706670       -3.3277155571  CLST         243          1.0000000000
       730       244  TIP3  OH2           4.6537265549        5.9479787643        5.5309610524  CLST         244          1.0000000000
       731       244  TIP3  H1            5.1077567914        5.5973523002        4.7378502495  CLST         244          1.0000000000
       732       244  TIP3  H2            3.9031808413        5.3277366438        5.6619825319  CLST         244          1.0000000000
       733       245  TIP3  OH2          -6.9309264190        3.8062750327       -7.7744141955  CLST         245          1.0000000000
       734       245  TIP3  H1           -7.0555485702        3.1978529240       -7.0068686294  CLST         245          1.0000000000
       735       245  TIP3  H2           -7.2679319506        4.6114393562       -7.3622842076  CLST         245          1.0000000000
       736       246  TIP3  OH2           2.0905686120       -6.6689296044       -1.9901996167  CLST         246          1.0000000000
       737       246  TIP3  H1            2.0468420766       -5.9358495288       -2.6725580079  CLST         246          1.0000000000
       738       246  TIP3  H2            3.0824709773       -6.7227862389       -1.9179053838  CLST         246          1.0000000000
       739       247  TIP3  OH2           5.9297868227        7.9646436602        0.6722442714  CLST         247          1.0000000000
       740       247  TIP3  H1            6.2008356589        7.6448964135       -0.1957939390  CLST         247          1.0000000000
       741       247  TIP3  H2            5.7740352238        8.9131608740        0.5031236253  CLST         247          1.0000000000
       742       248  TIP3  OH2          -2.4700500024        8.2163453304      -11.8822441479  CLST         248          1.0000000000
       743       248  TIP3  H1           -2.3764017160        8.5387130016      -12.7994298502  CLST         248          1.0000000000
       744       248  TIP3  H2           -2.1822916977        9.0090600185      -11.3992099551  CLST         248          1.0000000000
       745       249  TIP3  OH2           8.8939873989        4.7987683443       -7.6943822046  CLST         249          1.0000000000
       746       249  TIP3  H1            8.3451625645        5.5160157306       -7.2572993772  CLST         249          1.0000000000
       747       249  TIP3  H2            8.4704982635        3.9973552522       -7.2744218341  CLST         249          1.0000000000
       748       250  TIP3  OH2          -7.5111509081        9.5380614177       -5.4389349252  CLST         250          1.0000000000
       749       250  TIP3  H1           -7.7759579755        8.7873829256       -5.9091821889  CLST         250          1.0000000000
       750       250  TIP3  H2           -7.8088970921       10.3118344002       -5.9967485944  CLST         250          1.0000000000
       751       251  TIP3  OH2          -3.5390939131       12.4407261044        3.0368692198  CLST         251          1.0000000000
       752       251  TIP3  H1           -2.9403952788       12.7560330550        2.4897054232  CLST         251          1.0000000000
       753       251  TIP3  H2           -3.0245493454       12.3342880539        3.8706136735  CLST         251          1.0000000000
       754       252  TIP3  OH2           5.9801707977        5.2653998281       14.4830174410  CLST         252          1.0000000000
       755       252  TIP3  H1            5.8624772680        6.2542882846       14.5761775126  CLST         252          1.0000000000
       756       252  TIP3  H2            5.7274017354        4.9242707606       15.2558191054  CLST         252          1.0000000000
       757       253  TIP3  OH2           6.0907683681       13.8676196815        3.3347036024  CLST         253          1.0000000000
       758       253  TIP3  H1            5.1499613480       13.7570631334        3.5998781314  CLST         253          1.0000000000
       759       253  TIP3  H2            5.8773141433       13.7307589858        2.3735019853  CLST         253          1.0000000000
       760       254  TIP3  OH2          -4.0647400776        8.0510451010        3.0341540148  CLST         254          1.0000000000
       761       254  TIP3  H1           -4.4487606961        8.9244080820        2.7614821079  CLST         254          1.0000000000
       762       254  TIP3  H2           -4.9177052442        7.5742337206        2.9298500359  CLST         254          1.0000000000
       763       255  TIP3  OH2          -7.0512113095       10.4599616169        4.1625597348  CLST         255          1.0000000000
       764       255  TIP3  H1           -7.9881520890       10.7388607022        4.2848073646  CLST         255          1.0000000000
       765       255  TIP3  H2           -7.0475312540        9.7341857125        4.8104786574  CLST         255          1.0000000000
       766       256  TIP3  OH2          11.4396092835        3.6736954229       -1.2005137196  CLST         256          1.0000000000
       767       256  TIP3  H1           11.8704618947        3.0138137213       -1.7514648043  CLST         256          1.0000000000
       768       256  TIP3  H2           11.1614782683        3.1224614393       -0.4456671377  CLST         256          1.0000000000
       769       257  TIP3  OH2          -8.5740000489       -1.1722766489       -5.0229094436  CLST         257          1.0000000000
       770       257  TIP3  H1           -7.7994081467       -0.8753224568       -4.5709478780  CLST         257          1.0000000000
       771       257  TIP3  H2           -8.3662643218       -0.9574635302       -5.9189733496  CLST         257          1.0000000000
       772       258  TIP3  OH2          -5.2588675284       10.3280539402        7.7802880002  CLST         258          1.0000000000
       773       258  TIP3  H1           -5.2864930989       11.0049946772        7.0325512374  CLST         258          1.0000000000
       774       258  TIP3  H2           -5.8850380877       10.8522014355        8.3411156305  CLST         258          1.0000000000
       775       259  TIP3  OH2          10.2115565152        6.0183414842        0.9783531045  CLST         259          1.0000000000
       776       259  TIP3  H1           11.1084527481        6.4052456838        1.0050691975  CLST         259          1.0000000000
       777       259  TIP3  H2            9.9769317783        6.2872390367        1.8843284955  CLST         259          1.0000000000
       778       260  TIP3  OH2          -4.8801527013        7.7223908260        8.7669501168  CLST         260          1.0000000000
       779       260  TIP3  H1           -5.2152288399        8.4675763642        8.1968982208  CLST         260          1.0000000000
       780       260  TIP3  H2           -5.7544485870        7.3481432577        9.0535806704  CLST         260          1.0000000000
       781       261  TIP3  OH2           0.2249790519       -4.8711522671       12.3543896864  CLST         261          1.0000000000
       782       261  TIP3  H1           -0.2908289015       -5.7438509102       12.3069859396  CLST         261          1.0000000000
       783       261  TIP3  H2            0.9372268432       -5.1196512896       12.9466437757  CLST         261          1.0000000000
       784       262  TIP3  OH2         -11.0705705987        4.7190264493        5.9800188290  CLST         262          1.0000000000
       785       262  TIP3  H1          -10.3703731063        4.6339939835        5.3157418129  CLST         262          1.0000000000
       786       262  TIP3  H2          -11.8675169736        4.9829864097        5.4641627975  CLST         262          1.0000000000
       787       263  TIP3  OH2           1.7450546922        0.7803701358        6.6987641083  CLST         263          1.0000000000
       788       263  TIP3  H1            2.2503634654        1.5060932675        6.2892236035  CLST         263          1.0000000000
       789       263  TIP3  H2            2.5047039720        0.2882281489        7.1170612853  CLST         263          1.0000000000
       790       264  TIP3  OH2           5.2735133287       -4.3742218682       -9.5776240906  CLST         264          1.0000000000
       791       264  TIP3  H1            4.9579033886       -5.3199732233       -9.7888379492  CLST         264          1.0000000000
       792       264  TIP3  H2            4.6156343410       -3.8632112118      -10.1370232638  CLST         264          1.0000000000
       793       265  TIP3  OH2           7.5820354318        4.9757158201      -10.0747711077  CLST         265          1.0000000000
       794       265  TIP3  H1            7.8378250325        5.8399319151      -10.4223615973  CLST         265          1.0000000000
       795       265  TIP3  H2            8.0836871424        4.9662361568       -9.2143039881  CLST         265          1.0000000000
       796       266  TIP3  OH2          -7.9506920741       -8.9456596555        0.1973095177  CLST         266          1.0000000000
       797       266  TIP3  H1           -7.9799280442       -9.2284579562        1.1088621403  CLST         266          1.0000000000
       798       266  TIP3  H2           -8.4292562327       -8.1016688563        0.2731850047  CLST         266          1.0000000000
       799       267  TIP3  OH2           1.1615882874        2.5942705413       -5.2440134793  CLST         267          1.0000000000
       800       267  TIP3  H1            1.4842183929        3.3600561231       -4.6761606254  CLST         267          1.0000000000
       801       267  TIP3  H2            1.7213396288        1.9071847281       -4.8325352459  CLST         267          1.0000000000
       802       268  TIP3  OH2           5.1682581746       -4.6516523014       -6.9331056403  CLST         268          1.0000000000
       803       268  TIP3  H1            5.2222997952       -4.3888061763       -7.9110538163  CLST         268          1.0000000000
       804       268  TIP3  H2            4.7932096164       -5.5445586293       -6.9842139489  CLST         268          1.0000000000
       805       269  TIP3  OH2           5.4459622065       10.8602104227       -0.1980288266  CLST         269          1.0000000000
       806       269  TIP3  H1            6.4028671971       10.7232894703       -0.4793192985  CLST         269          1.0000000000
       807       269  TIP3  H2            5.6368576685       11.8075257537        0.1130892829  CLST         269          1.0000000000
       808       270  TIP3  OH2           1.3545279873        9.3144505888       -7.9896953185  CLST         270          1.0000000000
       809       270  TIP3  H1            1.5021588443        8.5547002406       -8.5766268900  CLST         270          1.0000000000
       810       270  TIP3  H2            0.9005970468        8.8317019142       -7.2515798928  CLST         270          1.0000000000
       811       271  TIP3  OH2          -6.4839587439       -8.9394112144       -2.1869397361  CLST         271          1.0000000000
       812       271  TIP3  H1           -5.7089508811       -9.1802891886       -1.6512039116  CLST         271          1.0000000000
       813       271  TIP3  H2           -7.1016130803       -8.8388333271       -1.4137773740  CLST         271          1.0000000000
       814       272  TIP3  OH2           9.4253467245       -8.2706796043        5.7905062297  CLST         272          1.0000000000
       815       272  TIP3  H1            8.4416175289       -8.2731642747        5.7766465713  CLST         272          1.0000000000
       816       272  TIP3  H2            9.5653774590       -7.7379227749        4.9516361679  CLST         272          1.0000000000
       817       273  TIP3  OH2         -14.0040052051        9.3231128236        3.2013227447  CLST         273          1.0000000000
       818       273  TIP3  H1          -14.3757382799        9.6904108827        4.0170335185  CLST         273          1.0000000000
       819       273  TIP3  H2          -13.4174502766        8.6628693146        3.7079032909  CLST         273          1.0000000000
       820       274  TIP3  OH2           4.1074727046       13.0006339003       -4.0598019320  CLST         274          1.0000000000
       821       274  TIP3  H1            3.8837622024       12.3293313113       -3.3374256585  CLST         274          1.0000000000
       822       274  TIP3  H2            3.9487861369       13.7649898662       -3.6642449107  CLST         274          1.0000000000
       823       275  TIP3  OH2           8.7675231243      -11.1629484006        5.9124863487  CLST         275          1.0000000000
       824       275  TIP3  H1            9.2722971232      -10.3393136915        6.0397365812  CLST         275          1.0000000000
       825       275  TIP3  H2            9.3077283170      -11.8869930118        5.6024731183  CLST         275          1.0000000000
       826       276  TIP3  OH2          -0.1749946688       -5.8453778004        1.4854503434  CLST         276          1.0000000000
       827       276  TIP3  H1           -0.7938768850       -6.1862637981        0.8411699964  CLST         276          1.0000000000
       828       276  TIP3  H2           -0.7995265405       -5.1577033381        2.0213470090  CLST         276          1.0000000000
       829       277  TIP3  OH2           6.6216188651        6.3959262738       -6.9952799331  CLST         277          1.0000000000
       830       277  TIP3  H1            5.9946846913        5.9275730663       -7.5598435799  CLST         277          1.0000000000
       831       277  TIP3  H2            6.8322352125        7.2071695222       -7.4756665866  CLST         277          1.0000000000
       832       278  TIP3  OH2          -0.6513142466       -7.5952139395        3.5296393495  CLST         278          1.0000000000
       833       278  TIP3  H1           -0.4742583135       -6.8985073710        2.8046860941  CLST         278          1.0000000000
       834       278  TIP3  H2           -0.7897589831       -6.9149366287        4.2511856703  CLST         278          1.0000000000
       835       279  TIP3  OH2         -13.5736662769        6.3905048828        0.3963580142  CLST         279          1.0000000000
       836       279  TIP3  H1          -13.9358435590        5.4796599109        0.2485045481  CLST         279          1.0000000000
       837       279  TIP3  H2          -12.6475826008        6.2440882463        0.7229561218  CLST         279          1.0000000000
       838       280  TIP3  OH2          -3.3317680432      -10.0701258842        5.5987957179  CLST         280          1.0000000000
       839       280  TIP3  H1           -2.9318999483       -9.1950283354        5.8254267709  CLST         280          1.0000000000
       840       280  TIP3  H2           -3.9735416805       -9.6313349087        4.9814416673  CLST         280          1.0000000000
       841       281  TIP3  OH2           8.1224173926        7.7318847814      -10.7264882761  CLST         281          1.0000000000
       842       281  TIP3  H1            8.5735404896        8.5740338713      -10.5059973150  CLST         281          1.0000000000
       843       281  TIP3  H2            7.1786434616        7.9938559611      -10.6464968212  CLST         281          1.0000000000
       844       282  TIP3  OH2          -7.8271761282      -11.8510847182       10.1046831627  CLST         282          1.0000000000
       845       282  TIP3  H1           -8.7172912491      -11.7448138013        9.7956587341  CLST         282          1.0000000000
       846       282  TIP3  H2           -7.2888889261      -12.1709613465        9.3524749956  CLST         282          1.0000000000
       847       283  TIP3  OH2           4.5318967911        8.6487001322       -4.7405101899  CLST         283          1.0000000000
       848       283  TIP3  H1            4.7708502216        9.6381300815       -4.9026812481  CLST         283          1.0000000000
       849       283  TIP3  H2            4.0405721036        8.6743925447       -3.8819362249  CLST         283          1.0000000000
       850       284  TIP3  OH2          11.8628453991        8.2752263324       -1.3991504107  CLST         284          1.0000000000
       851       284  TIP3  H1           11.8992807262        7.6089345129       -2.1149699048  CLST         284          1.0000000000
       852       284  TIP3  H2           11.0532767121        8.7487250649       -1.5785778712  CLST         284          1.0000000000
       853       285  TIP3  OH2          -5.4720856023        1.9696637206        8.8107884483  CLST         285          1.0000000000
       854       285  TIP3  H1           -4.7868027543        1.5520139057        8.2112423891  CLST         285          1.0000000000
       855       285  TIP3  H2           -4.8861796505        2.6612812124        9.2466707628  CLST         285          1.0000000000
       856       286  TIP3  OH2           3.0748845718        5.7373468137       -0.5024529936  CLST         286          1.0000000000
       857       286  TIP3  H1            2.4627577088        5.7742722991        0.3139357675  CLST         286          1.0000000000
       858       286  TIP3  H2            3.8898363141        5.7423620065        0.0525461030  CLST         286          1.0000000000
       859       287  TIP3  OH2          -4.2970803309        9.3082060523       11.2420861970  CLST         287          1.0000000000
       860       287  TIP3  H1           -4.7931077108       10.0119089112       11.7093542622  CLST         287          1.0000000000
       861       287  TIP3  H2           -5.0561444424        8.9761327831       10.7003413503  CLST         287          1.0000000000
       862       288  TIP3  OH2           5.5559784073        3.4137207358       -9.3581712682  CLST         288          1.0000000000
       863       288  TIP3  H1            5.7600784571        3.2377265707      -10.2891948071  CLST         288          1.0000000000
       864       288  TIP3  H2            6.8796502720        4.4366538632      -10.1424078118  CLST         288          1.0000000000
       865       289  TIP3  OH2          -7.1873681972       -5.1305251132       -8.3625163093  CLST         289          1.0000000000
       866       289  TIP3  H1           -7.9716990569       -4.4380910636       -8.2731497133  CLST         289          1.0000000000
       867       289  TIP3  H2           -6.4068914135       -4.7720009850       -8.0593315554  CLST         289          1.0000000000
       868       290  TIP3  OH2           2.2888011938      -12.0505276592       11.2076639638  CLST         290          1.0000000000
       869       290  TIP3  H1            2.5627761600      -12.9827061689       11.2374444880  CLST         290          1.0000000000
       870       290  TIP3  H2            3.1070703562      -11.6855756087       11.6070415949  CLST         290          1.0000000000
       871       291  TIP3  OH2         -10.3201434423       -3.5304287868        2.8329075671  CLST         291          1.0000000000
       872       291  TIP3  H1          -11.0910621964       -3.9907062422        3.0866890378  CLST         291          1.0000000000
       873       291  TIP3  H2          -10.1910191202       -3.4915987789        1.9267237784  CLST         291          1.0000000000
       874       292  TIP3  OH2          12.3242575601        3.5465287936       -4.6615325682  CLST         292          1.0000000000
       875       292  TIP3  H1           11.4059261198        3.4903851674       -4.3984763816  CLST         292          1.0000000000
       876       292  TIP3  H2           12.1329052299        4.1211855247       -5.4335664355  CLST         292          1.0000000000
       877       293  TIP3  OH2           9.1022664009       10.5713875896       11.2041481642  CLST         293          1.0000000000
       878       293  TIP3  H1            8.5134938010       11.2274002854       11.5676296763  CLST         293          1.0000000000
       879       293  TIP3  H2            9.2747584436       10.9530879408       10.3085423986  CLST         293          1.0000000000
       880       294  TIP3  OH2           4.1459316388        4.5438962120       -2.4518282965  CLST         294          1.0000000000
       881       294  TIP3  H1            3.6713050165        5.0448563531       -1.7482991218  CLST         294          1.0000000000
       882       294  TIP3  H2            4.2084322061        5.1369124240       -3.2021219913  CLST         294          1.0000000000
       883       295  TIP3  OH2          -2.3818262445      -13.5866675078       -8.6949856533  CLST         295          1.0000000000
       884       295  TIP3  H1           -2.8949964304      -13.1992092430       -7.9423179516  CLST         295          1.0000000000
       885       295  TIP3  H2           -1.5087327074      -13.6746510292       -8.2337937563  CLST         295          1.0000000000
       886       296  TIP3  OH2          -1.5464413912       11.5388085804      -12.9560316846  CLST         296          1.0000000000
       887       296  TIP3  H1           -0.6775552188       11.1127674517      -13.1094918098  CLST         296          1.0000000000
       888       296  TIP3  H2           -1.6221609928       11.2259929766      -12.0069398494  CLST         296          1.0000000000
       889       297  TIP3  OH2           8.1101896292       -0.4998007978       11.4935721038  CLST         297          1.0000000000
       890       297  TIP3  H1            8.5681996756       -1.3065229582       11.1846616339  CLST         297          1.0000000000
       891       297  TIP3  H2            7.2352521928       -0.8826440650       11.7230048319  CLST         297          1.0000000000
       892       298  TIP3  OH2           0.9805524107       -1.2887178471       -7.4959440993  CLST         298          1.0000000000
       893       298  TIP3  H1            1.3496468792       -0.6812850339       -8.1876946114  CLST         298          1.0000000000
       894       298  TIP3  H2            0.6936430145       -2.0282258492       -8.0922693530  CLST         298          1.0000000000
       895       299  TIP3  OH2           2.9816994382       10.1762521133       12.7057282597  CLST         299          1.0000000000
       896       299  TIP3  H1            2.2372631911       10.7636918366       12.3483978024  CLST         299          1.0000000000
       897       299  TIP3  H2            2.3316913559        9.5459568408       12.9632957203  CLST         299          1.0000000000
       898       300  TIP3  OH2         -10.9397255943        5.3658367291       -3.7675170518  CLST         300          1.0000000000
       899       300  TIP3  H1          -10.7739280076        5.9159575318       -4.5915078028  CLST         300          1.0000000000
       900       300  TIP3  H2          -11.0201066594        6.2270739191       -3.2273330908  CLST         300          1.0000000000
       901       301  TIP3  OH2           9.6377826945       -8.2103208316       11.2396935884  CLST         301          1.0000000000
       902       301  TIP3  H1            9.4479577121       -7.9892015889       12.2094632580  CLST         301          1.0000000000
       903       301  TIP3  H2            9.5669420390       -9.2115351677       11.3139089831  CLST         301          1.0000000000
       904       302  TIP3  OH2           7.9963325875       12.8830559753        5.6425369031  CLST         302          1.0000000000
       905       302  TIP3  H1            7.6303365776       13.1957637039        4.7859872676  CLST         302          1.0000000000
       906       302  TIP3  H2            7.2320188660       12.2867544100        5.8208652648  CLST         302          1.0000000000
       907       303  TIP3  OH2         -10.9687309935        1.1805764891       -2.0705241864  CLST         303          1.0000000000
       908       303  TIP3  H1           -9.9813254639        1.1304122156       -1.9712294117  CLST         303          1.0000000000
       909       303  TIP3  H2          -11.0303156331        0.6095897684       -2.8707217106  CLST         303          1.0000000000
       910       304  TIP3  OH2          -7.9418697803        1.1928079905      -14.9082714500  CLST         304          1.0000000000
       911       304  TIP3  H1           -7.4097736476        0.3482274412      -14.6780141334  CLST         304          1.0000000000
       912       304  TIP3  H2           -7.5739843944        1.6702637439      -15.5949890933  CLST         304          1.0000000000
       913       305  TIP3  OH2           3.5066044224       -3.9336038204       13.8311038441  CLST         305          1.0000000000
       914       305  TIP3  H1            4.2116623326       -3.8941883823       13.3725351601  CLST         305          1.0000000000
       915       305  TIP3  H2            2.8550151326       -3.1300095306       13.5756045451  CLST         305          1.0000000000
       916       306  TIP3  OH2           8.7943607430      -11.9695441522      -11.2528085407  CLST         306          1.0000000000
       917       306  TIP3  H1            9.5255973001      -11.8096775427      -11.9871565226  CLST         306          1.0000000000
       918       306  TIP3  H2            9.2436823028      -12.1399972820      -10.4412479861  CLST         306          1.0000000000
       919       307  TIP3  OH2           9.3916780598        7.8060742731       -7.5685195109  CLST         307          1.0000000000
       920       307  TIP3  H1            8.7489622668        8.4824351773       -7.7576216393  CLST         307          1.0000000000
       921       307  TIP3  H2            9.5485617373        7.9820203963       -6.6176161303  CLST         307          1.0000000000
       922       308  TIP3  OH2         -10.9484029655       -4.8292139141        8.8982344606  CLST         308          1.0000000000
       923       308  TIP3  H1          -11.0158536401       -5.6560945354        9.4918230589  CLST         308          1.0000000000
       924       308  TIP3  H2           -9.9732755320       -4.6699230519        9.0097774468  CLST         308          1.0000000000
       925       309  TIP3  OH2          -1.8920169892       -0.5184784416        5.6679578688  CLST         309          1.0000000000
       926       309  TIP3  H1           -2.6046355099       -0.9094063847        5.1158380391  CLST         309          1.0000000000
       927       309  TIP3  H2           -1.7479648218       -1.3222452956        6.2256588010  CLST         309          1.0000000000
       928       310  TIP3  OH2          -4.9346252358       -0.6106202459        7.3139362380  CLST         310          1.0000000000
       929       310  TIP3  H1           -4.1406013419       -0.0317547359        7.3987319221  CLST         310          1.0000000000
       930       310  TIP3  H2           -5.0500408448       -0.9797270375        8.2209063340  CLST         310          1.0000000000
       931       311  TIP3  OH2          -7.2535339120        8.3499819588      -12.2795714692  CLST         311          1.0000000000
       932       311  TIP3  H1           -6.5775907584        7.7496880301      -12.6790466320  CLST         311          1.0000000000
       933       311  TIP3  H2           -7.4700217113        7.7999386878      -11.5415211263  CLST         311          1.0000000000
       934       312  TIP3  OH2           6.5051798787       -0.9167855007       -6.1723694241  CLST         312          1.0000000000
       935       312  TIP3  H1            5.9705729315       -0.2582551045       -5.6768253877  CLST         312          1.0000000000
       936       312  TIP3  H2            6.5654477023       -1.6201244186       -5.4981098656  CLST         312          1.0000000000
       937       313  TIP3  OH2          -8.8505360264      -10.5492913472        7.2933236563  CLST         313          1.0000000000
       938       313  TIP3  H1           -8.1945201451       -9.8185258961        7.1277128593  CLST         313          1.0000000000
       939       313  TIP3  H2           -9.1363047877      -10.6851827312        6.3676074691  CLST         313          1.0000000000
       940       314  TIP3  OH2          -1.3865334700      -12.1302709277      -10.7726428876  CLST         314          1.0000000000
       941       314  TIP3  H1           -1.2656518322      -11.3495171962      -10.1883064669  CLST         314          1.0000000000
       942       314  TIP3  H2           -1.8349591493      -12.7045457214      -10.0070287660  CLST         314          1.0000000000
       943       315  TIP3  OH2          -1.2829791681       -0.6418856776       -6.3469513464  CLST         315          1.0000000000
       944       315  TIP3  H1           -0.3970768431       -0.9517601853       -6.6490317706  CLST         315          1.0000000000
       945       315  TIP3  H2           -1.0565717011       -0.2481665209       -5.4973241182  CLST         315          1.0000000000
       946       316  TIP3  OH2         -13.1403869464       -3.9041819778       -5.4497830487  CLST         316          1.0000000000
       947       316  TIP3  H1          -12.5825834731       -4.2415461945       -6.2048178233  CLST         316          1.0000000000
       948       316  TIP3  H2          -12.9640161632       -2.9872696508       -5.6364753366  CLST         316          1.0000000000
       949       317  TIP3  OH2          -6.1110114108        0.0566369427       -3.7767143884  CLST         317          1.0000000000
       950       317  TIP3  H1           -5.2613322923       -0.0803073561       -3.2616838864  CLST         317          1.0000000000
       951       317  TIP3  H2           -6.6950266152        0.1969645710       -2.9805367891  CLST         317          1.0000000000
       952       318  TIP3  OH2          -3.9047467554       -9.5807611914       -9.3133500799  CLST         318          1.0000000000
       953       318  TIP3  H1           -4.0153471761       -9.9019853360       -8.3702553264  CLST         318          1.0000000000
       954       318  TIP3  H2           -2.9122400967       -9.4508188256       -9.3420320787  CLST         318          1.0000000000
       955       319  TIP3  OH2           5.6851440044       10.7691501048        8.6453161489  CLST         319          1.0000000000
       956       319  TIP3  H1            6.4210917427       10.5382515024        8.0326411487  CLST         319          1.0000000000
       957       319  TIP3  H2            6.2682899731       11.3720527770        9.1511301024  CLST         319          1.0000000000
       958       320  TIP3  OH2         -10.6302513747        1.0657396390      -14.8310048410  CLST         320          1.0000000000
       959       320  TIP3  H1           -9.6231618481        1.0519785544      -14.8825821416  CLST         320          1.0000000000
       960       320  TIP3  H2          -10.7104476900        0.2186851889      -14.4245526467  CLST         320          1.0000000000
       961       321  TIP3  OH2          -9.9024022322       10.1965258004       -9.7294066625  CLST         321          1.0000000000
       962       321  TIP3  H1          -11.1023816695        9.4828946517       -9.5914537960  CLST         321          1.0000000000
       963       321  TIP3  H2          -10.1722548339       10.2947880485      -10.9328779989  CLST         321          1.0000000000
       964       322  TIP3  OH2         -12.6686566579       -1.8336603440       -2.4416766543  CLST         322          1.0000000000
       965       322  TIP3  H1          -12.4129319998       -1.4363837358       -3.2970566173  CLST         322          1.0000000000
       966       322  TIP3  H2          -11.7221171538       -1.8470831285       -2.1320864629  CLST         322          1.0000000000
       967       323  TIP3  OH2          -1.0857157527        4.0795307045        4.3305945105  CLST         323          1.0000000000
       968       323  TIP3  H1           -0.6751387216        3.1982933806        4.3887303860  CLST         323          1.0000000000
       969       323  TIP3  H2           -0.9669704044        4.2985803330        3.3949757857  CLST         323          1.0000000000
       970       324  TIP3  OH2         -11.0573163000        6.1925281179        1.6080285494  CLST         324          1.0000000000
       971       324  TIP3  H1          -11.2510492754        5.5101514619        2.3009473533  CLST         324          1.0000000000
       972       324  TIP3  H2          -10.2196021197        6.5937133243        1.9843628617  CLST         324          1.0000000000
       973       325  TIP3  OH2          -4.7413943162        0.6571591567        3.6363532302  CLST         325          1.0000000000
       974       325  TIP3  H1           -5.7879301540        0.7069326354        3.6775318368  CLST         325          1.0000000000
       975       325  TIP3  H2           -4.6065030611        1.3898411874        3.0332851206  CLST         325          1.0000000000
       976       326  TIP3  OH2           9.0368312212        8.6265620749       -2.6769348069  CLST         326          1.0000000000
       977       326  TIP3  H1            8.9778645177        8.1480869110       -1.8269956979  CLST         326          1.0000000000
       978       326  TIP3  H2            8.1762735260        8.4470944720       -3.0409573346  CLST         326          1.0000000000
       979       327  TIP3  OH2          10.4776922872       -3.7206407214      -13.0885857239  CLST         327          1.0000000000
       980       327  TIP3  H1           10.7606490649       -3.6522385398      -13.8939458927  CLST         327          1.0000000000
       981       327  TIP3  H2           10.3042276477       -2.9684394629      -12.4532178809  CLST         327          1.0000000000
       982       328  TIP3  OH2           2.0930900719        7.1278442150       -9.7398763341  CLST         328          1.0000000000
       983       328  TIP3  H1            2.1225573527        6.2478776005       -9.3094166495  CLST         328          1.0000000000
       984       328  TIP3  H2            3.0610322333        7.2735020589       -9.7282324389  CLST         328          1.0000000000
       985       329  TIP3  OH2           1.4577453328      -11.6741201540       -2.2426847433  CLST         329          1.0000000000
       986       329  TIP3  H1            1.6321327794      -10.7344199095       -2.5669181926  CLST         329          1.0000000000
       987       329  TIP3  H2            2.2838598779      -11.7657000620       -1.7069254254  CLST         329          1.0000000000
       988       330  TIP3  OH2          -9.3689642344       -0.9518764231        3.5544148896  CLST         330          1.0000000000
       989       330  TIP3  H1           -9.6235733163       -1.9162636478        3.4625131918  CLST         330          1.0000000000
       990       330  TIP3  H2          -10.1940812831       -0.5309880325        3.9293071252  CLST         330          1.0000000000
       991       331  TIP3  OH2          12.2924669522        9.7403715952       -9.1483022878  CLST         331          1.0000000000
       992       331  TIP3  H1           12.9816747782        9.5762084272       -9.6611411643  CLST         331          1.0000000000
       993       331  TIP3  H2           11.9935505412        8.7643070800       -9.0327386091  CLST         331          1.0000000000
       994       332  TIP3  OH2          11.3013362321       -1.2653531274       -4.5329156010  CLST         332          1.0000000000
       995       332  TIP3  H1           12.2024985619       -1.4173519449       -4.8703248883  CLST         332          1.0000000000
       996       332  TIP3  H2           11.4407991339       -0.3223287467       -4.3561588576  CLST         332          1.0000000000
       997       333  TIP3  OH2          10.6034774186      -14.3507040259        8.0219017866  CLST         333          1.0000000000
       998       333  TIP3  H1            9.7352876215      -13.8181481409        7.9465398178  CLST         333          1.0000000000
       999       333  TIP3  H2           10.8227725308      -14.3239914535        7.1008351873  CLST         333          1.0000000000
      1000       334  TIP3  OH2         -10.5941302313       -9.6181691987        9.1608115820  CLST         334          1.0000000000
      1001       334  TIP3  H1          -11.3945866755      -10.0387306562        8.7860175108  CLST         334          1.0000000000
      1002       334  TIP3  H2           -9.9250476472       -9.8457928497        8.4734820409  CLST         334          1.0000000000
      1003       335  TIP3  OH2           6.9815593133      -10.0338113217        1.5359255887  CLST         335          1.0000000000
      1004       335  TIP3  H1            6.8330289664       -9.9146173142        2.5016745358  CLST         335          1.0000000000
      1005       335  TIP3  H2            6.0577170418      -10.1725768572        1.2486062368  CLST         335          1.0000000000
      1006       336  TIP3  OH2          -9.2214427328       -3.6386414175       -3.5136068237  CLST         336          1.0000000000
      1007       336  TIP3  H1           -9.7668966617       -4.3520547175       -3.9241343334  CLST         336          1.0000000000
      1008       336  TIP3  H2           -9.2556929516       -3.0357904331       -4.3033500248  CLST         336          1.0000000000
      1009       337  TIP3  OH2          -1.6172531080       -4.9851790763        8.0322007588  CLST         337          1.0000000000
      1010       337  TIP3  H1           -1.2071856984       -4.5890770113        8.8659158341  CLST         337          1.0000000000
      1011       337  TIP3  H2           -2.2190991523       -4.1989605734        7.8274063145  CLST         337          1.0000000000
      1012       338  TIP3  OH2          -0.5106567108        2.6106011359       10.6436882487  CLST         338          1.0000000000
      1013       338  TIP3  H1           -0.5535453689        2.3777223855        9.6229367855  CLST         338          1.0000000000
      1014       338  TIP3  H2           -0.1595839258        1.7877033459       10.9517645445  CLST         338          1.0000000000
      1015       339  TIP3  OH2           7.8820494282        8.1137628128        2.7685943768  CLST         339          1.0000000000
      1016       339  TIP3  H1            7.3868177072        8.6565450904        3.4346069237  CLST         339          1.0000000000
      1017       339  TIP3  H2            7.2147606774        7.8268614331        2.1156516303  CLST         339          1.0000000000
      1018       340  TIP3  OH2          -4.6109311540      -11.6856337664      -11.1570382752  CLST         340          1.0000000000
      1019       340  TIP3  H1           -4.3625947414      -11.0079193939      -10.4767221850  CLST         340          1.0000000000
      1020       340  TIP3  H2           -4.1568557239      -12.4380135371      -10.7918203395  CLST         340          1.0000000000
      1021       341  TIP3  OH2          -6.7964919705        4.6230437289        9.4045954958  CLST         341          1.0000000000
      1022       341  TIP3  H1           -5.8463903928        4.5545593578        9.6792369744  CLST         341          1.0000000000
      1023       341  TIP3  H2           -7.0919013983        3.7173174355        9.4071485538  CLST         341          1.0000000000
      1024       342  TIP3  OH2          -4.5334995791      -11.0162080386       13.9943141817  CLST         342          1.0000000000
      1025       342  TIP3  H1           -5.2576991713      -10.9425380315       13.3332931378  CLST         342          1.0000000000
      1026       342  TIP3  H2           -4.7447508364      -10.9377944416       14.8455374697  CLST         342          1.0000000000
      1027       343  TIP3  OH2           1.4389089447       -8.9616177052       -9.7220141933  CLST         343          1.0000000000
      1028       343  TIP3  H1            1.7017333307       -8.1174919256      -10.1849123798  CLST         343          1.0000000000
      1029       343  TIP3  H2            1.5882477326       -9.5251499912      -10.5136377195  CLST         343          1.0000000000
      1030       344  TIP3  OH2           5.4044093063       -3.9928921596        6.2697447879  CLST         344          1.0000000000
      1031       344  TIP3  H1            4.7813370647       -4.5055476405        6.8526933739  CLST         344          1.0000000000
      1032       344  TIP3  H2            5.9530767967       -4.6575741782        5.7556539659  CLST         344          1.0000000000
      1033       345  TIP3  OH2          13.2983349067        7.1034674107        8.8123839787  CLST         345          1.0000000000
      1034       345  TIP3  H1           12.6013108149        6.6707282864        8.2782528443  CLST         345          1.0000000000
      1035       345  TIP3  H2           12.7444471953        7.2720405745        9.6013944239  CLST         345          1.0000000000
      1036       346  TIP3  OH2           9.4370344382        9.4012394518        0.7723931349  CLST         346          1.0000000000
      1037       346  TIP3  H1            9.6974402466       10.1420590949        1.4100511206  CLST         346          1.0000000000
      1038       346  TIP3  H2            8.9411957998        8.9338996398        1.4924937824  CLST         346          1.0000000000
      1039       347  TIP3  OH2          -5.0567650968        2.9307791002       -9.6621986892  CLST         347          1.0000000000
      1040       347  TIP3  H1           -5.7709326835        3.1293562520       -9.0038874566  CLST         347          1.0000000000
      1041       347  TIP3  H2           -4.2235631966        2.7760606302       -9.1568983878  CLST         347          1.0000000000
      1042       348  TIP3  OH2          -1.3438510837        6.1354763624        5.8036010260  CLST         348          1.0000000000
      1043       348  TIP3  H1           -1.4336670111        5.3003116962        5.1929329238  CLST         348          1.0000000000
      1044       348  TIP3  H2           -0.5739449194        6.4294242433        5.2229551418  CLST         348          1.0000000000
      1045       349  TIP3  OH2          -4.1023092527        5.1097448454       -2.4988531441  CLST         349          1.0000000000
      1046       349  TIP3  H1           -3.7699905838        4.5242266226       -3.2365592791  CLST         349          1.0000000000
      1047       349  TIP3  H2           -3.4059453853        5.8129119099       -2.6430358069  CLST         349          1.0000000000
      1048       350  TIP3  OH2          -2.6354981955        8.7917392684        5.1074539355  CLST         350          1.0000000000
      1049       350  TIP3  H1           -3.0846037198        8.5809039897        4.2580786101  CLST         350          1.0000000000
      1050       350  TIP3  H2           -2.6153137451        7.8644741188        5.4248222910  CLST         350          1.0000000000
      1051       351  TIP3  OH2           4.7996416009       -7.6182912939       -7.6968007039  CLST         351          1.0000000000
      1052       351  TIP3  H1            4.1433345447       -8.3668292666       -7.6024110278  CLST         351          1.0000000000
      1053       351  TIP3  H2            4.6602546880       -7.4610874021       -8.6627743461  CLST         351          1.0000000000
      1054       352  TIP3  OH2         -10.3042548214      -11.1806305532        1.7546875342  CLST         352          1.0000000000
      1055       352  TIP3  H1           -9.3797885619      -11.0173810952        1.6501281265  CLST         352          1.0000000000
      1056       352  TIP3  H2          -10.7773666718      -10.6008848921        1.1967937676  CLST         352          1.0000000000
      1057       353  TIP3  OH2          10.8480870616       -8.0241571715       -8.6317620062  CLST         353          1.0000000000
      1058       353  TIP3  H1            9.9503148813       -8.4476904712       -8.6185661817  CLST         353          1.0000000000
      1059       353  TIP3  H2           11.2741200380       -7.7727454390       -7.8313541444  CLST         353          1.0000000000
      1060       354  TIP3  OH2           6.9823383050      -10.5430745439        4.1491115886  CLST         354          1.0000000000
      1061       354  TIP3  H1            7.7054339241      -10.8159253095        4.8231712377  CLST         354          1.0000000000
      1062       354  TIP3  H2            6.6520693598       -9.8172591529        4.7605202682  CLST         354          1.0000000000
      1063       355  TIP3  OH2          -7.2341777503        9.0272039065       -9.1052725955  CLST         355          1.0000000000
      1064       355  TIP3  H1           -7.0964507065        9.9363932850       -8.6980613443  CLST         355          1.0000000000
      1065       355  TIP3  H2           -8.1807665273        9.2552026310       -9.3342657392  CLST         355          1.0000000000
      1066       356  TIP3  OH2          12.4746025725        1.0137867411       -2.0094422983  CLST         356          1.0000000000
      1067       356  TIP3  H1           11.5210385238        0.7773776344       -2.1405087804  CLST         356          1.0000000000
      1068       356  TIP3  H2           12.6897393976        1.0125876494       -1.0628122001  CLST         356          1.0000000000
      1069       357  TIP3  OH2          -0.7731884011       -0.4570233334       -1.9831829317  CLST         357          1.0000000000
      1070       357  TIP3  H1            0.0906302858       -0.9395375646       -2.0236808319  CLST         357          1.0000000000
      1071       357  TIP3  H2           -0.7168595061       -0.1563537947       -2.9398425698  CLST         357          1.0000000000
      1072       358  TIP3  OH2          -5.5818401186        7.0984987809       -7.5493947203  CLST         358          1.0000000000
      1073       358  TIP3  H1           -6.0261097135        7.7359338058       -8.1865934586  CLST         358          1.0000000000
      1074       358  TIP3  H2           -6.3518900942        6.7352504949       -7.0675394706  CLST         358          1.0000000000
      1075       359  TIP3  OH2          -5.1643889620       12.1996576901        6.0938234239  CLST         359          1.0000000000
      1076       359  TIP3  H1           -5.3326788714       12.0437505557        5.1448695063  CLST         359          1.0000000000
      1077       359  TIP3  H2           -4.1705977130       12.2338266249        6.0294817111  CLST         359          1.0000000000
      1078       360  TIP3  OH2          -6.7227860056        5.7884549152       -3.3870771817  CLST         360          1.0000000000
      1079       360  TIP3  H1           -6.8832187302        6.2074139332       -2.5403899498  CLST         360          1.0000000000
      1080       360  TIP3  H2           -5.7483830629        5.5073226961       -3.1856920810  CLST         360          1.0000000000
      1081       361  TIP3  OH2          -1.6499652140       -1.0449698953       10.0144112362  CLST         361          1.0000000000
      1082       361  TIP3  H1           -1.6596376905       -0.3736287178       10.7494921774  CLST         361          1.0000000000
      1083       361  TIP3  H2           -1.6832040385       -1.8850781531       10.5079463474  CLST         361          1.0000000000
      1084       362  TIP3  OH2         -10.5929568520        2.9162413673        0.6902828573  CLST         362          1.0000000000
      1085       362  TIP3  H1          -10.5118871933        3.6211717769        0.0385587951  CLST         362          1.0000000000
      1086       362  TIP3  H2          -10.9276452267        2.1770243759        0.1804249692  CLST         362          1.0000000000
      1087       363  TIP3  OH2          10.6650122449        2.4454971992       10.1018166951  CLST         363          1.0000000000
      1088       363  TIP3  H1           11.0605495957        1.4185363090        9.9866983564  CLST         363          1.0000000000
      1089       363  TIP3  H2           11.1665062573        3.1129292924       10.4040106084  CLST         363          1.0000000000
      1090       364  TIP3  OH2           7.6331804708       -5.7127437720       -6.2528759493  CLST         364          1.0000000000
      1091       364  TIP3  H1            6.8443830682       -5.2178689656       -6.5857149837  CLST         364          1.0000000000
      1092       364  TIP3  H2            8.1929344955       -5.7152881154       -7.1116153263  CLST         364          1.0000000000
      1093       365  TIP3  OH2          -6.1538173970       -6.7921412013        2.7068984863  CLST         365          1.0000000000
      1094       365  TIP3  H1           -6.5707187152       -5.9234223828        2.6154982432  CLST         365          1.0000000000
      1095       365  TIP3  H2           -6.9735976174       -7.2298045045        3.0623846870  CLST         365          1.0000000000
      1096       366  TIP3  OH2           1.8383179722       -1.3583283045       -2.9638386949  CLST         366          1.0000000000
      1097       366  TIP3  H1            2.7766985523       -1.4448055616       -2.5857805433  CLST         366          1.0000000000
      1098       366  TIP3  H2            2.1607337039       -0.8891015228       -3.8065290444  CLST         366          1.0000000000
      1099       367  TIP3  OH2          -5.3295266879       11.7491005176       12.2642958511  CLST         367          1.0000000000
      1100       367  TIP3  H1           -6.1055387598       12.0762399601       11.7946060044  CLST         367          1.0000000000
      1101       367  TIP3  H2           -5.5139333285       11.8640574156       13.0969008126  CLST         367          1.0000000000
      1102       368  TIP3  OH2          -2.5872312289        6.5679381798        1.0979621538  CLST         368          1.0000000000
      1103       368  TIP3  H1           -2.7170386321        7.3510622231        0.4203991333  CLST         368          1.0000000000
      1104       368  TIP3  H2           -3.0212766834        7.0514431009        1.8077608340  CLST         368          1.0000000000
      1105       369  TIP3  OH2         -11.5922229245       -1.8556375234       -6.4867238681  CLST         369          1.0000000000
      1106       369  TIP3  H1          -10.8998046204       -2.4758562620       -6.2099171652  CLST         369          1.0000000000
      1107       369  TIP3  H2          -11.7372921273       -2.1503008636       -7.4211197746  CLST         369          1.0000000000
      1108       370  TIP3  OH2         -12.0364013202        5.4871279024      -11.7026006863  CLST         370          1.0000000000
      1109       370  TIP3  H1          -12.1953672600        4.7934045779      -12.4162453422  CLST         370          1.0000000000
      1110       370  TIP3  H2          -12.6504018320        5.2762935399      -11.1480236964  CLST         370          1.0000000000
      1111       371  TIP3  OH2           2.1720118951        7.8463509137        5.8645238732  CLST         371          1.0000000000
      1112       371  TIP3  H1            2.0253372173        7.6187210096        6.8108066817  CLST         371          1.0000000000
      1113       371  TIP3  H2            3.1226234500        7.8269985452        5.7695367113  CLST         371          1.0000000000
      1114       372  TIP3  OH2           8.0988661560       -7.5178234081        9.0117131654  CLST         372          1.0000000000
      1115       372  TIP3  H1            8.9169698916       -7.7199841641        8.5068616401  CLST         372          1.0000000000
      1116       372  TIP3  H2            8.5735935754       -7.7489416565        9.9026364741  CLST         372          1.0000000000
      1117       373  TIP3  OH2          11.0497819193       -0.4427515367        6.6792848196  CLST         373          1.0000000000
      1118       373  TIP3  H1           11.3347599433        0.3944141365        6.2840877509  CLST         373          1.0000000000
      1119       373  TIP3  H2           10.2068696627       -0.3988778528        6.2596102070  CLST         373          1.0000000000
      1120       374  TIP3  OH2          -9.4019615816        4.6921716545      -12.1836745600  CLST         374          1.0000000000
      1121       374  TIP3  H1           -9.6099223674        5.5090188584      -12.6929708574  CLST         374          1.0000000000
      1122       374  TIP3  H2          -10.1969135789        4.7746779318      -11.6379584935  CLST         374          1.0000000000
      1123       375  TIP3  OH2           9.7065776992       -5.3139122790       -2.7764322859  CLST         375          1.0000000000
      1124       375  TIP3  H1           10.0960105733       -4.9887138830       -3.6168139638  CLST         375          1.0000000000
      1125       375  TIP3  H2           10.1587621344       -6.1846602617       -2.8752075771  CLST         375          1.0000000000
      1126       376  TIP3  OH2          -2.0885261606      -11.1718405147       12.2367249050  CLST         376          1.0000000000
      1127       376  TIP3  H1           -2.7126593742      -10.8632705966       12.9507904320  CLST         376          1.0000000000
      1128       376  TIP3  H2           -2.8139725850      -11.5334466809       11.6809225540  CLST         376          1.0000000000
      1129       377  TIP3  OH2         -10.0528852938       12.9074608537       10.4199670804  CLST         377          1.0000000000
      1130       377  TIP3  H1           -9.1432948372       12.7391941010       10.7468764769  CLST         377          1.0000000000
      1131       377  TIP3  H2           -9.8462844192       12.9984482943        9.4746190620  CLST         377          1.0000000000
      1132       378  TIP3  OH2           2.1981664300       -8.0297294476        7.2573183416  CLST         378          1.0000000000
      1133       378  TIP3  H1            2.2529507669       -7.0868852296        7.1012925872  CLST         378          1.0000000000
      1134       378  TIP3  H2            1.4167105662       -8.2404265702        7.7839821726  CLST         378          1.0000000000
      1135       379  TIP3  OH2          -9.5666790670        9.4114609264       -1.1436064256  CLST         379          1.0000000000
      1136       379  TIP3  H1           -8.9004843095        9.7175670342       -0.4695123604  CLST         379          1.0000000000
      1137       379  TIP3  H2           -9.8710346289       10.3269647426       -1.4735872273  CLST         379          1.0000000000
      1138       380  TIP3  OH2           2.9924369449       -4.1955672762      -11.3000285031  CLST         380          1.0000000000
      1139       380  TIP3  H1            2.5517112051       -3.5003924230      -11.8875155199  CLST         380          1.0000000000
      1140       380  TIP3  H2            3.2772575985       -4.7602527489      -12.0662252331  CLST         380          1.0000000000
      1141       381  TIP3  OH2          10.2241388708        4.1820376826        3.3417669730  CLST         381          1.0000000000
      1142       381  TIP3  H1            9.3952911349        4.5240395291        3.7734145277  CLST         381          1.0000000000
      1143       381  TIP3  H2           10.8333435435        4.9050682825        3.7058816439  CLST         381          1.0000000000
      1144       382  TIP3  OH2           1.8909262502       -5.4103486159        5.6615322256  CLST         382          1.0000000000
      1145       382  TIP3  H1            2.2641636980       -5.0062759823        6.4946953911  CLST         382          1.0000000000
      1146       382  TIP3  H2            2.7281237584       -5.9118365722        5.4141588869  CLST         382          1.0000000000
      1147       383  TIP3  OH2          10.1368650765        8.9230133781        4.7601452914  CLST         383          1.0000000000
      1148       383  TIP3  H1            9.2920444009        9.1309288011        4.3455594082  CLST         383          1.0000000000
      1149       383  TIP3  H2           10.4081242181        9.8709766113        4.9723765471  CLST         383          1.0000000000
      1150       384  TIP3  OH2          -3.2701609605       -1.8603791662       -8.1240470134  CLST         384          1.0000000000
      1151       384  TIP3  H1           -2.8179595100       -2.7314506015       -8.2897147130  CLST         384          1.0000000000
      1152       384  TIP3  H2           -2.6186257908       -1.5009656561       -7.4853272224  CLST         384          1.0000000000
      1153       385  TIP3  OH2           3.6074669460      -11.6751422447       -0.6974299936  CLST         385          1.0000000000
      1154       385  TIP3  H1            4.4792296368      -12.2153930312       -0.6729586968  CLST         385          1.0000000000
      1155       385  TIP3  H2            3.8432391451      -11.0618521556        0.0116114671  CLST         385          1.0000000000
      1156       386  TIP3  OH2          -4.2725871522        9.3337458982       -6.1810544650  CLST         386          1.0000000000
      1157       386  TIP3  H1           -4.8609779170        8.6289635002       -6.5444978225  CLST         386          1.0000000000
      1158       386  TIP3  H2           -4.1113652062        9.7067225753       -7.0791535602  CLST         386          1.0000000000
      1159       387  TIP3  OH2          -9.7492079363       10.5325712591        2.8228695719  CLST         387          1.0000000000
      1160       387  TIP3  H1          -10.5893532525       10.4887326835        2.2617128788  CLST         387          1.0000000000
      1161       387  TIP3  H2           -9.0921571296       10.2057965354        2.1949529389  CLST         387          1.0000000000
      1162       388  TIP3  OH2          -1.8116888848      -12.4099887848        6.0190215515  CLST         388          1.0000000000
      1163       388  TIP3  H1           -2.0847747185      -11.5036764074        5.6827806157  CLST         388          1.0000000000
      1164       388  TIP3  H2           -1.9026999819      -12.1870841527        7.0076055617  CLST         388          1.0000000000
      1165       389  TIP3  OH2          -8.0872866628        3.4721825432       -3.5176329216  CLST         389          1.0000000000
      1166       389  TIP3  H1           -7.6186092775        4.3345580218       -3.2885402676  CLST         389          1.0000000000
      1167       389  TIP3  H2           -8.9296808588        3.8287218909       -3.8723691672  CLST         389          1.0000000000
      1168       390  TIP3  OH2          -5.8123727828       -4.0368402168        4.7035863682  CLST         390          1.0000000000
      1169       390  TIP3  H1           -5.3570508234       -3.1327966862        4.6212665554  CLST         390          1.0000000000
      1170       390  TIP3  H2           -5.2222548668       -4.5794662655        4.1637189262  CLST         390          1.0000000000
      1171       391  TIP3  OH2          -8.8464748867       -8.9116839778       -6.1237233925  CLST         391          1.0000000000
      1172       391  TIP3  H1           -9.3400909861       -9.5531522615       -6.6470583989  CLST         391          1.0000000000
      1173       391  TIP3  H2           -8.1088926504       -9.4818791568       -5.7826690233  CLST         391          1.0000000000
      1174       392  TIP3  OH2           1.0116746154       -1.8933197359       10.1123182870  CLST         392          1.0000000000
      1175       392  TIP3  H1            0.4555629645       -2.5224173331       10.6187887307  CLST         392          1.0000000000
      1176       392  TIP3  H2            0.3218385940       -1.2280030636        9.9240361598  CLST         392          1.0000000000
      1177       393  TIP3  OH2          10.9173037740      -12.2756695552       -0.7196645789  CLST         393          1.0000000000
      1178       393  TIP3  H1           11.5089982671      -11.3634949672       -0.7472198566  CLST         393          1.0000000000
      1179       393  TIP3  H2           11.4131012658      -12.9205926886       -1.0205519572  CLST         393          1.0000000000
      1180       394  TIP3  OH2           0.5790366043       11.7805790576       -8.4504241947  CLST         394          1.0000000000
      1181       394  TIP3  H1            1.3637637570       12.1068277258       -7.9115760069  CLST         394          1.0000000000
      1182       394  TIP3  H2            0.6525132673       10.8752476444       -8.0432633234  CLST         394          1.0000000000
      1183       395  TIP3  OH2           6.8642292283        7.5170872527       -4.4210141308  CLST         395          1.0000000000
      1184       395  TIP3  H1            5.9933972129        7.9814577831       -4.6116421200  CLST         395          1.0000000000
      1185       395  TIP3  H2            6.9894886256        7.0397998897       -5.2586963768  CLST         395          1.0000000000
      1186       396  TIP3  OH2          -1.0498387955      -10.0470439044       -9.1365266973  CLST         396          1.0000000000
      1187       396  TIP3  H1           -1.1557039424       -9.9486272706       -8.1135659810  CLST         396          1.0000000000
      1188       396  TIP3  H2           -0.1614338361       -9.5922068894       -9.1566154129  CLST         396          1.0000000000
      1189       397  TIP3  OH2          11.4380850432        7.2408300707       -8.9426086833  CLST         397          1.0000000000
      1190       397  TIP3  H1           11.9884689133        6.7028968713       -8.4171573207  CLST         397          1.0000000000
      1191       397  TIP3  H2           10.6009104009        7.1666109898       -8.4222736475  CLST         397          1.0000000000
      1192       398  TIP3  OH2          10.6092971307        7.7522192079       -4.9456568064  CLST         398          1.0000000000
      1193       398  TIP3  H1           10.0360490493        8.0750361585       -4.1729320651  CLST         398          1.0000000000
      1194       398  TIP3  H2           11.2918366731        7.3402550913       -4.4031888847  CLST         398          1.0000000000
      1195       399  TIP3  OH2           1.8591957490       11.1115490562        4.8071893938  CLST         399          1.0000000000
      1196       399  TIP3  H1            1.1493408054       10.6600912529        5.2833866408  CLST         399          1.0000000000
      1197       399  TIP3  H2            2.4711863394       11.0571046055        5.6037671231  CLST         399          1.0000000000
      1198       400  TIP3  OH2           3.9775271215       -3.1082391461       -5.0363167595  CLST         400          1.0000000000
      1199       400  TIP3  H1            4.7925904873       -2.9018391898       -4.5210227129  CLST         400          1.0000000000
      1200       400  TIP3  H2            4.3744994845       -3.6816075043       -5.7693558379  CLST         400          1.0000000000
      1201       401  TIP3  OH2         -14.7351953660        9.8819956616        5.5053458713  CLST         401          1.0000000000
      1202       401  TIP3  H1          -14.2355330047       10.1199599283        6.3374924866  CLST         401          1.0000000000
      1203       401  TIP3  H2          -15.6935489486        9.9006079566        5.7426117929  CLST         401          1.0000000000
      1204       402  TIP3  OH2           1.9224305126       -1.7237809723       12.9219119559  CLST         402          1.0000000000
      1205       402  TIP3  H1            1.3776708029       -2.6484735062       12.8391132624  CLST         402          1.0000000000
      1206       402  TIP3  H2            2.1674758452       -1.7645435880       12.0007914638  CLST         402          1.0000000000
      1207       403  TIP3  OH2          -1.9275419174       -6.9588122657       -0.9906011011  CLST         403          1.0000000000
      1208       403  TIP3  H1           -1.6575629856       -6.4133840058       -1.6231429253  CLST         403          1.0000000000
      1209       403  TIP3  H2           -1.7985506252       -7.8709796611       -1.4012481256  CLST         403          1.0000000000
      1210       404  TIP3  OH2          -4.9928717855       -2.4903827635        9.2381353377  CLST         404          1.0000000000
      1211       404  TIP3  H1           -5.3588950739       -2.8291987824       10.0573531903  CLST         404          1.0000000000
      1212       404  TIP3  H2           -5.2873377076       -3.2953855551        8.6978664370  CLST         404          1.0000000000
      1213       405  TIP3  OH2         -11.9607438261        7.1429298599       11.1905526130  CLST         405          1.0000000000
      1214       405  TIP3  H1          -11.7896385974        6.2559483512       10.7914176554  CLST         405          1.0000000000
      1215       405  TIP3  H2          -12.8713363856        6.9529003054       11.3029368865  CLST         405          1.0000000000
      1216       406  TIP3  OH2           1.0042778131        7.7209617191      -12.1863772606  CLST         406          1.0000000000
      1217       406  TIP3  H1            1.2065198493        8.7010782729      -12.3657030709  CLST         406          1.0000000000
      1218       406  TIP3  H2            1.5172759366        7.6751964958      -11.3735633508  CLST         406          1.0000000000
      1219       407  TIP3  OH2          10.4397091145      -13.3171208928        5.1024441140  CLST         407          1.0000000000
      1220       407  TIP3  H1           10.5640859654      -13.2846594842        4.1215530731  CLST         407          1.0000000000
      1221       407  TIP3  H2           11.1717093208      -12.6208344613        5.2996196724  CLST         407          1.0000000000
      1222       408  TIP3  OH2          -2.9390622599      -11.5705558088        1.9865436324  CLST         408          1.0000000000
      1223       408  TIP3  H1           -2.2035722029      -10.9703501663        1.8764814137  CLST         408          1.0000000000
      1224       408  TIP3  H2           -2.4161468250      -12.4335797543        2.1534517602  CLST         408          1.0000000000
      1225       409  TIP3  OH2           1.1353009290       -9.6235030986        9.8035103782  CLST         409          1.0000000000
      1226       409  TIP3  H1            0.7010400608       -9.6747027778       10.7199672755  CLST         409          1.0000000000
      1227       409  TIP3  H2            1.7518353390      -10.3743144854        9.9170071034  CLST         409          1.0000000000
      1228       410  TIP3  OH2           9.9512199163       -7.1103891686       -5.2878674423  CLST         410          1.0000000000
      1229       410  TIP3  H1            9.1175091570       -6.7852986550       -5.7082360299  CLST         410          1.0000000000
      1230       410  TIP3  H2           10.3996811721       -6.2643146181       -5.4611135928  CLST         410          1.0000000000
      1231       411  TIP3  OH2         -10.1034947183       -2.2781388213       -1.3989769443  CLST         411          1.0000000000
      1232       411  TIP3  H1           -9.5115484546       -2.4445532219       -0.7078591206  CLST         411          1.0000000000
      1233       411  TIP3  H2           -9.5754559607       -2.6972958621       -2.1257718181  CLST         411          1.0000000000
      1234       412  TIP3  OH2           6.6871333137      -10.5170286639      -12.0277821989  CLST         412          1.0000000000
      1235       412  TIP3  H1            6.1142564747      -10.8432399958      -11.3128519383  CLST         412          1.0000000000
      1236       412  TIP3  H2            7.5045674056      -11.0323268192      -11.8037768313  CLST         412          1.0000000000
      1237       413  TIP3  OH2           6.8922657765       13.0752020528        0.3246003952  CLST         413          1.0000000000
      1238       413  TIP3  H1            7.4897002390       12.7227938086       -0.3132773941  CLST         413          1.0000000000
      1239       413  TIP3  H2            7.5866667373       13.5289395219        0.8630158358  CLST         413          1.0000000000
      1240       414  TIP3  OH2           1.4909034868       -2.3745029939      -12.4531069643  CLST         414          1.0000000000
      1241       414  TIP3  H1            0.6633922743       -1.9164219547      -12.1802920433  CLST         414          1.0000000000
      1242       414  TIP3  H2            1.5220915289       -2.5583345039      -13.3733324072  CLST         414          1.0000000000
      1243       415  TIP3  OH2           4.2362722848        5.3425867992       -8.2907972264  CLST         415          1.0000000000
      1244       415  TIP3  H1            3.6254009831        4.4896454321       -8.2137672208  CLST         415          1.0000000000
      1245       415  TIP3  H2            4.8244812365        4.7709614171       -8.9039694003  CLST         415          1.0000000000
      1246       416  TIP3  OH2           5.5975029120       12.4115858966       -7.7706593865  CLST         416          1.0000000000
      1247       416  TIP3  H1            5.4793044360       13.3345819121       -8.0281040576  CLST         416          1.0000000000
      1248       416  TIP3  H2            6.5239756257       12.2928588850       -8.1851370930  CLST         416          1.0000000000
      1249       417  TIP3  OH2          12.7284779409      -11.1633289716        2.7048202176  CLST         417          1.0000000000
      1250       417  TIP3  H1           12.2575163711      -11.8977691550        2.2895637271  CLST         417          1.0000000000
      1251       417  TIP3  H2           12.5108919646      -10.4436241007        2.0873901814  CLST         417          1.0000000000
      1252       418  TIP3  OH2          -9.1969285776       -1.5235948822        8.4419034315  CLST         418          1.0000000000
      1253       418  TIP3  H1           -8.6645398845       -1.0743999700        7.7575646620  CLST         418          1.0000000000
      1254       418  TIP3  H2           -9.4575952228       -0.7331254024        8.9398593001  CLST         418          1.0000000000
      1255       419  TIP3  OH2          14.9384376658        0.4931611870       -6.0502398078  CLST         419          1.0000000000
      1256       419  TIP3  H1           14.3339036912        0.8840615854       -5.3595235678  CLST         419          1.0000000000
      1257       419  TIP3  H2           15.6935489486        1.0149649601       -5.8410335216  CLST         419          1.0000000000
      1258       420  TIP3  OH2          -8.2095388534       -8.2222509230        3.6512890018  CLST         420          1.0000000000
      1259       420  TIP3  H1           -9.0006216116       -8.0346017055        3.0708066733  CLST         420          1.0000000000
      1260       420  TIP3  H2           -8.2133099165       -9.2008230966        3.6358448018  CLST         420          1.0000000000
      1261       421  TIP3  OH2           3.5245452562       -6.3811172383      -13.4297194459  CLST         421          1.0000000000
      1262       421  TIP3  H1            4.3891685520       -6.8323916740      -13.3158258321  CLST         421          1.0000000000
      1263       421  TIP3  H2            3.0394749979       -7.2620278019      -13.5760666303  CLST         421          1.0000000000
      1264       422  TIP3  OH2          -1.8518291628       -9.4242103051       -1.7694675712  CLST         422          1.0000000000
      1265       422  TIP3  H1           -1.2267275283      -10.1515635149       -1.6284941347  CLST         422          1.0000000000
      1266       422  TIP3  H2           -2.5986857951       -9.9939217121       -1.9232512620  CLST         422          1.0000000000
      1267       423  TIP3  OH2           1.6869216534        4.8849984441       -3.9843474994  CLST         423          1.0000000000
      1268       423  TIP3  H1            2.4855929320        5.3851519056       -4.3896753579  CLST         423          1.0000000000
      1269       423  TIP3  H2            2.0250781286        4.8155946532       -3.0575840688  CLST         423          1.0000000000
      1270       424  TIP3  OH2          -9.0005774710        4.4063703769        4.4322534441  CLST         424          1.0000000000
      1271       424  TIP3  H1           -9.1373345836        3.8201821935        3.6542844494  CLST         424          1.0000000000
      1272       424  TIP3  H2           -8.2492454034        5.0132624174        4.2668329166  CLST         424          1.0000000000
      1273       425  TIP3  OH2           8.2522830607      -12.5913006436        8.3610889530  CLST         425          1.0000000000
      1274       425  TIP3  H1            8.2102423017      -11.7854663300        7.7632256254  CLST         425          1.0000000000
      1275       425  TIP3  H2            7.4307079189      -12.3406999424        8.7912104764  CLST         425          1.0000000000
      1276       426  TIP3  OH2           8.2988320376        2.1466752796        8.2764499642  CLST         426          1.0000000000
      1277       426  TIP3  H1            8.9882917483        2.1940789824        8.9490642158  CLST         426          1.0000000000
      1278       426  TIP3  H2            8.4980881701        3.0126880518        7.8490624057  CLST         426          1.0000000000
      1279       427  TIP3  OH2          11.3334078254        7.5817143019       10.8850239202  CLST         427          1.0000000000
      1280       427  TIP3  H1           11.3149536697        8.1630917255       11.6656934814  CLST         427          1.0000000000
      1281       427  TIP3  H2           10.5203596937        7.0362952530       11.0252258589  CLST         427          1.0000000000
      1282       428  TIP3  OH2          12.5006063474        7.5942676988        1.0998662030  CLST         428          1.0000000000
      1283       428  TIP3  H1           12.3066054483        7.8799516301        0.0920595198  CLST         428          1.0000000000
      1284       428  TIP3  H2           13.3966886718        7.7966044335        1.0726266826  CLST         428          1.0000000000
      1285       429  TIP3  OH2          11.8491765391       -9.8040668145       -0.7486542994  CLST         429          1.0000000000
      1286       429  TIP3  H1           12.1679937506       -9.2882969682        0.0192312591  CLST         429          1.0000000000
      1287       429  TIP3  H2           11.3090647040       -9.1837037071       -1.2699386196  CLST         429          1.0000000000
      1288       430  TIP3  OH2           9.8671020498       -6.6597658357        3.6139746509  CLST         430          1.0000000000
      1289       430  TIP3  H1            9.7082818698       -6.9827760535        2.6859700267  CLST         430          1.0000000000
      1290       430  TIP3  H2           10.8411806080       -6.7435640756        3.6333656861  CLST         430          1.0000000000
      1291       431  TIP3  OH2         -12.8965802156        9.4786102377       -2.5176482239  CLST         431          1.0000000000
      1292       431  TIP3  H1          -13.4122953010        9.6477637299       -3.2174843207  CLST         431          1.0000000000
      1293       431  TIP3  H2          -13.4716669501        9.3825127802       -1.6977459643  CLST         431          1.0000000000
      1294       432  TIP3  OH2           5.5777817464        8.4682796017      -10.0375031090  CLST         432          1.0000000000
      1295       432  TIP3  H1            5.9442357354        8.2996997472       -9.1356556567  CLST         432          1.0000000000
      1296       432  TIP3  H2            5.0235466703        9.2332868695       -9.6996148272  CLST         432          1.0000000000
      1297       433  TIP3  OH2          -0.7567082194        8.1443596185        7.9047791880  CLST         433          1.0000000000
      1298       433  TIP3  H1           -1.6645517735        8.5153230196        7.9874944587  CLST         433          1.0000000000
      1299       433  TIP3  H2           -0.9170959695        7.4008822982        7.2725453491  CLST         433          1.0000000000
      1300       434  TIP3  OH2          -7.2964666297        0.6353436972        3.7292694221  CLST         434          1.0000000000
      1301       434  TIP3  H1           -7.7293462902        1.3186128629        3.0777875570  CLST         434          1.0000000000
      1302       434  TIP3  H2           -8.0566325724       -0.0398617088        3.6369312820  CLST         434          1.0000000000
      1303       435  TIP3  OH2           9.9075935441       -0.4033973668       -7.2205377045  CLST         435          1.0000000000
      1304       435  TIP3  H1            9.5783218987       -0.4858061033       -6.3143559390  CLST         435          1.0000000000
      1305       435  TIP3  H2           10.0247433238        0.5819307783       -7.2993110277  CLST         435          1.0000000000
      1306       436  TIP3  OH2           3.7141805708       10.4980815658       -9.0174441089  CLST         436          1.0000000000
      1307       436  TIP3  H1            4.0569456061       11.2984357643       -8.5929182311  CLST         436          1.0000000000
      1308       436  TIP3  H2            2.9222021370       10.2433358937       -8.5054187252  CLST         436          1.0000000000
      1309       437  TIP3  OH2          -8.5030528514       -0.7944930481       -8.0955805563  CLST         437          1.0000000000
      1310       437  TIP3  H1           -8.7855459366       -0.3366847984       -8.9025499239  CLST         437          1.0000000000
      1311       437  TIP3  H2           -7.5196549387       -0.6118868492       -8.0905816205  CLST         437          1.0000000000
      1312       438  TIP3  OH2          -3.3518879381        5.5354022800       -8.1198371071  CLST         438          1.0000000000
      1313       438  TIP3  H1           -4.0730119252        6.1830735021       -7.8155563465  CLST         438          1.0000000000
      1314       438  TIP3  H2           -3.7031466321        5.5781635211       -9.0561194225  CLST         438          1.0000000000
      1315       439  TIP3  OH2          14.1735937698        1.7801740140       -3.9840854619  CLST         439          1.0000000000
      1316       439  TIP3  H1           13.5692033538        2.6075626836       -4.2006911136  CLST         439          1.0000000000
      1317       439  TIP3  H2           13.6492148278        1.3940372451       -3.1543393513  CLST         439          1.0000000000
      1318       440  TIP3  OH2           1.1738891823      -12.8609105728      -11.1873636463  CLST         440          1.0000000000
      1319       440  TIP3  H1            0.2000928134      -12.7229564653      -11.1627784951  CLST         440          1.0000000000
      1320       440  TIP3  H2            1.2918371878      -13.3586977366      -11.8512991771  CLST         440          1.0000000000
      1321       441  TIP3  OH2          -1.4914910939       -4.2826379415        3.1787280629  CLST         441          1.0000000000
      1322       441  TIP3  H1           -1.7444711003       -3.4444484241        3.3244399252  CLST         441          1.0000000000
      1323       441  TIP3  H2           -1.1471247730       -4.6861572441        4.0490760055  CLST         441          1.0000000000
      1324       442  TIP3  OH2           3.2894107110       -9.7774493362       -7.9658078376  CLST         442          1.0000000000
      1325       442  TIP3  H1            3.5972300433      -10.3921521608       -8.6734232943  CLST         442          1.0000000000
      1326       442  TIP3  H2            2.4669401116       -9.4385729070       -8.4194997992  CLST         442          1.0000000000
      1327       443  TIP3  OH2           1.1791847895       10.3853564241      -12.9125272694  CLST         443          1.0000000000
      1328       443  TIP3  H1            1.4556948476       11.1779521545      -12.2264328311  CLST         443          1.0000000000
      1329       443  TIP3  H2            1.5503096307       10.8047970156      -13.7162723154  CLST         443          1.0000000000
      1330       444  TIP3  OH2          -8.0178465671        1.3770669840       -1.8046526794  CLST         444          1.0000000000
      1331       444  TIP3  H1           -7.9336304635        2.0624348159       -2.5741495150  CLST         444          1.0000000000
      1332       444  TIP3  H2           -7.4779414524        1.9721227270       -1.2164272272  CLST         444          1.0000000000
      1333       445  TIP3  OH2         -11.5076283443       -5.2039011241        6.2333096828  CLST         445          1.0000000000
      1334       445  TIP3  H1          -11.2899178539       -4.3154039411        5.9250826196  CLST         445          1.0000000000
      1335       445  TIP3  H2          -11.5368198020       -4.8906277728        7.2027344787  CLST         445          1.0000000000
      1336       446  TIP3  OH2          -2.9305895038        4.5789423510       -5.3793201902  CLST         446          1.0000000000
      1337       446  TIP3  H1           -3.2322023016        4.8579188504       -6.2579847251  CLST         446          1.0000000000
      1338       446  TIP3  H2           -2.0802812620        5.1013496663       -5.3996092916  CLST         446          1.0000000000
      1339       447  TIP3  OH2          -5.1896155706      -12.6858871500       -3.8301845810  CLST         447          1.0000000000
      1340       447  TIP3  H1           -5.3592083802      -13.5530783605       -3.3977493023  CLST         447          1.0000000000
      1341       447  TIP3  H2           -4.6847618176      -12.1449760115       -3.2141659991  CLST         447          1.0000000000
      1342       448  TIP3  OH2           7.2325291010        9.5828808458        4.7821468549  CLST         448          1.0000000000
      1343       448  TIP3  H1            7.5680364051        9.5840678995        5.7437787027  CLST         448          1.0000000000
      1344       448  TIP3  H2            6.4939812857       10.2092334035        4.9566328684  CLST         448          1.0000000000
      1345       449  TIP3  OH2           4.2865859587        5.1416851979        8.4012512147  CLST         449          1.0000000000
      1346       449  TIP3  H1            4.9785245162        4.5859573755        8.8676214640  CLST         449          1.0000000000
      1347       449  TIP3  H2            3.8792080874        4.5382464573        7.7735254347  CLST         449          1.0000000000
      1348       450  TIP3  OH2          -4.0475969657        0.4679506570       -1.9728103420  CLST         450          1.0000000000
      1349       450  TIP3  H1           -3.8382434146        1.2872961826       -2.4640198119  CLST         450          1.0000000000
      1350       450  TIP3  H2           -3.1875005750        0.0182050676       -2.0646290177  CLST         450          1.0000000000
      1351       451  TIP3  OH2          13.6179815837       -1.9091495859       -5.8910559876  CLST         451          1.0000000000
      1352       451  TIP3  H1           14.3736195828       -2.2077818704       -5.6531981950  CLST         451          1.0000000000
      1353       451  TIP3  H2           14.2277964486       -0.5079120271       -6.1192745741  CLST         451          1.0000000000
      1354       452  TIP3  OH2           8.3874260973        4.9361504151        8.0617182461  CLST         452          1.0000000000
      1355       452  TIP3  H1            7.6139045045        5.5991509298        7.9812608878  CLST         452          1.0000000000
      1356       452  TIP3  H2            9.0428370548        5.4285999573        7.5244949513  CLST         452          1.0000000000
      1357       453  TIP3  OH2           7.1899687953        2.6180791770       -6.0993155398  CLST         453          1.0000000000
      1358       453  TIP3  H1            6.3208455672        2.3884089429       -5.6399946968  CLST         453          1.0000000000
      1359       453  TIP3  H2            6.7479190162        2.5519336093       -6.9943020171  CLST         453          1.0000000000
      1360       454  TIP3  OH2           1.1440273159        5.5465707637        1.9488279289  CLST         454          1.0000000000
      1361       454  TIP3  H1            0.3295638437        5.1231095398        1.5454130116  CLST         454          1.0000000000
      1362       454  TIP3  H2            0.7914003634        6.1799527997        2.5998270130  CLST         454          1.0000000000
      1363       455  TIP3  OH2          -1.0865304418        0.8558136738      -10.4570167545  CLST         455          1.0000000000
      1364       455  TIP3  H1           -1.0049934860        1.0967280668       -9.5240109698  CLST         455          1.0000000000
      1365       455  TIP3  H2           -1.1574138022        1.7786285936      -10.7995111394  CLST         455          1.0000000000
      1366       456  TIP3  OH2           5.3458962193       11.3282982210        5.3266483219  CLST         456          1.0000000000
      1367       456  TIP3  H1            4.8589841293       11.8354778476        4.6613851470  CLST         456          1.0000000000
      1368       456  TIP3  H2            4.5990599809       10.9582946755        5.8992987451  CLST         456          1.0000000000
      1369       457  TIP3  OH2          -4.8998968678       -7.6965735191        4.8613029804  CLST         457          1.0000000000
      1370       457  TIP3  H1           -5.6430337603       -7.6089614496        5.4334694141  CLST         457          1.0000000000
      1371       457  TIP3  H2           -5.2493064584       -7.4356481909        3.9682060782  CLST         457          1.0000000000
      1372       458  TIP3  OH2           7.9794605416       -6.4491909628      -11.2342695398  CLST         458          1.0000000000
      1373       458  TIP3  H1            8.9450792842       -6.3113096913      -11.4740408676  CLST         458          1.0000000000
      1374       458  TIP3  H2            7.8342816757       -5.5476690957      -10.7826162544  CLST         458          1.0000000000
      1375       459  TIP3  OH2           6.5203919177       -9.8534521109       -7.9949303129  CLST         459          1.0000000000
      1376       459  TIP3  H1            6.1018214114       -8.9752547784       -7.8399279693  CLST         459          1.0000000000
      1377       459  TIP3  H2            7.3416704905       -9.5198766317       -8.4858178603  CLST         459          1.0000000000
      1378       460  TIP3  OH2           9.2037027286       -2.1060014241       -2.8228709718  CLST         460          1.0000000000
      1379       460  TIP3  H1            9.6203560719       -2.8050016197       -2.3111081218  CLST         460          1.0000000000
      1380       460  TIP3  H2            9.9238407373       -1.7609510857       -3.3842850168  CLST         460          1.0000000000
      1381       461  TIP3  OH2          -1.4202037804      -12.7567917977       -5.3860901611  CLST         461          1.0000000000
      1382       461  TIP3  H1           -0.7301714745      -13.1489224889       -6.0085360592  CLST         461          1.0000000000
      1383       461  TIP3  H2           -1.0796257267      -13.1749891586       -4.5289855858  CLST         461          1.0000000000
      1384       462  TIP3  OH2           0.0147501652        5.4223373433      -12.6603597381  CLST         462          1.0000000000
      1385       462  TIP3  H1            0.1488998938        6.4141170486      -12.4797331698  CLST         462          1.0000000000
      1386       462  TIP3  H2            0.8260616683        5.3652572827      -13.1201763507  CLST         462          1.0000000000
      1387       463  TIP3  OH2          -1.8750093046        1.7001878745       -7.8024701940  CLST         463          1.0000000000
      1388       463  TIP3  H1           -1.5841751280        1.0810098927       -7.1067516631  CLST         463          1.0000000000
      1389       463  TIP3  H2           -2.8224021175        1.8021848333       -7.5134037897  CLST         463          1.0000000000
      1390       464  TIP3  OH2          -6.6551869944        6.1377609658        4.2720105196  CLST         464          1.0000000000
      1391       464  TIP3  H1           -6.0283254271        5.7281641408        4.8501919504  CLST         464          1.0000000000
      1392       464  TIP3  H2           -6.9185886873        6.8860437589        4.8486826832  CLST         464          1.0000000000
      1393       465  TIP3  OH2          -4.6526802570      -12.5868761354        6.2764533074  CLST         465          1.0000000000
      1394       465  TIP3  H1           -3.8118049640      -13.0562990001        6.0817489124  CLST         465          1.0000000000
      1395       465  TIP3  H2           -4.2368223704      -11.6780810666        6.1987740092  CLST         465          1.0000000000
      1396       466  TIP3  OH2          -2.3425674749        9.0443680301       -4.4158346248  CLST         466          1.0000000000
      1397       466  TIP3  H1           -2.9813464128        9.1438848904       -5.1759019745  CLST         466          1.0000000000
      1398       466  TIP3  H2           -2.5288845293        9.7492868819       -3.7996046702  CLST         466          1.0000000000
      1399       467  TIP3  OH2           8.3183721865        6.0293893756        4.6876821641  CLST         467          1.0000000000
      1400       467  TIP3  H1            8.9316837320        6.3774573291        5.3498288803  CLST         467          1.0000000000
      1401       467  TIP3  H2            8.3373647132        6.7359375983        4.0010671758  CLST         467          1.0000000000
      1402       468  TIP3  OH2          -0.4775652611      -12.3200268473       10.3774401916  CLST         468          1.0000000000
      1403       468  TIP3  H1           -0.8875441041      -12.2893529187       11.2397836464  CLST         468          1.0000000000
      1404       468  TIP3  H2            0.4561975087      -12.4785046284       10.6466260067  CLST         468          1.0000000000
      1405       469  TIP3  OH2           5.5560219848        8.4274280426       14.1522239824  CLST         469          1.0000000000
      1406       469  TIP3  H1            6.1763757088        8.4848218715       13.4134236325  CLST         469          1.0000000000
      1407       469  TIP3  H2            4.8985028829        9.0460698989       13.8267009289  CLST         469          1.0000000000
      1408       470  TIP3  OH2         -11.2053320911       12.7370984336        0.6170724604  CLST         470          1.0000000000
      1409       470  TIP3  H1          -11.0603778275       12.6009219646       -0.3242478136  CLST         470          1.0000000000
      1410       470  TIP3  H2          -11.7678470314       11.9836873378        0.8272599926  CLST         470          1.0000000000
      1411       471  TIP3  OH2          -4.2160395569        9.6549077211       -9.0579775867  CLST         471          1.0000000000
      1412       471  TIP3  H1           -3.9826113953        8.7311021166       -9.2498246724  CLST         471          1.0000000000
      1413       471  TIP3  H2           -4.5088991435        9.9984040766       -9.9331860463  CLST         471          1.0000000000
      1414       472  TIP3  OH2         -11.8679210193        3.8192221556        2.8623645374  CLST         472          1.0000000000
      1415       472  TIP3  H1          -12.5994202816        3.1072778456        2.7817701071  CLST         472          1.0000000000
      1416       472  TIP3  H2          -11.2840962579        3.3567916044        2.1921466269  CLST         472          1.0000000000
      1417       473  TIP3  OH2           5.3338094325        0.7203057192       10.1614834563  CLST         473          1.0000000000
      1418       473  TIP3  H1            5.8504128220        1.4965165423        9.9354113518  CLST         473          1.0000000000
      1419       473  TIP3  H2            4.6556296708        1.1405407695       10.7532873373  CLST         473          1.0000000000
      1420       474  TIP3  OH2           1.2360088755        1.7007318305        1.4358130370  CLST         474          1.0000000000
      1421       474  TIP3  H1            0.2566436722        1.6682744412        1.2500510934  CLST         474          1.0000000000
      1422       474  TIP3  H2            1.5342722365        1.0959908708        0.7710221801  CLST         474          1.0000000000
      1423       475  TIP3  OH2           5.9914382585       -8.6317340013       12.0377297969  CLST         475          1.0000000000
      1424       475  TIP3  H1            6.8788083063       -8.5115945646       12.4561733615  CLST         475          1.0000000000
      1425       475  TIP3  H2            6.0113156038       -8.9405676472       11.1051241325  CLST         475          1.0000000000
      1426       476  TIP3  OH2         -11.5239050213       -8.9735770542       -0.0278415290  CLST         476          1.0000000000
      1427       476  TIP3  H1          -11.9006729964       -8.1134492454       -0.3765358596  CLST         476          1.0000000000
      1428       476  TIP3  H2          -10.8727722598       -9.0377274028       -0.7355159668  CLST         476          1.0000000000
      1429       477  TIP3  OH2         -12.4839455321        3.4962320191      -13.5362308691  CLST         477          1.0000000000
      1430       477  TIP3  H1          -12.3966033733        2.6098065361      -13.3090385095  CLST         477          1.0000000000
      1431       477  TIP3  H2          -12.0756473516        3.3833441552      -14.3617170264  CLST         477          1.0000000000
      1432       478  TIP3  OH2          -3.9636960618        6.5921946779      -10.7380413259  CLST         478          1.0000000000
      1433       478  TIP3  H1           -4.3709325517        6.0927516363      -11.4289451314  CLST         478          1.0000000000
      1434       478  TIP3  H2           -3.3179026082        7.2024552770      -11.2196021076  CLST         478          1.0000000000
      1435       479  TIP3  OH2           7.8732004216       -1.6393222070       -8.5060022574  CLST         479          1.0000000000
      1436       479  TIP3  H1            8.6108895412       -1.0309686763       -8.2812432564  CLST         479          1.0000000000
      1437       479  TIP3  H2            7.3681079856       -1.4620992935       -7.6640723377  CLST         479          1.0000000000
      1438       480  TIP3  OH2          -6.1229320804        7.6534701086       -0.1432883917  CLST         480          1.0000000000
      1439       480  TIP3  H1           -5.2219390564        8.1137020217       -0.2296867127  CLST         480          1.0000000000
      1440       480  TIP3  H2           -5.7960102213        6.7096765383       -0.0268455715  CLST         480          1.0000000000
      1441       481  TIP3  OH2          -2.9827487898        2.3462860452       11.8931473260  CLST         481          1.0000000000
      1442       481  TIP3  H1           -2.0473826124        2.5318400592       11.6062196119  CLST         481          1.0000000000
      1443       481  TIP3  H2           -2.8491860403        1.7558139168       12.5810187657  CLST         481          1.0000000000
      1444       482  TIP3  OH2          -7.9625255480       11.5174435166       -7.5929055352  CLST         482          1.0000000000
      1445       482  TIP3  H1           -8.5748968535       11.2485952968       -8.3111125596  CLST         482          1.0000000000
      1446       482  TIP3  H2           -7.2913978762       12.0018564970       -8.1388135869  CLST         482          1.0000000000
      1447       483  TIP3  OH2           6.3624335699       -5.9526288402       12.7585805498  CLST         483          1.0000000000
      1448       483  TIP3  H1            5.4385617882       -6.2607805888       12.7549209275  CLST         483          1.0000000000
      1449       483  TIP3  H2            6.3958539475       -5.6304779178       11.8421169253  CLST         483          1.0000000000
      1450       484  TIP3  OH2           6.8384332803       -2.9136991705        2.9579915315  CLST         484          1.0000000000
      1451       484  TIP3  H1            5.8883842394       -3.0531986833        2.7326756399  CLST         484          1.0000000000
      1452       484  TIP3  H2            6.6798964719       -2.3203233478        3.7255900675  CLST         484          1.0000000000
      1453       485  TIP3  OH2         -11.7870582664        4.5434730194        9.9565706717  CLST         485          1.0000000000
      1454       485  TIP3  H1          -11.4466182629        3.6360875970       10.0199726412  CLST         485          1.0000000000
      1455       485  TIP3  H2          -12.5430914688        4.3136316097        9.2971912112  CLST         485          1.0000000000
      1456       486  TIP3  OH2           8.4521119345       -7.1887997067       13.6453474997  CLST         486          1.0000000000
      1457       486  TIP3  H1            8.5976041229       -6.9437709705       14.4372373442  CLST         486          1.0000000000
      1458       486  TIP3  H2            7.6632589434       -6.5824089320       13.3915195993  CLST         486          1.0000000000
      1459       487  TIP3  OH2          12.1999842942       -8.3711892227        6.0583609458  CLST         487          1.0000000000
      1460       487  TIP3  H1           11.2251249063       -8.2220507910        6.1264996383  CLST         487          1.0000000000
      1461       487  TIP3  H2           12.3635232764       -8.4525627952        7.0118286135  CLST         487          1.0000000000
      1462       488  TIP3  OH2          15.0115646920        8.4243033742        7.5498235100  CLST         488          1.0000000000
      1463       488  TIP3  H1           15.6935489486        7.7743803243        7.5380930418  CLST         488          1.0000000000
      1464       488  TIP3  H2           14.2311357270        7.8684996873        7.9769874465  CLST         488          1.0000000000
      1465       489  TIP3  OH2          -6.2396832392      -10.6479294217       11.7901319496  CLST         489          1.0000000000
      1466       489  TIP3  H1           -6.4496817909       -9.8149258839       11.8429278754  CLST         489          1.0000000000
      1467       489  TIP3  H2           -6.9918602535      -11.0344404053       11.2070659509  CLST         489          1.0000000000
      1468       490  TIP3  OH2           6.7328524021      -13.0133915560        2.2204566123  CLST         490          1.0000000000
      1469       490  TIP3  H1            6.7481245661      -12.1348632121        2.6464780670  CLST         490          1.0000000000
      1470       490  TIP3  H2            6.9230285143      -13.6543097453        2.8810628765  CLST         490          1.0000000000
      1471       491  TIP3  OH2           3.0202830349       -9.2597476620        5.0055836942  CLST         491          1.0000000000
      1472       491  TIP3  H1            2.1286355161       -9.0312312973        5.3677648974  CLST         491          1.0000000000
      1473       491  TIP3  H2            2.8157005058       -9.6263963708        4.1280932305  CLST         491          1.0000000000
      1474       492  TIP3  OH2          -0.5325559580       -6.5213614019       12.3641330537  CLST         492          1.0000000000
      1475       492  TIP3  H1           -0.8653068970       -7.4723307437       11.9981287334  CLST         492          1.0000000000
      1476       492  TIP3  H2           -1.3739059373       -5.9957440078       12.0790294352  CLST         492          1.0000000000
      1477       493  TIP3  OH2           3.4077640584       10.6413948300        7.0046261638  CLST         493          1.0000000000
      1478       493  TIP3  H1            3.8677193101       10.9970706919        7.8108373986  CLST         493          1.0000000000
      1479       493  TIP3  H2            2.6139873410       10.2695396357        7.5051210447  CLST         493          1.0000000000
      1480       494  TIP3  OH2          -9.0911106070        5.3512314193       -0.8863707128  CLST         494          1.0000000000
      1481       494  TIP3  H1           -9.7451028442        5.6232358805       -1.5437499779  CLST         494          1.0000000000
      1482       494  TIP3  H2           -9.3700596839        5.9184961874       -0.1544367452  CLST         494          1.0000000000
      1483       495  TIP3  OH2           5.1370170606       -6.7575037198       -2.0429377616  CLST         495          1.0000000000
      1484       495  TIP3  H1            5.6607119354       -6.2880707048       -2.7315387505  CLST         495          1.0000000000
      1485       495  TIP3  H2            5.9350413478       -7.2691390022       -1.7673042207  CLST         495          1.0000000000
      1486       496  TIP3  OH2         -12.8442506335      -10.8069721117        7.5740027357  CLST         496          1.0000000000
      1487       496  TIP3  H1          -13.5114795863      -11.3759047140        7.8952168803  CLST         496          1.0000000000
      1488       496  TIP3  H2          -12.5055127432      -11.4744955423        6.9307622681  CLST         496          1.0000000000
      1489       497  TIP3  OH2          -9.7576878339      -13.4388264144       -7.1972307083  CLST         497          1.0000000000
      1490       497  TIP3  H1           -9.8225904033      -14.3464051520       -7.0962182514  CLST         497          1.0000000000
      1491       497  TIP3  H2          -10.2842064202      -13.1921113840       -7.9010415563  CLST         497          1.0000000000
      1492       498  TIP3  OH2          -5.5899414550        0.6195511104      -11.1540696526  CLST         498          1.0000000000
      1493       498  TIP3  H1           -6.0118826211        0.8996336813      -11.9719491881  CLST         498          1.0000000000
      1494       498  TIP3  H2           -5.3419594255        1.4917734769      -10.7897247742  CLST         498          1.0000000000
      1495       499  TIP3  OH2          11.6709563540        6.6660315575        3.7419373402  CLST         499          1.0000000000
      1496       499  TIP3  H1           12.2982001732        6.9320996129        3.0675323324  CLST         499          1.0000000000
      1497       499  TIP3  H2           11.1512495640        7.4892273990        3.8449738275  CLST         499          1.0000000000
      1498       500  TIP3  OH2           2.4694070278       -8.7932227405      -13.3229965762  CLST         500          1.0000000000
      1499       500  TIP3  H1            1.7392772164       -8.9792026755      -13.8100570677  CLST         500          1.0000000000
      1500       500  TIP3  H2            2.6230570799       -9.6194632388      -12.7159476058  CLST         500          1.0000000000
      1501       501  TIP3  OH2           1.2892624923      -10.9273314160       14.0485628465  CLST         501          1.0000000000
      1502       501  TIP3  H1            1.4739233453      -11.8769008859       13.9631984729  CLST         501          1.0000000000
      1503       501  TIP3  H2            2.2411274216      -10.7149131581       13.8659700365  CLST         501          1.0000000000
      1504       502  TIP3  OH2           6.0659403846        3.7218539308        9.6910123020  CLST         502          1.0000000000
      1505       502  TIP3  H1            6.4617551273        4.1760888137       10.4695238502  CLST         502          1.0000000000
      1506       502  TIP3  H2            6.9013461100        3.4581573904        9.2545545623  CLST         502          1.0000000000
      1507       503  TIP3  OH2          10.2662549523       -0.8453647949        0.2227835764  CLST         503          1.0000000000
      1508       503  TIP3  H1           11.1706733185       -0.7822435479        0.4867605914  CLST         503          1.0000000000
      1509       503  TIP3  H2           10.2321860032       -0.0983544512       -0.3821341780  CLST         503          1.0000000000
      1510       504  TIP3  OH2           8.4276223236      -13.8614054997       10.7146504774  CLST         504          1.0000000000
      1511       504  TIP3  H1            8.3052916136      -13.6700716857        9.7781878870  CLST         504          1.0000000000
      1512       504  TIP3  H2            8.4007603130      -14.8368122766       10.6602098909  CLST         504          1.0000000000
      1513       505  TIP3  OH2           3.5566675744      -10.9088747320       -5.5912126799  CLST         505          1.0000000000
      1514       505  TIP3  H1            3.3805510315      -10.3639887284       -6.3985533268  CLST         505          1.0000000000
      1515       505  TIP3  H2            3.3371688311      -10.3846757628       -4.8350788232  CLST         505          1.0000000000
      1516       506  TIP3  OH2          -9.2116508501       -3.3683621820       -8.1358421487  CLST         506          1.0000000000
      1517       506  TIP3  H1           -8.9155935164       -2.3747409525       -7.9846930128  CLST         506          1.0000000000
      1518       506  TIP3  H2          -10.0301638169       -3.1884256628       -8.6838853782  CLST         506          1.0000000000
      1519       507  TIP3  OH2          11.0805649285        9.5857864437      -12.8263530815  CLST         507          1.0000000000
      1520       507  TIP3  H1           11.0955601886        9.7322553806      -13.6645185401  CLST         507          1.0000000000
      1521       507  TIP3  H2           10.9767932371        8.5998902164      -12.5619470242  CLST         507          1.0000000000
      1522       508  TIP3  OH2           9.1124090766       12.2601360695        8.8445988534  CLST         508          1.0000000000
      1523       508  TIP3  H1            8.7461603933       11.8858402264        8.0082620613  CLST         508          1.0000000000
      1524       508  TIP3  H2            9.9315905711       12.6865868542        8.4847134776  CLST         508          1.0000000000
      1525       509  TIP3  OH2          -0.7448278566       -1.5179599557      -11.2159474901  CLST         509          1.0000000000
      1526       509  TIP3  H1           -1.6722544630       -1.8177687211      -11.2145032340  CLST         509          1.0000000000
      1527       509  TIP3  H2           -0.8689929183       -0.5272742038      -10.9814404262  CLST         509          1.0000000000
      1528       510  TIP3  OH2           8.2019086164        2.2337395414       11.5972190598  CLST         510          1.0000000000
      1529       510  TIP3  H1            8.1317344055        1.2273805596       11.5360235149  CLST         510          1.0000000000
      1530       510  TIP3  H2            9.0308056265        2.2755847701       11.0654962928  CLST         510          1.0000000000
      1531       511  TIP3  OH2          -8.6876655219       -5.9061732670       -0.8180539695  CLST         511          1.0000000000
      1532       511  TIP3  H1           -9.5868215421       -5.9764106632       -1.1502234209  CLST         511          1.0000000000
      1533       511  TIP3  H2           -8.0571557666       -5.6490262159       -1.5259319577  CLST         511          1.0000000000
      1534       512  TIP3  OH2          10.1442276692        6.9708694369        6.8916085104  CLST         512          1.0000000000
      1535       512  TIP3  H1           10.3439138203        7.6643473071        7.5500389418  CLST         512          1.0000000000
      1536       512  TIP3  H2           10.2217717059        7.5903679543        6.1236936375  CLST         512          1.0000000000
      1537       513  TIP3  OH2         -12.0183196643       10.4601727408        9.3285975539  CLST         513          1.0000000000
      1538       513  TIP3  H1          -11.3203104601       11.0886115693        9.5923693872  CLST         513          1.0000000000
      1539       513  TIP3  H2          -12.1398584769       10.0593012370       10.2148349285  CLST         513          1.0000000000
      1540       514  TIP3  OH2          -4.8479203908        4.9836380134        0.2300260636  CLST         514          1.0000000000
      1541       514  TIP3  H1           -4.0313381095        5.3016029742        0.7081950323  CLST         514          1.0000000000
      1542       514  TIP3  H2           -4.4086614953        4.8412734679       -0.6408778873  CLST         514          1.0000000000
      1543       515  TIP3  OH2          -0.8183561152        1.0406672427       -4.2208218158  CLST         515          1.0000000000
      1544       515  TIP3  H1           -1.7246295674        1.4525423041       -4.1648640950  CLST         515          1.0000000000
      1545       515  TIP3  H2           -0.2348361925        1.8189095292       -4.4799183966  CLST         515          1.0000000000
      1546       516  TIP3  OH2          -7.3161241485       -8.4843218603        6.3130921870  CLST         516          1.0000000000
      1547       516  TIP3  H1           -7.6907030090       -8.2791998832        5.4256169442  CLST         516          1.0000000000
      1548       516  TIP3  H2           -7.8829525911       -7.7275424677        6.7574702169  CLST         516          1.0000000000
      1549       517  TIP3  OH2           0.6060391140       11.0228299714       11.4061451580  CLST         517          1.0000000000
      1550       517  TIP3  H1            0.7844067893       10.8078186298       10.4724640132  CLST         517          1.0000000000
      1551       517  TIP3  H2           -0.3590333777       11.2142673338       11.3828342041  CLST         517          1.0000000000
      1552       518  TIP3  OH2         -11.4763715144       -3.4155980978      -11.4130739659  CLST         518          1.0000000000
      1553       518  TIP3  H1          -12.1902730579       -3.4485499165      -12.5133948193  CLST         518          1.0000000000
      1554       518  TIP3  H2          -10.5824952356       -3.8796371615      -11.8093024213  CLST         518          1.0000000000
      1555       519  TIP3  OH2           2.1237509739        3.4495287147        3.2627274569  CLST         519          1.0000000000
      1556       519  TIP3  H1            1.6932343043        4.1346254965        2.6717777751  CLST         519          1.0000000000
      1557       519  TIP3  H2            1.9891043825        2.6564639075        2.6179242063  CLST         519          1.0000000000
      1558       520  TIP3  OH2         -10.2047467960        6.3185844992        8.2093876641  CLST         520          1.0000000000
      1559       520  TIP3  H1          -10.6045651641        5.7487127634        7.4875315231  CLST         520          1.0000000000
      1560       520  TIP3  H2          -10.5592788042        5.7037834998        8.9001937833  CLST         520          1.0000000000
      1561       521  TIP3  OH2           8.3917226428       -8.7903018896       -9.5464980644  CLST         521          1.0000000000
      1562       521  TIP3  H1            8.7181038903       -9.2434367696      -10.3765562085  CLST         521          1.0000000000
      1563       521  TIP3  H2            8.1065656061       -7.9374012824       -9.9222885042  CLST         521          1.0000000000
      1564       522  TIP3  OH2          -5.6415259593       -7.0711166275        8.0695277804  CLST         522          1.0000000000
      1565       522  TIP3  H1           -5.8266724761       -7.8237000441        7.5273323749  CLST         522          1.0000000000
      1566       522  TIP3  H2           -4.6699084612       -7.2082706032        8.2198772257  CLST         522          1.0000000000
      1567       523  TIP3  OH2          -4.0676656875       12.0580087083      -13.6014453750  CLST         523          1.0000000000
      1568       523  TIP3  H1           -3.0484688628       11.9383078393      -13.4312145909  CLST         523          1.0000000000
      1569       523  TIP3  H2           -4.1676999030       12.5440081855      -14.3169055827  CLST         523          1.0000000000
      1570       524  TIP3  OH2           6.9306347284        3.8904068978       -1.7654425686  CLST         524          1.0000000000
      1571       524  TIP3  H1            7.3568189936        3.2791234369       -2.3822613513  CLST         524          1.0000000000
      1572       524  TIP3  H2            5.9882328996        3.6569724571       -1.9575925033  CLST         524          1.0000000000
      1573       525  TIP3  OH2           0.3717673859        6.8672178307       -2.4515937004  CLST         525          1.0000000000
      1574       525  TIP3  H1            0.5989421283        6.2431412343       -3.1733629312  CLST         525          1.0000000000
      1575       525  TIP3  H2            0.0977463871        6.1466837965       -1.8016589437  CLST         525          1.0000000000
      1576       526  TIP3  OH2           7.0310049879       -5.4002827453       -3.5485067689  CLST         526          1.0000000000
      1577       526  TIP3  H1            7.2645977076       -5.5072359550       -4.5330292843  CLST         526          1.0000000000
      1578       526  TIP3  H2            7.9766877656       -5.5021136247       -3.1652699848  CLST         526          1.0000000000
      1579       527  TIP3  OH2           0.4999612819        7.2348868542        4.1102864491  CLST         527          1.0000000000
      1580       527  TIP3  H1            1.1054888040        7.6156199540        4.8180801963  CLST         527          1.0000000000
      1581       527  TIP3  H2           -0.2280161187        7.8037387916        3.8978744111  CLST         527          1.0000000000
      1582       528  TIP3  OH2          -2.8801434944        9.9463145345        8.7394092987  CLST         528          1.0000000000
      1583       528  TIP3  H1           -3.1957746720        9.6011140088        9.5914571798  CLST         528          1.0000000000
      1584       528  TIP3  H2           -3.6775789178        9.9390529655        8.1620598106  CLST         528          1.0000000000
      1585       529  TIP3  OH2          -5.9715357296       12.3278970309       -9.1833986902  CLST         529          1.0000000000
      1586       529  TIP3  H1           -5.0743607222       12.1562009939       -8.9027730216  CLST         529          1.0000000000
      1587       529  TIP3  H2           -5.9467906568       11.7646468560       -9.9854989297  CLST         529          1.0000000000
      1588       530  TIP3  OH2          -4.3451853876       -5.6426397069      -13.1854206855  CLST         530          1.0000000000
      1589       530  TIP3  H1           -4.2618754739       -6.5921690237      -13.3154300679  CLST         530          1.0000000000
      1590       530  TIP3  H2           -3.4781381902       -5.3345486621      -12.8443139200  CLST         530          1.0000000000
      1591       531  TIP3  OH2         -11.5379360786       -0.1660765938       10.5924176192  CLST         531          1.0000000000
      1592       531  TIP3  H1          -12.2474368824        0.0383272316       11.1656967533  CLST         531          1.0000000000
      1593       531  TIP3  H2          -11.7185847993       -0.9845954587       10.0545090803  CLST         531          1.0000000000
      1594       532  TIP3  OH2         -11.8764476986       -3.0579603898       -8.8659919841  CLST         532          1.0000000000
      1595       532  TIP3  H1          -12.8217591284       -3.6693486714       -9.5846664996  CLST         532          1.0000000000
      1596       532  TIP3  H2          -12.0911216209       -3.0866401519       -9.9345443743  CLST         532          1.0000000000
      1597       533  TIP3  OH2          -2.8176570233       -7.2111323449        8.6222994236  CLST         533          1.0000000000
      1598       533  TIP3  H1           -2.0973406458       -7.7421088719        8.2421025922  CLST         533          1.0000000000
      1599       533  TIP3  H2           -2.4311429101       -6.3333538136        8.3338275732  CLST         533          1.0000000000
      1600       534  TIP3  OH2           0.2831375667      -13.1386320860       -7.7517127494  CLST         534          1.0000000000
      1601       534  TIP3  H1            0.4129642619      -12.7284299405       -8.6290042127  CLST         534          1.0000000000
      1602       534  TIP3  H2            1.2387384311      -13.2141912877       -7.4923322287  CLST         534          1.0000000000
      1603       535  TIP3  OH2           2.7573232870        3.1477874964       -7.5944277557  CLST         535          1.0000000000
      1604       535  TIP3  H1            3.4000782250        2.6113394736       -7.0872331919  CLST         535          1.0000000000
      1605       535  TIP3  H2            2.0983484415        3.2273840255       -6.8897363640  CLST         535          1.0000000000
      1606       536  TIP3  OH2           8.0592531825      -12.6682016880       -3.3791383902  CLST         536          1.0000000000
      1607       536  TIP3  H1            7.4306852118      -12.4601262420       -4.0741354273  CLST         536          1.0000000000
      1608       536  TIP3  H2            8.4212239040      -13.4419523310       -3.8021706537  CLST         536          1.0000000000
      1609       537  TIP3  OH2          11.7622063729       -2.5623916876       -7.6941097949  CLST         537          1.0000000000
      1610       537  TIP3  H1           11.0848707251       -1.8543698645       -7.7715871872  CLST         537          1.0000000000
      1611       537  TIP3  H2           12.3043168751       -2.2600783107       -6.9405788410  CLST         537          1.0000000000
      1612       538  TIP3  OH2          -5.2126673812      -10.9342433418        0.7930535195  CLST         538          1.0000000000
      1613       538  TIP3  H1           -4.4515401118      -11.4137473629        1.3265144579  CLST         538          1.0000000000
      1614       538  TIP3  H2           -4.8133553480      -10.0405270268        0.8597901894  CLST         538          1.0000000000
      1615       539  TIP3  OH2           2.6156040017       -4.9148868057        0.8082866995  CLST         539          1.0000000000
      1616       539  TIP3  H1            1.6994476876       -5.2176086985        0.9894661353  CLST         539          1.0000000000
      1617       539  TIP3  H2            2.6280996295       -5.1634193339       -0.1168239128  CLST         539          1.0000000000
      1618       540  TIP3  OH2           3.9349260218       -6.7680641750        4.6368138526  CLST         540          1.0000000000
      1619       540  TIP3  H1            3.7043381301       -7.7449850140        4.8325885993  CLST         540          1.0000000000
      1620       540  TIP3  H2            4.2638896248       -6.8944217308        3.6915085188  CLST         540          1.0000000000
      1621       541  TIP3  OH2          -5.4539868325       10.5252464058        2.1147462261  CLST         541          1.0000000000
      1622       541  TIP3  H1           -6.0927978207       10.6654395626        2.9024567969  CLST         541          1.0000000000
      1623       541  TIP3  H2           -4.8160876488       11.2768130318        2.2297465544  CLST         541          1.0000000000
      1624       542  TIP3  OH2         -10.8353468703       14.3540282814        5.5803439537  CLST         542          1.0000000000
      1625       542  TIP3  H1          -11.0177218647       15.2244896075        5.3138355953  CLST         542          1.0000000000
      1626       542  TIP3  H2          -10.5117528476       13.9101511108        4.7046752295  CLST         542          1.0000000000
      1627       543  TIP3  OH2         -10.5751123634       11.3957565742       -2.4557375787  CLST         543          1.0000000000
      1628       543  TIP3  H1          -11.1620350366       10.7041420682       -2.8452743737  CLST         543          1.0000000000
      1629       543  TIP3  H2          -10.5855633804       11.9374945169       -3.3513614997  CLST         543          1.0000000000
      1630       544  TIP3  OH2          -0.3994681952        5.5136323935       -5.5543543617  CLST         544          1.0000000000
      1631       544  TIP3  H1           -0.2512555395        4.9914896056       -6.3849329098  CLST         544          1.0000000000
      1632       544  TIP3  H2            0.2564928919        5.1172488459       -4.9242825654  CLST         544          1.0000000000
      1633       545  TIP3  OH2          -7.9299832799        2.4447591743      -12.5579712322  CLST         545          1.0000000000
      1634       545  TIP3  H1           -7.9776771468        2.0391540356      -13.5479485990  CLST         545          1.0000000000
      1635       545  TIP3  H2           -8.6493793851        3.1599301750      -12.6057016005  CLST         545          1.0000000000
      1636       546  TIP3  OH2           3.9687426666       11.1923855425       -2.2058849519  CLST         546          1.0000000000
      1637       546  TIP3  H1            3.6261698548       10.2701058847       -2.0572479944  CLST         546          1.0000000000
      1638       546  TIP3  H2            4.5495107600       11.1431129020       -1.3402230410  CLST         546          1.0000000000
      1639       547  TIP3  OH2          -3.3975406800       -2.1981864566      -11.1775395634  CLST         547          1.0000000000
      1640       547  TIP3  H1           -3.4000114014       -2.2704415792      -10.2091572841  CLST         547          1.0000000000
      1641       547  TIP3  H2           -3.8702085992       -1.3422170992      -11.2169283812  CLST         547          1.0000000000
      1642       548  TIP3  OH2          10.6256666467        2.2822842356        1.4674672370  CLST         548          1.0000000000
      1643       548  TIP3  H1            9.7515934557        1.8464711101        1.6796790522  CLST         548          1.0000000000
      1644       548  TIP3  H2           10.4345933099        3.1247312382        1.9394630264  CLST         548          1.0000000000
